   * xtb version 6.7.1 (edcfbbe) compiled by 'albert@albert-system' on 2024-07-22

   ID    Z sym.   atoms
    1    6 C      1-27, 29-39, 41, 45, 47
    2    7 N      28, 40, 42, 44, 46
    3    8 O      43
    4    1 H      48-72

          program call               : xtb data2507/toluene/ANOP-MeFAC/ANOP-MeFAC.xyz --gfn 2 --gbsa toluene --ohess vtight --parallel 40 --molden --ceasefiles --namespace data2507/toluene/ANOP-MeFAC/ANOP-MeFAC_toluene_S0_preOpt
      * Solvation model:               GBSA
        Solvent                        toluene
        Solvent mass                       9.2140E+01 g/mol
          :  Hamiltonian                  GFN2-xTB          :
 * total energy  :  -119.2450445 Eh     change       -0.1734445E-07 Eh
 * total energy  :  -119.2666467 Eh     change       -0.2160221E-01 Eh
 * total energy  :  -119.2734957 Eh     change       -0.6849058E-02 Eh
 * total energy  :  -119.2744114 Eh     change       -0.9156589E-03 Eh
 * total energy  :  -119.2747489 Eh     change       -0.3375371E-03 Eh
 * total energy  :  -119.2748392 Eh     change       -0.9022923E-04 Eh
 * total energy  :  -119.2748805 Eh     change       -0.4136324E-04 Eh
 * total energy  :  -119.2748950 Eh     change       -0.1452520E-04 Eh
 * total energy  :  -119.2748994 Eh     change       -0.4390814E-05 Eh
 * total energy  :  -119.2749020 Eh     change       -0.2554810E-05 Eh
 * total energy  :  -119.2771866 Eh     change       -0.1443959E-05 Eh
 * total energy  :  -119.2771878 Eh     change       -0.1209356E-05 Eh
 * total energy  :  -119.2771886 Eh     change       -0.7886215E-06 Eh
 * total energy  :  -119.2771891 Eh     change       -0.5546316E-06 Eh
 * total energy  :  -119.2771895 Eh     change       -0.4005861E-06 Eh
 * total energy  :  -119.2771899 Eh     change       -0.3428740E-06 Eh
 * total energy  :  -119.2771902 Eh     change       -0.3188169E-06 Eh
 * total energy  :  -119.2771904 Eh     change       -0.2734028E-06 Eh
 * total energy  :  -119.2771905 Eh     change       -0.3515311E-08 Eh
   *** GEOMETRY OPTIMIZATION CONVERGED AFTER 68 ITERATIONS ***

 final structure:
================
72
 xtb: 6.7.1 (edcfbbe)
C           -2.41024620843858        5.05849663495788        0.15334569926274
C           -1.65089275378797        3.76863723704314        0.19016294318986
C           -0.26152221339338        3.75775864392247        0.25322485882974
C            0.43838484801047        2.57089069677106        0.28030443586005
C           -0.22598186080055        1.34060027530917        0.26401761922593
C           -1.61726329583884        1.34108726401523        0.14896905252921
C           -2.30240771235693        2.54789900477389        0.12303519914279
C           -2.41136934716943        0.06473566424720        0.03344296725452
C           -3.39640669145055       -0.05214891286191        1.18483463961775
C           -3.12506841793644       -0.14174602031256        2.53224758573307
C           -4.19054955891396       -0.23823361417022        3.41812831994302
C           -5.49835373022074       -0.24440818316234        2.95681091196670
C           -5.77527733963361       -0.15598280050843        1.60137012497464
C           -4.71647427267675       -0.05929976678767        0.71314297078641
C           -4.68959065329426        0.04537241555695       -0.73878633232909
C           -5.71560564583296        0.07754245993898       -1.66906850106783
C           -5.39017420725608        0.18055735051106       -3.01273305746881
C           -4.06677692253062        0.25264047094899       -3.42071644438408
C           -3.03408043701033        0.22316667720916       -2.49213868676326
C           -3.35256379842288        0.11895916422242       -1.15595892572072
C           -1.53345289286551       -1.16005102982200       -0.01713206840821
C           -2.14100455142665       -2.39871580501123       -0.17004670877081
C           -1.42163505587783       -3.58230041749811       -0.14395795338648
C           -2.09854608853242       -4.90770662977820       -0.30845744318709
C           -0.05252539570941       -3.50185753345034        0.08765375645457
C            0.57097127912798       -2.28255774610680        0.24226329100587
C           -0.14931982535760       -1.08740856689843        0.15064074751675
N            0.49423823300925        0.14432868756930        0.28690908248963
C            1.88233507231719        0.18209631041702        0.48268437889420
C            2.39896247787623        0.69309372159530        1.66759589589277
C            3.76633433461095        0.76181323351299        1.94484925686634
C            4.65249944537060        0.31824467541002        0.98459780028855
C            4.13393127133068       -0.18411780387948       -0.23585882439133
C            5.15688614150512       -0.56797495376944       -1.13499867798764
C            4.81401943019909       -1.05217740408337       -2.37562622618811
C            3.44855684974020       -1.13607608643260       -2.69728493974827
C            2.45305248415384       -0.76793713683402       -1.82133124925691
C            2.77314727163144       -0.27892832465279       -0.53395657560781
C            6.40896958717715       -0.31469365782732       -0.44846576644479
N            7.61774196925628       -0.51947085775778       -0.88688087700372
C            8.55573961084523       -0.16650993355295        0.01984145427285
N            9.86369977481393       -0.23525770877991       -0.07678536652533
O           10.34018623019753        0.23347294492412        1.08391348624214
N            9.38102018464459        0.60909260335134        1.94289792212517
C            8.24074827411283        0.38064895169107        1.32801710105310
N            6.98375882210254        0.58949270128124        1.76676309979875
C            6.08671489071687        0.24073646174278        0.87985910265389
H           -2.37472695231252        5.48401299234554       -0.85027841994458
H           -1.97295951541968        5.78262215678869        0.83786439746954
H           -3.45257652510226        4.90244879909511        0.41980034824039
H            0.28224310665013        4.69090482114127        0.27402325385035
H            1.51660985678562        2.60047486361927        0.30442915738359
H           -3.37976351769028        2.52507065044349        0.04468417486284
H           -2.10691887778795       -0.13939748540697        2.89413567052493
H           -3.99786187462383       -0.30910616086674        4.47877011992139
H           -6.31181746338962       -0.31993945636636        3.66405134437878
H           -6.79573047767672       -0.16195677201094        1.24769651868747
H           -6.74784795753781        0.02245235034290       -1.35617369634379
H           -6.17772030713711        0.20571712595983       -3.75216853401651
H           -3.83605427790395        0.33278364411632       -4.47307189723247
H           -2.00437922874140        0.28374388678592       -2.81337672924637
H           -3.21237794387655       -2.43124015937476       -0.30670258460875
H           -3.07553735194407       -4.78913588447472       -0.77028178207548
H           -2.23610667426159       -5.38029646907631        0.66483024270369
H           -1.49464414038424       -5.57485356108765       -0.92038884977716
H            0.53453790471136       -4.40596374525409        0.15597283930254
H            1.62987017954715       -2.26091081163497        0.44617863672146
H            1.70127642323948        1.04049955133201        2.41606027356101
H            4.11500928659262        1.14374913947916        2.89118160405689
H            5.56868206927353       -1.35274540673287       -3.08530865988624
H            3.17495098696207       -1.50275340823229       -3.67501458109416
H            1.41903866601854       -0.85198401793548       -2.11825192670271

          :  Hamiltonian                  GFN2-xTB          :
         :: gradient norm              0.000042394786 Eh/a0 ::
         :: HOMO-LUMO gap              0.388026612599 eV    ::
         :: SCC energy              -121.328748244654 Eh    ::
         :: -> dispersion             -0.110808096419 Eh    ::
         :: -> Gsolv                  -0.057071819231 Eh    ::
         :: repulsion energy           2.051557794335 Eh    ::

    * Orbital Energies and Occupations

         #    Occupation            Energy/Eh            Energy/eV
      -------------------------------------------------------------
         1        2.0000           -0.7973962             -21.6983
       ...           ...                  ...                  ...
        98        2.0000           -0.4266543             -11.6099
        99        2.0000           -0.4244931             -11.5510
       100        2.0000           -0.4232704             -11.5178
       101        2.0000           -0.4174266             -11.3588
       102        2.0000           -0.4150932             -11.2953
       103        2.0000           -0.4129754             -11.2376
       104        2.0000           -0.4035379             -10.9808
       105        2.0000           -0.4018542             -10.9350
       106        2.0000           -0.3996916             -10.8762
       107        2.0000           -0.3978607             -10.8263
       108        2.0000           -0.3830485             -10.4233
       109        2.0000           -0.3823306             -10.4037
       110        1.9989           -0.3576463              -9.7321 (HOMO)
       111        0.0011           -0.3433867              -9.3440 (LUMO)
       112                         -0.3199258              -8.7056
       113                         -0.2657310              -7.2309
       114                         -0.2599522              -7.0737
       115                         -0.2546796              -6.9302
       116                         -0.2366152              -6.4386
       117                         -0.2343771              -6.3777
       118                         -0.2291813              -6.2363
       119                         -0.2282620              -6.2113
       120                         -0.2277473              -6.1973
       121                         -0.2192522              -5.9662
       ...                                ...                  ...
       213                          0.7252402              19.7348
      -------------------------------------------------------------
                  HL-Gap            0.0142596 Eh            0.3880 eV

     #   Z          covCN         q      C6AA      α(0)
     1   6 C        3.757    -0.111    22.675     6.789
     2   6 C        2.964     0.013    27.723     8.636
     3   6 C        2.925    -0.041    29.028     8.835
     4   6 C        2.922    -0.056    29.403     8.892
     5   6 C        2.924     0.050    26.885     8.503
     6   6 C        2.982    -0.004    28.105     8.696
     7   6 C        2.932    -0.044    29.096     8.846
     8   6 C        3.950     0.012    20.299     6.402
     9   6 C        3.058     0.003    27.912     8.664
    10   6 C        2.914    -0.033    28.834     8.805
    11   6 C        2.923    -0.032    28.801     8.801
    12   6 C        2.921    -0.033    28.813     8.802
    13   6 C        2.914    -0.034    28.858     8.809
    14   6 C        3.033     0.001    27.963     8.674
    15   6 C        3.033     0.001    27.963     8.674
    16   6 C        2.914    -0.035    28.861     8.809
    17   6 C        2.921    -0.033    28.811     8.802
    18   6 C        2.922    -0.032    28.800     8.801
    19   6 C        2.914    -0.033    28.823     8.804
    20   6 C        3.055     0.003    27.915     8.665
    21   6 C        2.982    -0.004    28.119     8.698
    22   6 C        2.932    -0.044    29.097     8.846
    23   6 C        2.964     0.013    27.725     8.637
    24   6 C        3.757    -0.111    22.676     6.789
    25   6 C        2.925    -0.042    29.034     8.836
    26   6 C        2.922    -0.056    29.393     8.891
    27   6 C        2.924     0.050    26.872     8.501
    28   7 N        2.750    -0.045    22.105     6.983
    29   6 C        2.923     0.071    26.418     8.429
    30   6 C        2.922    -0.038    28.949     8.823
    31   6 C        2.910    -0.015    28.389     8.737
    32   6 C        3.027    -0.018    28.426     8.745
    33   6 C        3.133    -0.002    27.852     8.639
    34   6 C        3.025    -0.011    28.274     8.722
    35   6 C        2.911    -0.012    28.303     8.724
    36   6 C        2.919    -0.023    28.568     8.765
    37   6 C        2.918    -0.017    28.434     8.744
    38   6 C        2.975     0.009    27.808     8.650
    39   6 C        3.101     0.101    25.650     8.299
    40   7 N        1.829    -0.273    27.944     7.833
    41   6 C        3.043     0.171    24.283     8.082
    42   7 N        1.911    -0.163    25.314     7.460
    43   8 O        1.933    -0.010    14.581     5.157
    44   7 N        1.912    -0.168    25.425     7.476
    45   6 C        3.038     0.173    24.257     8.078
    46   7 N        1.829    -0.282    28.161     7.864
    47   6 C        3.096     0.095    25.773     8.320
    48   1 H        0.924     0.053     2.285     2.364
    49   1 H        0.925     0.049     2.327     2.386
    50   1 H        0.925     0.046     2.365     2.405
    51   1 H        0.926     0.039     2.466     2.456
    52   1 H        0.926     0.031     2.571     2.507
    53   1 H        0.926     0.036     2.505     2.475
    54   1 H        0.926     0.027     2.635     2.538
    55   1 H        0.926     0.033     2.549     2.496
    56   1 H        0.926     0.033     2.547     2.496
    57   1 H        0.926     0.034     2.529     2.487
    58   1 H        0.926     0.034     2.536     2.491
    59   1 H        0.926     0.033     2.549     2.497
    60   1 H        0.926     0.033     2.542     2.493
    61   1 H        0.926     0.028     2.621     2.532
    62   1 H        0.926     0.036     2.504     2.475
    63   1 H        0.925     0.047     2.364     2.404
    64   1 H        0.924     0.052     2.291     2.367
    65   1 H        0.925     0.050     2.323     2.383
    66   1 H        0.926     0.038     2.473     2.459
    67   1 H        0.926     0.029     2.596     2.519
    68   1 H        0.926     0.066     2.132     2.283
    69   1 H        0.926     0.065     2.138     2.286
    70   1 H        0.926     0.065     2.143     2.289
    71   1 H        0.926     0.067     2.115     2.274
    72   1 H        0.926     0.065     2.143     2.289

molecular dipole:
                 x           y           z       tot (Debye)
 q only:       -5.286      -0.243      -0.976
   full:       -5.405      -0.250      -0.982      13.978

 projected vibrational frequencies (cm⁻¹)
eigval :       -0.00    -0.00     0.00     0.00     0.00     0.00
eigval :      -22.37   -19.35    10.45    19.62    30.47    32.27
eigval :       43.77    45.30    60.81    71.39    85.73    87.26
eigval :       95.50   108.35   115.62   134.04   135.58   147.29
eigval :      173.43   180.84   187.03   194.00   215.92   219.38
eigval :      221.10   262.07   276.55   280.02   289.11   295.80
eigval :      322.85   337.45   339.72   353.87   370.33   380.25
eigval :      389.85   392.56   412.46   421.67   423.72   426.23
eigval :      432.19   439.71   447.85   453.89   465.19   484.19
eigval :      499.31   504.62   511.46   528.00   535.50   545.13
eigval :      550.52   560.69   571.75   584.58   589.06   601.12
eigval :      609.82   611.52   620.63   630.56   651.38   654.73
eigval :      671.73   680.84   681.80   684.73   685.24   714.18
eigval :      731.25   732.14   752.72   756.66   758.41   768.68
eigval :      783.98   784.51   794.55   801.35   806.16   814.74
eigval :      817.37   845.38   871.78   877.68   878.29   879.89
eigval :      885.77   897.54   898.05   900.14   908.85   910.45
eigval :      915.94   917.07   920.22   920.98   923.32   926.21
eigval :      927.00   928.90   946.12   967.95   970.93  1000.97
eigval :     1004.22  1017.97  1029.35  1030.84  1032.24  1033.64
eigval :     1050.47  1073.44  1074.16  1078.67  1092.38  1100.11
eigval :     1132.94  1141.69  1143.05  1147.95  1175.01  1177.94
eigval :     1182.23  1187.37  1192.70  1201.44  1206.24  1211.20
eigval :     1215.57  1234.25  1237.80  1238.57  1254.78  1257.78
eigval :     1267.25  1271.46  1279.84  1283.22  1300.56  1310.81
eigval :     1315.18  1324.53  1334.33  1336.53  1341.25  1347.36
eigval :     1355.89  1365.63  1388.88  1401.45  1401.61  1413.96
eigval :     1417.87  1421.71  1424.99  1427.80  1430.09  1436.42
eigval :     1459.57  1466.62  1469.88  1473.99  1474.78  1478.60
eigval :     1479.72  1480.91  1494.52  1536.17  1553.34  1564.32
eigval :     1568.29  1577.68  1580.41  1584.89  1588.09  1595.20
eigval :     1598.61  1600.19  1603.14  1604.81  1607.01  2993.50
eigval :     2994.12  3028.16  3029.17  3041.94  3043.01  3069.50
eigval :     3069.88  3072.94  3074.61  3080.23  3080.49  3080.76
eigval :     3081.47  3085.36  3088.21  3088.36  3088.47  3090.27
eigval :     3092.61  3099.82  3102.51  3104.97  3108.36  3109.35

   temp. (K)  partition function   enthalpy   heat capacity  entropy
                                   cal/mol     cal/K/mol   cal/K/mol   J/K/mol
 298.15  VIB  0.109E+16            20271.358    131.122    124.202
         ROT  0.654E+08              888.752      2.981     38.745
         INT  0.714E+23            21160.111    134.103    162.947
         TR   0.144E+29             1481.254      4.968     45.057
         TOT                       22641.3646   139.0714   208.0033   870.2857

       T/K    H(0)-H(T)+PV         H(T)/Eh          T*S/Eh         G(T)/Eh
   ------------------------------------------------------------------------
    298.15    0.360813E-01    0.573561E+00    0.988291E-01    0.474732E+00
   ------------------------------------------------------------------------

         :::::::::::::::::::::::::::::::::::::::::::::::::::::
         ::                  THERMODYNAMIC                  ::
         :::::::::::::::::::::::::::::::::::::::::::::::::::::
         :: total free energy        -118.802458415724 Eh   ::
         ::.................................................::
         :: total energy             -119.277190450945 Eh   ::
         :: zero point energy           0.537479786320 Eh   ::
         :: G(RRHO) w/o ZPVE           -0.062747751099 Eh   ::
         :: G(RRHO) contrib.            0.474732035221 Eh   ::
         :::::::::::::::::::::::::::::::::::::::::::::::::::::

           -------------------------------------------------
          | TOTAL ENERGY             -119.277190450945 Eh   |
          | TOTAL ENTHALPY           -118.703629353442 Eh   |
          | TOTAL FREE ENERGY        -118.802458415724 Eh   |
          | GRADIENT NORM               0.000042448298 Eh/α |
          | HOMO-LUMO GAP               0.388022409333 eV   |
           -------------------------------------------------

 * finished run on 2025/09/08 at 11:28:38.018
