   * xtb version 6.7.1 (edcfbbe) compiled by 'albert@albert-system' on 2024-07-22

   ID    Z sym.   atoms
    1    6 C      1-4, 6-16, 18-22, 24-27, 29-44
    2    7 N      5, 17, 23, 28
    3    1 H      45-70

          program call               : xtb data2507/toluene/IP-PPI/IP-PPI_toluene_S0_crest.xyz --gfn 2 --gbsa toluene --ohess vtight --parallel 40 --molden --ceasefiles --namespace data2507/toluene/IP-PPI/IP-PPI_toluene_S0_finalOpt
      * Solvation model:               GBSA
        Solvent                        toluene
        Solvent mass                       9.2140E+01 g/mol
          :  Hamiltonian                  GFN2-xTB          :
 * total energy  :  -110.7208139 Eh     change       -0.1697515E-08 Eh
 * total energy  :  -110.7208506 Eh     change       -0.3676879E-04 Eh
 * total energy  :  -110.7208674 Eh     change       -0.1675132E-04 Eh
 * total energy  :  -110.7208735 Eh     change       -0.6164377E-05 Eh
 * total energy  :  -110.7208793 Eh     change       -0.5801763E-05 Eh
 * total energy  :  -110.7208835 Eh     change       -0.4200463E-05 Eh
 * total energy  :  -110.7208869 Eh     change       -0.3365015E-05 Eh
 * total energy  :  -110.7208896 Eh     change       -0.2648730E-05 Eh
 * total energy  :  -110.7208918 Eh     change       -0.2216756E-05 Eh
 * total energy  :  -110.7208941 Eh     change       -0.2356226E-05 Eh
 * total energy  :  -110.7209007 Eh     change       -0.8164432E-06 Eh
 * total energy  :  -110.7209011 Eh     change       -0.3962166E-06 Eh
 * total energy  :  -110.7209016 Eh     change       -0.4344211E-06 Eh
 * total energy  :  -110.7209022 Eh     change       -0.6211660E-06 Eh
 * total energy  :  -110.7209028 Eh     change       -0.5808044E-06 Eh
 * total energy  :  -110.7209032 Eh     change       -0.4275487E-06 Eh
 * total energy  :  -110.7209035 Eh     change       -0.3108164E-06 Eh
 * total energy  :  -110.7209038 Eh     change       -0.3356066E-06 Eh
 * total energy  :  -110.7209038 Eh     change       -0.7520654E-08 Eh
   *** GEOMETRY OPTIMIZATION CONVERGED AFTER 22 ITERATIONS ***

 final structure:
================
70
 xtb: 6.7.1 (edcfbbe)
C           -2.16888919381049        4.56529542257319       -0.12285862554826
C           -1.87465830220554        3.76706995233837        0.97018721210682
C           -2.30013008694968        2.45061712597315        1.00656098630405
C           -3.02501034579512        1.93347735727342       -0.06018953004574
N           -3.43169627679946        0.58120231345036       -0.04006982716265
C           -2.58174349863198       -0.50209269505106       -0.06579518705172
C           -1.13085138677086       -0.42026039983643       -0.11087656389226
C           -0.39300415969835       -1.39278019464875        0.56661199244780
C            0.98501783194060       -1.35935831449075        0.56430078878295
C            1.67457068876597       -0.35466592677301       -0.11565256449255
C            3.14200098143215       -0.30103441669418       -0.09516840705925
C            3.90550190772702       -1.46595513508743       -0.17655233692910
C            5.28265365181923       -1.41049186382265       -0.14749068899008
C            5.94586735825899       -0.18791449296846       -0.03047082809910
C            7.39775764789068       -0.15983613519733        0.00883980563053
C            8.23906161139025        0.93601815762572        0.12774541605496
N            9.50549093358761        0.44995173062368        0.11966184717496
C           10.70746137828500        1.06768952519092        0.20631251218241
C           11.84636148575596        0.32334375672229        0.17137241243948
C           11.77676568221319       -1.08116286777593        0.04720087707152
C           10.56604683065499       -1.70910130124309       -0.03970501838036
C            9.39392908078745       -0.93832379416389       -0.00460775781298
N            8.12918572270454       -1.30232277510974       -0.07155450501876
C            5.18456115613653        0.97851217602898        0.04952357645149
C            3.80676651540599        0.92044928495817        0.01377239707001
C            0.93404001682242        0.59678102224701       -0.81583874005922
C           -0.44569839351000        0.56427359881210       -0.82127746401328
N           -3.23273627719878       -1.64033611360491       -0.04084212531224
C           -4.55243823367362       -1.31612733423099       -0.00273916240087
C           -5.66861346761436       -2.19916028061360       -0.00913294647193
C           -5.49724762465231       -3.58675473815021       -0.06906374056350
C           -6.58715604194693       -4.42021886485565       -0.11111645833389
C           -7.86844977309803       -3.87175964524795       -0.09845006854477
C           -8.04903777229178       -2.50966183350956       -0.03342837231190
C           -6.96049604940268       -1.62484181048023        0.02151309842249
C           -7.11907027161316       -0.18379660407320        0.12322750608709
C           -8.38461916054097        0.41025759553470        0.23726824489050
C           -8.54411363083741        1.76932629798830        0.37270074482696
C           -7.43007794053583        2.60192274005267        0.41589297506516
C           -6.17296629712541        2.06109463217664        0.30146296076377
C           -5.98909575689680        0.68041140713802        0.13620540832232
C           -4.70911470729681        0.06874039004967        0.01367098754421
C           -3.31839563634743        2.73214446858893       -1.16188987478157
C           -2.89043149726807        4.04702558056871       -1.18691990275314
H           -1.83541670099869        5.59163804400630       -0.14759326248594
H           -1.31245140952869        4.16815646268487        1.79984468002814
H           -2.07385310258093        1.81811768413011        1.85233696620773
H           -0.92550781991529       -2.16664802567185        1.09831568451428
H            1.53744395655768       -2.10527701728786        1.11627434098345
H            3.41070051553858       -2.42012578220303       -0.28484591805553
H            5.87630472905756       -2.30905216188179       -0.21496541022300
H            8.03445829484710        1.98308718753210        0.21449701188557
H           10.70027799100702        2.14335871459276        0.30052100004820
H           12.80474134827917        0.81130600913824        0.23969775375315
H           12.69080928418997       -1.65324190010507        0.02208289572639
H           10.47272198415816       -2.77834220097935       -0.13499183896763
H            5.67302233482624        1.93663056688682        0.14352547301468
H            3.23273335820062        1.83215081406039        0.09592996560556
H            1.44663173907519        1.35849762724233       -1.38468000521500
H           -0.98828133067273        1.29658531267099       -1.39929720469968
H           -4.48839744309194       -3.97041334251970       -0.08786958546765
H           -6.45723252500443       -5.49148640453229       -0.15898985336129
H           -8.72982069153788       -4.52298187652395       -0.14016076677746
H           -9.05883791074157       -2.13114169756374       -0.02975930087031
H           -9.26849546823937       -0.20678509562251        0.23000249456748
H           -9.53563600308279        2.18935114237916        0.45830747145561
H           -7.55135844354802        3.66750143072191        0.54398355300972
H           -5.31151070844678        2.70742116882251        0.35212304929513
H           -3.88073440440783        2.31584755094837       -1.98549973191133
H           -3.11916761110644        4.66575685858367       -2.04161189207187

          :  Hamiltonian                  GFN2-xTB          :
         :: gradient norm              0.000063483118 Eh/a0 ::
         :: HOMO-LUMO gap              2.542747745225 eV    ::
         :: SCC energy              -112.770972123729 Eh    ::
         :: -> dispersion             -0.096207950240 Eh    ::
         :: -> Gsolv                  -0.049146213131 Eh    ::
         :: repulsion energy           2.050068284137 Eh    ::

    * Orbital Energies and Occupations

         #    Occupation            Energy/Eh            Energy/eV
      -------------------------------------------------------------
         1        2.0000           -0.6928180             -18.8525
       ...           ...                  ...                  ...
        91        2.0000           -0.4167463             -11.3402
        92        2.0000           -0.4144828             -11.2787
        93        2.0000           -0.4096586             -11.1474
        94        2.0000           -0.4073580             -11.0848
        95        2.0000           -0.4043655             -11.0033
        96        2.0000           -0.4036402             -10.9836
        97        2.0000           -0.3983757             -10.8404
        98        2.0000           -0.3837432             -10.4422
        99        2.0000           -0.3825343             -10.4093
       100        2.0000           -0.3797224             -10.3328
       101        2.0000           -0.3790488             -10.3144
       102        2.0000           -0.3735073             -10.1637
       103        2.0000           -0.3631503              -9.8818 (HOMO)
       104                         -0.2697060              -7.3391 (LUMO)
       105                         -0.2581081              -7.0235
       106                         -0.2508507              -6.8260
       107                         -0.2454896              -6.6801
       108                         -0.2401958              -6.5361
       109                         -0.2397572              -6.5241
       110                         -0.2299530              -6.2573
       111                         -0.2258020              -6.1444
       112                         -0.2205965              -6.0027
       113                         -0.2180901              -5.9345
       114                         -0.2064062              -5.6166
       ...                                ...                  ...
       202                          0.7252592              19.7353
      -------------------------------------------------------------
                  HL-Gap            0.0934443 Eh            2.5427 eV

     #   Z          covCN         q      C6AA      α(0)
     1   6 C        2.919    -0.029    28.715     8.787
     2   6 C        2.920    -0.025    28.626     8.774
     3   6 C        2.921    -0.038    28.938     8.822
     4   6 C        2.912     0.067    26.498     8.441
     5   7 N        2.840    -0.055    22.302     7.014
     6   6 C        3.190     0.137    24.584     8.088
     7   6 C        2.974    -0.004    28.120     8.698
     8   6 C        2.926    -0.029    28.736     8.791
     9   6 C        2.923    -0.033    28.821     8.804
    10   6 C        2.976     0.013    27.726     8.637
    11   6 C        2.976     0.009    27.818     8.652
    12   6 C        2.922    -0.034    28.849     8.808
    13   6 C        2.924    -0.030    28.755     8.794
    14   6 C        2.972     0.004    27.940     8.670
    15   6 C        3.180     0.071    26.007     8.325
    16   6 C        3.004    -0.044    29.082     8.846
    17   7 N        2.853     0.019    20.919     6.793
    18   6 C        2.853     0.007    27.864     8.652
    19   6 C        2.914    -0.043    29.079     8.843
    20   6 C        2.921    -0.031    28.774     8.797
    21   6 C        2.908    -0.049    29.223     8.864
    22   6 C        3.190     0.131    24.701     8.107
    23   7 N        1.896    -0.321    29.180     8.008
    24   6 C        2.921    -0.039    28.976     8.827
    25   6 C        2.923    -0.035    28.881     8.813
    26   6 C        2.924    -0.035    28.862     8.810
    27   6 C        2.920    -0.037    28.909     8.817
    28   7 N        1.894    -0.319    29.121     8.000
    29   6 C        3.204     0.060    26.092     8.321
    30   6 C        2.985    -0.003    28.097     8.695
    31   6 C        2.921    -0.033    28.833     8.806
    32   6 C        2.917    -0.032    28.795     8.800
    33   6 C        2.917    -0.034    28.857     8.809
    34   6 C        2.921    -0.037    28.910     8.817
    35   6 C        2.979    -0.005    28.142     8.702
    36   6 C        2.979    -0.002    28.063     8.690
    37   6 C        2.922    -0.035    28.876     8.812
    38   6 C        2.916    -0.034    28.853     8.808
    39   6 C        2.917    -0.033    28.814     8.802
    40   6 C        2.919    -0.041    29.029     8.835
    41   6 C        2.978    -0.005    28.148     8.703
    42   6 C        3.073     0.022    27.441     8.589
    43   6 C        2.921    -0.037    28.917     8.818
    44   6 C        2.920    -0.026    28.656     8.778
    45   1 H        0.926     0.048     2.348     2.396
    46   1 H        0.926     0.047     2.355     2.400
    47   1 H        0.926     0.038     2.475     2.460
    48   1 H        0.926     0.045     2.385     2.415
    49   1 H        0.926     0.043     2.413     2.429
    50   1 H        0.926     0.038     2.482     2.463
    51   1 H        0.926     0.052     2.292     2.368
    52   1 H        0.926     0.034     2.533     2.489
    53   1 H        0.926     0.053     2.278     2.360
    54   1 H        0.926     0.055     2.259     2.350
    55   1 H        0.926     0.048     2.339     2.391
    56   1 H        0.926     0.054     2.266     2.354
    57   1 H        0.926     0.031     2.570     2.507
    58   1 H        0.926     0.036     2.505     2.475
    59   1 H        0.926     0.040     2.455     2.450
    60   1 H        0.926     0.029     2.597     2.520
    61   1 H        0.926     0.043     2.407     2.426
    62   1 H        0.926     0.032     2.553     2.498
    63   1 H        0.926     0.032     2.560     2.502
    64   1 H        0.926     0.034     2.523     2.484
    65   1 H        0.926     0.037     2.492     2.468
    66   1 H        0.926     0.033     2.551     2.498
    67   1 H        0.926     0.032     2.563     2.504
    68   1 H        0.926     0.029     2.600     2.521
    69   1 H        0.926     0.041     2.433     2.439
    70   1 H        0.926     0.047     2.352     2.398

molecular dipole:
                 x           y           z       tot (Debye)
 q only:        1.503       1.856       0.088
   full:        1.549       2.643       0.135       7.794

 projected vibrational frequencies (cm⁻¹)
eigval :       -0.00    -0.00    -0.00    -0.00     0.00     0.00
eigval :       -4.99    14.42    18.11    21.70    28.77    35.52
eigval :       44.30    53.89    58.63    70.55    79.81    86.13
eigval :       87.65   103.85   117.32   120.50   158.88   171.34
eigval :      190.25   220.00   225.34   227.16   243.98   249.22
eigval :      263.70   284.36   290.57   306.93   332.80   355.24
eigval :      366.36   373.52   375.71   386.39   395.64   398.49
eigval :      420.76   424.43   431.38   438.53   450.43   474.96
eigval :      487.63   501.94   506.35   520.52   525.17   534.22
eigval :      537.90   544.61   572.69   584.49   587.42   598.85
eigval :      603.73   618.79   631.28   641.08   648.80   651.93
eigval :      656.63   666.61   676.96   680.90   690.80   697.17
eigval :      703.88   705.53   714.91   721.59   734.38   757.24
eigval :      761.86   765.53   765.77   782.85   800.13   805.79
eigval :      831.06   836.54   853.85   861.93   865.69   871.28
eigval :      871.78   875.55   884.76   888.57   896.89   905.67
eigval :      911.34   914.79   914.85   918.13   922.09   922.78
eigval :      924.19   927.46   928.61   930.21   931.82   938.61
eigval :      950.85   979.72  1004.40  1015.70  1028.08  1055.93
eigval :     1067.79  1076.64  1078.82  1084.98  1088.80  1106.70
eigval :     1112.39  1132.57  1133.96  1135.35  1142.64  1151.30
eigval :     1153.98  1172.40  1174.32  1180.75  1183.97  1185.92
eigval :     1189.74  1197.45  1206.91  1207.81  1224.69  1252.68
eigval :     1255.44  1262.48  1266.94  1271.25  1271.79  1282.20
eigval :     1288.27  1307.42  1310.82  1311.76  1318.38  1324.47
eigval :     1330.44  1336.53  1341.23  1346.74  1365.76  1371.19
eigval :     1393.36  1405.79  1411.01  1416.90  1428.97  1430.31
eigval :     1434.85  1449.99  1470.14  1473.14  1480.89  1484.48
eigval :     1511.87  1512.75  1525.11  1539.62  1547.01  1554.36
eigval :     1560.31  1564.57  1568.14  1581.25  1587.46  1590.89
eigval :     1592.86  1600.89  1603.11  1623.14  3069.22  3073.33
eigval :     3073.95  3078.45  3079.16  3079.45  3080.34  3081.75
eigval :     3083.09  3084.06  3087.02  3087.32  3089.80  3091.86
eigval :     3095.86  3096.01  3098.00  3098.09  3098.99  3100.89
eigval :     3103.59  3108.93  3115.78  3116.17  3120.45  3179.81

   temp. (K)  partition function   enthalpy   heat capacity  entropy
                                   cal/mol     cal/K/mol   cal/K/mol   J/K/mol
 298.15  VIB  0.483E+16            19442.329    124.329    121.486
         ROT  0.877E+08              888.752      2.981     39.326
         INT  0.423E+24            20331.081    127.310    160.812
         TR   0.129E+29             1481.254      4.968     44.847
         TOT                       21812.3353   132.2779   205.6587   860.4759

       T/K    H(0)-H(T)+PV         H(T)/Eh          T*S/Eh         G(T)/Eh
   ------------------------------------------------------------------------
    298.15    0.347602E-01    0.568698E+00    0.977151E-01    0.470983E+00
   ------------------------------------------------------------------------

         :::::::::::::::::::::::::::::::::::::::::::::::::::::
         ::                  THERMODYNAMIC                  ::
         :::::::::::::::::::::::::::::::::::::::::::::::::::::
         :: total free energy        -110.249920481602 Eh   ::
         ::.................................................::
         :: total energy             -110.720903835385 Eh   ::
         :: zero point energy           0.533938263226 Eh   ::
         :: G(RRHO) w/o ZPVE           -0.062954909442 Eh   ::
         :: G(RRHO) contrib.            0.470983353783 Eh   ::
         :::::::::::::::::::::::::::::::::::::::::::::::::::::

           -------------------------------------------------
          | TOTAL ENERGY             -110.720903835385 Eh   |
          | TOTAL ENTHALPY           -110.152205403340 Eh   |
          | TOTAL FREE ENERGY        -110.249920481602 Eh   |
          | GRADIENT NORM               0.000063463234 Eh/α |
          | HOMO-LUMO GAP               2.542748168285 eV   |
           -------------------------------------------------

 * finished run on 2025/07/16 at 13:47:34.385
