   * xtb version 6.7.1 (edcfbbe) compiled by 'albert@albert-system' on 2024-07-22

   ID    Z sym.   atoms
    1    6 C      1-4, 6-16, 18-22, 24-27, 29-44
    2    7 N      5, 17, 23, 28
    3    1 H      45-70

          program call               : xtb data2507/toluene/IP-PPI/IP-PPI_toluene_S0_finalOpt.xtbopt.xyz --gfn 2 --uhf 2 --gbsa toluene --ohess vtight --parallel 40 --molden --ceasefiles --namespace data2507/toluene/IP-PPI/IP-PPI_toluene_T1_preOpt
      * Solvation model:               GBSA
        Solvent                        toluene
        Solvent mass                       9.2140E+01 g/mol
          :  Hamiltonian                  GFN2-xTB          :
 * total energy  :  -110.6237066 Eh     change       -0.7646793E-07 Eh
 * total energy  :  -110.6297813 Eh     change       -0.6074644E-02 Eh
 * total energy  :  -110.6327973 Eh     change       -0.3016051E-02 Eh
 * total energy  :  -110.6335474 Eh     change       -0.7500175E-03 Eh
 * total energy  :  -110.6345563 Eh     change       -0.1008968E-02 Eh
 * total energy  :  -110.6351111 Eh     change       -0.5547423E-03 Eh
 * total energy  :  -110.6354708 Eh     change       -0.3597273E-03 Eh
 * total energy  :  -110.6357166 Eh     change       -0.2457922E-03 Eh
 * total energy  :  -110.6358669 Eh     change       -0.1502862E-03 Eh
 * total energy  :  -110.6359584 Eh     change       -0.9151387E-04 Eh
 * total energy  :  -110.6369570 Eh     change       -0.5288722E-06 Eh
 * total energy  :  -110.6369576 Eh     change       -0.5555795E-06 Eh
 * total energy  :  -110.6369580 Eh     change       -0.4393671E-06 Eh
 * total energy  :  -110.6369583 Eh     change       -0.3184327E-06 Eh
 * total energy  :  -110.6369586 Eh     change       -0.2654548E-06 Eh
 * total energy  :  -110.6369589 Eh     change       -0.2587122E-06 Eh
 * total energy  :  -110.6369591 Eh     change       -0.2110339E-06 Eh
 * total energy  :  -110.6369592 Eh     change       -0.1438293E-06 Eh
 * total energy  :  -110.6369593 Eh     change       -0.8893230E-07 Eh
   *** GEOMETRY OPTIMIZATION CONVERGED AFTER 87 ITERATIONS ***

 final structure:
================
70
 xtb: 6.7.1 (edcfbbe)
C           -2.69171882444378        4.83781528694359       -0.27639997755047
C           -2.71364506753540        4.20753043267784        0.95753791052504
C           -2.96546276561077        2.84941881699093        1.04123558366060
C           -3.19502439848633        2.12047475041736       -0.12145731301034
N           -3.45801166648892        0.73325547020411       -0.04112130560336
C           -2.51102341207657       -0.30382487645464        0.00877551991285
C           -1.11260503352839       -0.20568656971180       -0.03567904708724
C           -0.36311638070949       -1.41959236952124        0.07840611210952
C            0.99206705929547       -1.43204439051131        0.05511999657001
C            1.75940713195030       -0.23310355165566       -0.06533470057034
C            3.18057586949252       -0.23890347295417       -0.06031986273875
C            3.93201465639014       -1.42337126705147       -0.30498325908877
C            5.29525839292847       -1.42492157791398       -0.29766427209809
C            6.03104077952053       -0.24953863782015       -0.03089415244914
C            7.45909303834056       -0.28494605466716       -0.01909168742551
C            8.35679482458286        0.76606513382716        0.20667833554379
N            9.59666101106004        0.23861319785761        0.11665589665436
C           10.82404064636851        0.79913688978179        0.24587614005678
C           11.93478189694848        0.01963621196040        0.10332639576140
C           11.80916441463667       -1.35574984443044       -0.17465767625001
C           10.57175860581661       -1.92831314716864       -0.30626521151405
C            9.42956677513821       -1.12565369982404       -0.16132071301859
N            8.15467389311085       -1.43773495572021       -0.24339264867396
C            5.30147354694159        0.93262996131836        0.21886575773041
C            3.93723050020917        0.93901272988967        0.19668715406545
C            1.00464625949383        0.97184610056896       -0.19116937390000
C           -0.35409452932895        0.99079133356808       -0.18841831346616
N           -3.13127437508248       -1.49318165837052        0.10850930405432
C           -4.43873289681947       -1.24835835091901        0.11919682862539
C           -5.50242385667867       -2.19352264194493        0.21056205408224
C           -5.23830825545251       -3.56352247348231        0.29609448356233
C           -6.27063617869139       -4.46867347704333        0.38283715960941
C           -7.58255894059871       -4.00412128488121        0.38539292303653
C           -7.85410168274473       -2.65513775926477        0.30284608149447
C           -6.82900570124285       -1.70217268461423        0.21174869345552
C           -7.08329838894867       -0.27374264443240        0.12502903292147
C           -8.38436409226257        0.24035998786019        0.12701463690332
C           -8.64141790256869        1.59176251507927        0.05287068307721
C           -7.58697193687090        2.50046408638781       -0.02562848252742
C           -6.29521373742652        2.04221049716102       -0.03332338874972
C           -6.00554588140791        0.66435722340803        0.03679802499215
C           -4.69336893095206        0.14370506290471        0.02914346562457
C           -3.17531180418212        2.75161847679134       -1.36178759175192
C           -2.92304472852853        4.11017278843948       -1.43314679702781
H           -2.49477544201758        5.89738768980084       -0.33674484937065
H           -2.53477924504959        4.77320704152003        1.85941427877929
H           -2.98376134736264        2.34553791129645        1.99648760983455
H           -0.92472966222292       -2.33296010866797        0.19496229407238
H            1.50303553974320       -2.37439737702594        0.17486435844880
H            3.41344594369653       -2.33927073161113       -0.54122626758163
H            5.85184427303461       -2.32702996392117       -0.50109613189255
H            8.19180491648730        1.80312415541417        0.41442686512649
H           10.86032136438918        1.85652610003927        0.45984403337118
H           12.91157136514434        0.46330193532088        0.20511373065563
H           12.69920182425771       -1.95549663904210       -0.28284982891599
H           10.43733997593104       -2.97582075193338       -0.51861148807929
H            5.83356523575576        1.84628983231216        0.43903927813981
H            3.42133155474627        1.85929714618092        0.42292163266052
H            1.52657318032379        1.90471564604864       -0.33850551911851
H           -0.86038722839417        1.93264691032184       -0.31833284791058
H           -4.20649252975805       -3.87976498544245        0.29094748190861
H           -6.06818964120821       -5.52724462460896        0.44803765294048
H           -8.39990745480166       -4.70751576180551        0.45335346014270
H           -8.88688386399581       -2.34589756751644        0.30983699208058
H           -9.22525119618683       -0.43113252975509        0.18868090295516
H           -9.66125664605313        1.94659368716692        0.05687593347797
H           -7.78607130169687        3.56041425457783       -0.07983719234379
H           -5.48301068060580        2.74754348227229       -0.09260085189270
H           -3.35723274456492        2.17267922758088       -2.25547519876589
H           -2.90678627174161        4.59976832707980       -2.39517263338273

          :  Hamiltonian                  GFN2-xTB          :
         :: gradient norm              0.000034436664 Eh/a0 ::
         :: HOMO-LUMO gap              0.604488163711 eV    ::
         :: SCC energy              -112.669007703668 Eh    ::
         :: -> dispersion             -0.095854615265 Eh    ::
         :: -> Gsolv                  -0.049223435294 Eh    ::
         :: repulsion energy           2.032048388402 Eh    ::

    * Orbital Energies and Occupations

         #    Occupation            Energy/Eh            Energy/eV
      -------------------------------------------------------------
         1        2.0000           -0.6913480             -18.8125
       ...           ...                  ...                  ...
        92        2.0000           -0.4109727             -11.1831
        93        2.0000           -0.4064687             -11.0606
        94        2.0000           -0.4058496             -11.0437
        95        2.0000           -0.4035012             -10.9798
        96        2.0000           -0.4031607             -10.9706
        97        2.0000           -0.3992352             -10.8637
        98        2.0000           -0.3870424             -10.5320
        99        2.0000           -0.3805055             -10.3541
       100        2.0000           -0.3799832             -10.3399
       101        2.0000           -0.3775510             -10.2737
       102        1.9999           -0.3730112             -10.1502
       103        1.0001           -0.3554854              -9.6732
       104        1.0000           -0.2817248              -7.6661 (HOMO)
       105        0.0000           -0.2595102              -7.0616 (LUMO)
       106                         -0.2542058              -6.9173
       107                         -0.2491220              -6.7790
       108                         -0.2439021              -6.6369
       109                         -0.2414772              -6.5709
       110                         -0.2316741              -6.3042
       111                         -0.2184013              -5.9430
       112                         -0.2150732              -5.8524
       113                         -0.2126991              -5.7878
       114                         -0.2074595              -5.6453
       115                         -0.1947811              -5.3003
       ...                                ...                  ...
       202                          0.7239681              19.7002
      -------------------------------------------------------------
                  HL-Gap            0.0222145 Eh            0.6045 eV

     #   Z          covCN         q      C6AA      α(0)
     1   6 C        2.919    -0.028    28.704     8.786
     2   6 C        2.920    -0.025    28.629     8.774
     3   6 C        2.920    -0.037    28.913     8.818
     4   6 C        2.911     0.069    26.450     8.433
     5   7 N        2.822    -0.067    22.535     7.050
     6   6 C        3.138     0.131    24.933     8.172
     7   6 C        2.968    -0.013    28.327     8.730
     8   6 C        2.920    -0.034    28.838     8.806
     9   6 C        2.914    -0.036    28.905     8.816
    10   6 C        2.968     0.006    27.887     8.662
    11   6 C        2.968     0.008    27.838     8.654
    12   6 C        2.917    -0.037    28.913     8.817
    13   6 C        2.917    -0.031    28.768     8.795
    14   6 C        2.970     0.000    28.024     8.683
    15   6 C        3.167     0.072    26.056     8.341
    16   6 C        3.001    -0.039    28.963     8.828
    17   7 N        2.845     0.020    20.893     6.789
    18   6 C        2.852     0.000    28.014     8.675
    19   6 C        2.913    -0.045    29.123     8.849
    20   6 C        2.920    -0.032    28.796     8.800
    21   6 C        2.908    -0.056    29.384     8.888
    22   6 C        3.181     0.135    24.666     8.107
    23   7 N        1.891    -0.327    29.344     8.031
    24   6 C        2.914    -0.040    28.985     8.828
    25   6 C        2.917    -0.037    28.919     8.818
    26   6 C        2.915    -0.036    28.886     8.813
    27   6 C        2.910    -0.043    29.076     8.842
    28   7 N        1.887    -0.316    29.053     7.991
    29   6 C        3.168     0.079    25.901     8.316
    30   6 C        2.984    -0.006    28.162     8.705
    31   6 C        2.922    -0.028    28.699     8.785
    32   6 C        2.916    -0.031    28.783     8.798
    33   6 C        2.917    -0.029    28.730     8.790
    34   6 C        2.921    -0.035    28.864     8.810
    35   6 C        2.977    -0.001    28.059     8.689
    36   6 C        2.977    -0.001    28.038     8.686
    37   6 C        2.920    -0.033    28.821     8.804
    38   6 C        2.916    -0.032    28.790     8.799
    39   6 C        2.915    -0.032    28.797     8.800
    40   6 C        2.918    -0.038    28.936     8.821
    41   6 C        2.974    -0.010    28.266     8.721
    42   6 C        3.046     0.038    27.099     8.538
    43   6 C        2.920    -0.037    28.917     8.818
    44   6 C        2.919    -0.025    28.637     8.775
    45   1 H        0.926     0.048     2.342     2.393
    46   1 H        0.926     0.048     2.343     2.394
    47   1 H        0.926     0.041     2.440     2.443
    48   1 H        0.926     0.049     2.335     2.390
    49   1 H        0.926     0.038     2.480     2.463
    50   1 H        0.926     0.036     2.498     2.472
    51   1 H        0.926     0.049     2.337     2.391
    52   1 H        0.926     0.035     2.519     2.482
    53   1 H        0.926     0.049     2.327     2.385
    54   1 H        0.926     0.051     2.305     2.374
    55   1 H        0.926     0.045     2.384     2.415
    56   1 H        0.926     0.050     2.316     2.380
    57   1 H        0.926     0.027     2.622     2.532
    58   1 H        0.926     0.034     2.524     2.484
    59   1 H        0.926     0.035     2.521     2.483
    60   1 H        0.926     0.027     2.628     2.535
    61   1 H        0.926     0.048     2.349     2.397
    62   1 H        0.926     0.037     2.483     2.464
    63   1 H        0.926     0.038     2.478     2.462
    64   1 H        0.926     0.040     2.453     2.449
    65   1 H        0.926     0.041     2.438     2.442
    66   1 H        0.926     0.036     2.496     2.470
    67   1 H        0.926     0.035     2.521     2.483
    68   1 H        0.926     0.032     2.559     2.501
    69   1 H        0.926     0.041     2.433     2.439
    70   1 H        0.926     0.048     2.343     2.394

molecular dipole:
                 x           y           z       tot (Debye)
 q only:       -0.381       1.688       0.069
   full:       -0.325       2.482       0.146       6.374

 projected vibrational frequencies (cm⁻¹)
eigval :       -0.00    -0.00     0.00     0.00     0.00     0.00
eigval :       10.13    20.58    22.21    25.63    31.96    35.95
eigval :       51.29    55.01    61.69    65.09    71.69    88.63
eigval :       89.85    98.44   118.22   130.76   147.17   163.51
eigval :      198.42   211.58   221.58   228.14   240.08   247.32
eigval :      254.80   267.33   289.90   305.05   322.48   334.18
eigval :      360.53   373.31   375.04   382.76   392.00   396.80
eigval :      407.52   414.07   427.47   432.71   436.58   447.86
eigval :      466.79   483.53   501.25   505.09   505.66   525.22
eigval :      526.70   528.78   573.72   582.58   586.11   587.15
eigval :      597.64   614.38   614.58   630.73   632.25   637.22
eigval :      646.39   657.52   667.30   671.92   675.24   681.83
eigval :      687.22   693.04   704.10   708.63   732.97   745.85
eigval :      754.96   759.61   761.32   776.61   789.52   795.79
eigval :      804.30   808.11   823.86   829.93   837.48   857.12
eigval :      870.85   871.77   872.39   885.56   897.64   899.56
eigval :      901.19   902.81   903.70   905.20   911.50   915.31
eigval :      917.72   919.29   922.82   927.51   927.62   931.64
eigval :      935.19   943.10   979.05   990.63  1004.43  1022.22
eigval :     1053.97  1059.20  1076.02  1076.35  1081.80  1097.67
eigval :     1103.46  1112.86  1128.41  1130.97  1138.70  1148.73
eigval :     1151.68  1158.53  1167.27  1178.81  1180.21  1182.87
eigval :     1185.33  1200.41  1206.67  1215.74  1219.09  1241.47
eigval :     1246.73  1252.27  1255.33  1263.26  1270.73  1270.89
eigval :     1280.64  1284.03  1297.30  1304.26  1313.30  1316.86
eigval :     1331.17  1333.97  1336.88  1340.07  1351.12  1367.61
eigval :     1377.80  1392.03  1395.14  1407.76  1422.62  1429.05
eigval :     1430.92  1438.32  1442.44  1449.95  1463.00  1467.13
eigval :     1471.96  1475.61  1486.42  1488.99  1499.92  1519.29
eigval :     1540.61  1544.61  1545.60  1566.16  1577.19  1578.99
eigval :     1584.55  1588.57  1591.50  1599.69  3074.12  3076.28
eigval :     3077.60  3082.26  3082.47  3085.15  3086.64  3087.31
eigval :     3088.18  3088.62  3088.94  3093.83  3094.02  3095.92
eigval :     3096.56  3099.66  3101.81  3102.12  3102.27  3107.26
eigval :     3111.08  3113.09  3120.98  3127.76  3130.46  3178.19

   temp. (K)  partition function   enthalpy   heat capacity  entropy
                                   cal/mol     cal/K/mol   cal/K/mol   J/K/mol
 298.15  VIB  0.144E+16            19723.759    126.587    122.012
         ROT  0.913E+08              888.752      2.981     39.406
         INT  0.131E+24            20612.511    129.568    161.419
         TR   0.129E+29             1481.254      4.968     44.847
         TOT                       22093.7649   134.5360   206.2657   863.0158

       T/K    H(0)-H(T)+PV         H(T)/Eh          T*S/Eh         G(T)/Eh
   ------------------------------------------------------------------------
    298.15    0.352087E-01    0.565259E+00    0.980035E-01    0.467255E+00
   ------------------------------------------------------------------------

         :::::::::::::::::::::::::::::::::::::::::::::::::::::
         ::                  THERMODYNAMIC                  ::
         :::::::::::::::::::::::::::::::::::::::::::::::::::::
         :: total free energy        -110.169704181637 Eh   ::
         ::.................................................::
         :: total energy             -110.636959319702 Eh   ::
         :: zero point energy           0.530049986227 Eh   ::
         :: G(RRHO) w/o ZPVE           -0.062794848162 Eh   ::
         :: G(RRHO) contrib.            0.467255138065 Eh   ::
         :::::::::::::::::::::::::::::::::::::::::::::::::::::

           -------------------------------------------------
          | TOTAL ENERGY             -110.636959319702 Eh   |
          | TOTAL ENTHALPY           -110.071700677943 Eh   |
          | TOTAL FREE ENERGY        -110.169704181637 Eh   |
          | GRADIENT NORM               0.000034320107 Eh/α |
          | HOMO-LUMO GAP               0.604488404820 eV   |
           -------------------------------------------------

 * finished run on 2025/07/16 at 13:47:42.843
