   * xtb version 6.7.1 (edcfbbe) compiled by 'albert@albert-system' on 2024-07-22

   ID    Z sym.   atoms
    1    6 C      1-4, 6-16, 18-22, 24-27, 29-44
    2    7 N      5, 17, 23, 28
    3    1 H      45-70

          program call               : xtb data2507/toluene/IP-PPI/IP-PPI_toluene_T1_crest.xyz --gfn 2 --uhf 2 --gbsa toluene --ohess vtight --parallel 40 --molden --ceasefiles --namespace data2507/toluene/IP-PPI/IP-PPI_toluene_T1_finalOpt
      * Solvation model:               GBSA
        Solvent                        toluene
        Solvent mass                       9.2140E+01 g/mol
          :  Hamiltonian                  GFN2-xTB          :
 * total energy  :  -110.6368233 Eh     change       -0.5387335E-08 Eh
 * total energy  :  -110.6368559 Eh     change       -0.3255950E-04 Eh
 * total energy  :  -110.6368712 Eh     change       -0.1531061E-04 Eh
 * total energy  :  -110.6368765 Eh     change       -0.5357687E-05 Eh
 * total energy  :  -110.6368835 Eh     change       -0.7006231E-05 Eh
 * total energy  :  -110.6368928 Eh     change       -0.9230792E-05 Eh
 * total energy  :  -110.6369062 Eh     change       -0.1340617E-04 Eh
 * total energy  :  -110.6369205 Eh     change       -0.1428218E-04 Eh
 * total energy  :  -110.6369307 Eh     change       -0.1021055E-04 Eh
 * total energy  :  -110.6369394 Eh     change       -0.8700906E-05 Eh
 * total energy  :  -110.6369923 Eh     change       -0.8558221E-06 Eh
 * total energy  :  -110.6369932 Eh     change       -0.8376672E-06 Eh
 * total energy  :  -110.6369941 Eh     change       -0.8849159E-06 Eh
 * total energy  :  -110.6369949 Eh     change       -0.8492456E-06 Eh
 * total energy  :  -110.6369959 Eh     change       -0.9493987E-06 Eh
 * total energy  :  -110.6369969 Eh     change       -0.1040154E-05 Eh
 * total energy  :  -110.6369980 Eh     change       -0.1113557E-05 Eh
 * total energy  :  -110.6369993 Eh     change       -0.1246616E-05 Eh
 * total energy  :  -110.6369993 Eh     change       -0.9442900E-08 Eh
   *** GEOMETRY OPTIMIZATION CONVERGED AFTER 44 ITERATIONS ***

 final structure:
================
70
 xtb: 6.7.1 (edcfbbe)
C           -2.64459454304069        4.77737016647643       -0.01945577570759
C           -2.60095666309285        4.06987766538286        1.17121264994302
C           -2.87021874715530        2.71262838495836        1.18523204924947
C           -3.18361688960891        2.06190199481986       -0.00390871395799
N           -3.46275510686458        0.67617718389552        0.00610875939273
C           -2.52483676121011       -0.36803925035139        0.06512107943527
C           -1.12487857780218       -0.27748304990601        0.05678759045902
C           -0.38516248682974       -1.48872529564694        0.23723375489511
C            0.97012158017137       -1.51030819318833        0.22947882054615
C            1.74697320887686       -0.32513852484941        0.04815594479300
C            3.16798564828632       -0.34148349188267        0.03747000669486
C            3.90428758173956       -1.54537781598944       -0.14916912999156
C            5.26810169060578       -1.56293502002384       -0.17874802831191
C            6.01857302230850       -0.37970354880305       -0.00736920598498
C            7.44677047712813       -0.36996889411619       -0.03007056435038
C            8.32335376848218       -1.44787005179534       -0.20722717466902
N            9.57320622166043       -0.93996181212298       -0.15117556515045
C           10.78879952449718       -1.52999692635719       -0.25803169406063
C           11.91506138942332       -0.76594392653685       -0.16076528215064
C           11.81718935390033        0.62372339543906        0.04878144946204
C           10.59161573705291        1.22615069452295        0.15655969697190
C            9.43342234557482        0.43952328822171        0.05801620835539
N            8.16498726017909        0.77957906496409        0.13082909798576
C            5.30360835240236        0.82151511603682        0.19216525431988
C            3.94052438453753        0.84286554802092        0.20709907165496
C            1.00132179205406        0.87781538908364       -0.13752349228026
C           -0.35730677571525        0.90616128754860       -0.14211822227360
N           -3.15408721675247       -1.55587600528694        0.10612093196569
C           -4.45949766293665       -1.30320271156425        0.05782213172630
C           -5.52973445540003       -2.24525465766875        0.04498936369794
C           -5.27545227144090       -3.61942677639897        0.07487184332887
C           -6.31350423921359       -4.52152231574879        0.04272219249342
C           -7.62123810033648       -4.04980855306428       -0.02243627256230
C           -7.88326598030850       -2.69673731623339       -0.04959728205113
C           -6.85225598692662       -1.74663909131427       -0.01273787596817
C           -7.09679280285051       -0.31387924802315       -0.02360394760431
C           -8.39488337323739        0.20731591193687       -0.03968947113359
C           -8.64359145092767        1.56228177722859       -0.03150366033182
C           -7.58340913045648        2.46692607837493        0.00226231024052
C           -6.29407661228039        2.00176878130372        0.01438748982572
C           -6.01265107252384        0.62064047798726       -0.00652655698246
C           -4.70315856252940        0.09269387384575        0.00385362868627
C           -3.22828056475617        2.77067020474771       -1.20139142259558
C           -2.95814434198308        4.12747772310282       -1.20299282135838
H           -2.43403483103623        5.83600508081742       -0.02574816473335
H           -2.35763048645588        4.57444923785881        2.09400171760787
H           -2.83721505404892        2.14965255778463        2.10644621948689
H           -0.95367194282458       -2.39187702582014        0.39369813719779
H            1.47229992995498       -2.44863943308033        0.40531752257910
H            3.37259574135959       -2.46969959275569       -0.31269663455922
H            5.78355818541436       -2.49763264437349       -0.34267069535270
H            8.13771209087623       -2.49072339255074       -0.36166753724073
H           10.80329057420229       -2.59735742316360       -0.41838869160408
H           12.88257715545723       -1.23310056058859       -0.24461887342676
H           12.71917585240554        1.21072868141898        0.12249435970009
H           10.47880205192744        2.28548855888457        0.31643352088491
H            5.87611493246270        1.72499905536530        0.33725625256912
H            3.43911644542244        1.78031236524180        0.39040411432471
H            1.53073955677146        1.79812406103939       -0.32919093938046
H           -0.85655327679759        1.84275672081981       -0.32692471257681
H           -4.24636016905149       -3.94136625435471        0.11942737885384
H           -6.11865671655725       -5.58330027704301        0.06511339364015
H           -8.44279694753891       -4.75093508631639       -0.05241232723525
H           -8.91306939001378       -2.38198323556353       -0.10211769767602
H           -9.24003711804244       -0.46149136816760       -0.05454394780913
H           -9.66135389428134        1.92278892380096       -0.04487374962530
H           -7.77611740979272        3.52928215449587        0.02007651279987
H           -5.47769653465028        2.70396230382125        0.04759285845940
H           -3.47409643786899        2.25249178242046       -2.11688455978228
H           -2.99123411449796        4.67665941568214       -2.13183375194623

          :  Hamiltonian                  GFN2-xTB          :
         :: gradient norm              0.000072401017 Eh/a0 ::
         :: HOMO-LUMO gap              0.602290294620 eV    ::
         :: SCC energy              -112.669085816127 Eh    ::
         :: -> dispersion             -0.095876231688 Eh    ::
         :: -> Gsolv                  -0.049025013714 Eh    ::
         :: repulsion energy           2.032086549968 Eh    ::

    * Orbital Energies and Occupations

         #    Occupation            Energy/Eh            Energy/eV
      -------------------------------------------------------------
         1        2.0000           -0.6914471             -18.8152
       ...           ...                  ...                  ...
        92        2.0000           -0.4109274             -11.1819
        93        2.0000           -0.4065393             -11.0625
        94        2.0000           -0.4054943             -11.0341
        95        2.0000           -0.4035225             -10.9804
        96        2.0000           -0.4032129             -10.9720
        97        2.0000           -0.3992982             -10.8655
        98        2.0000           -0.3870680             -10.5327
        99        2.0000           -0.3805269             -10.3547
       100        2.0000           -0.3802628             -10.3475
       101        2.0000           -0.3777974             -10.2804
       102        1.9999           -0.3730727             -10.1518
       103        1.0001           -0.3555712              -9.6756
       104        1.0000           -0.2818444              -7.6694 (HOMO)
       105        0.0000           -0.2597105              -7.0671 (LUMO)
       106                         -0.2543685              -6.9217
       107                         -0.2492128              -6.7814
       108                         -0.2427398              -6.6053
       109                         -0.2405589              -6.5459
       110                         -0.2316444              -6.3034
       111                         -0.2183633              -5.9420
       112                         -0.2153607              -5.8603
       113                         -0.2127466              -5.7891
       114                         -0.2074797              -5.6458
       115                         -0.1948603              -5.3024
       ...                                ...                  ...
       202                          0.7236840              19.6924
      -------------------------------------------------------------
                  HL-Gap            0.0221339 Eh            0.6023 eV

     #   Z          covCN         q      C6AA      α(0)
     1   6 C        2.919    -0.028    28.707     8.786
     2   6 C        2.920    -0.025    28.625     8.774
     3   6 C        2.920    -0.037    28.917     8.818
     4   6 C        2.911     0.069    26.465     8.436
     5   7 N        2.822    -0.066    22.518     7.048
     6   6 C        3.140     0.131    24.926     8.170
     7   6 C        2.968    -0.013    28.324     8.730
     8   6 C        2.920    -0.034    28.838     8.806
     9   6 C        2.914    -0.037    28.911     8.817
    10   6 C        2.968     0.006    27.885     8.662
    11   6 C        2.968     0.008    27.838     8.654
    12   6 C        2.917    -0.037    28.912     8.817
    13   6 C        2.914    -0.039    28.981     8.828
    14   6 C        2.970     0.000    28.024     8.683
    15   6 C        3.168     0.072    26.055     8.341
    16   6 C        3.001    -0.039    28.959     8.827
    17   7 N        2.845     0.020    20.889     6.788
    18   6 C        2.852     0.000    28.012     8.675
    19   6 C        2.913    -0.045    29.122     8.849
    20   6 C        2.920    -0.032    28.796     8.800
    21   6 C        2.908    -0.056    29.385     8.889
    22   6 C        3.181     0.135    24.667     8.107
    23   7 N        1.891    -0.327    29.345     8.031
    24   6 C        2.917    -0.031    28.772     8.796
    25   6 C        2.917    -0.037    28.920     8.819
    26   6 C        2.915    -0.035    28.880     8.812
    27   6 C        2.910    -0.043    29.064     8.840
    28   7 N        1.887    -0.317    29.063     7.992
    29   6 C        3.169     0.079    25.897     8.314
    30   6 C        2.984    -0.006    28.162     8.705
    31   6 C        2.922    -0.028    28.702     8.786
    32   6 C        2.916    -0.031    28.785     8.798
    33   6 C        2.917    -0.029    28.732     8.790
    34   6 C        2.921    -0.035    28.864     8.810
    35   6 C        2.977    -0.001    28.057     8.689
    36   6 C        2.977    -0.001    28.039     8.686
    37   6 C        2.920    -0.033    28.821     8.804
    38   6 C        2.916    -0.032    28.789     8.798
    39   6 C        2.915    -0.032    28.794     8.799
    40   6 C        2.918    -0.038    28.935     8.821
    41   6 C        2.974    -0.010    28.261     8.720
    42   6 C        3.046     0.038    27.105     8.539
    43   6 C        2.920    -0.037    28.923     8.819
    44   6 C        2.919    -0.026    28.642     8.776
    45   1 H        0.926     0.048     2.343     2.394
    46   1 H        0.926     0.048     2.344     2.394
    47   1 H        0.926     0.040     2.446     2.446
    48   1 H        0.926     0.048     2.343     2.394
    49   1 H        0.926     0.037     2.494     2.469
    50   1 H        0.926     0.036     2.509     2.477
    51   1 H        0.926     0.028     2.620     2.531
    52   1 H        0.926     0.035     2.517     2.481
    53   1 H        0.926     0.050     2.326     2.385
    54   1 H        0.926     0.051     2.304     2.374
    55   1 H        0.926     0.045     2.383     2.414
    56   1 H        0.926     0.050     2.316     2.380
    57   1 H        0.926     0.048     2.339     2.391
    58   1 H        0.926     0.035     2.510     2.477
    59   1 H        0.926     0.036     2.502     2.474
    60   1 H        0.926     0.027     2.625     2.534
    61   1 H        0.926     0.047     2.351     2.398
    62   1 H        0.926     0.037     2.486     2.466
    63   1 H        0.926     0.038     2.479     2.462
    64   1 H        0.926     0.040     2.453     2.449
    65   1 H        0.926     0.041     2.438     2.442
    66   1 H        0.926     0.037     2.495     2.470
    67   1 H        0.926     0.035     2.519     2.482
    68   1 H        0.926     0.032     2.553     2.499
    69   1 H        0.926     0.041     2.435     2.440
    70   1 H        0.926     0.048     2.346     2.395

molecular dipole:
                 x           y           z       tot (Debye)
 q only:       -0.358       0.561      -0.124
   full:       -0.307       0.436      -0.219       1.466

 projected vibrational frequencies (cm⁻¹)
eigval :       -0.00    -0.00    -0.00    -0.00     0.00     0.00
eigval :      -14.69     9.94    20.45    23.43    30.70    32.73
eigval :       46.85    52.03    60.40    61.79    66.38    82.03
eigval :       84.65    98.39   119.72   126.89   148.94   162.77
eigval :      196.44   210.72   221.87   228.10   241.12   247.33
eigval :      254.18   263.95   289.76   305.22   320.40   334.12
eigval :      358.28   371.72   374.71   378.88   391.92   393.33
eigval :      406.59   414.51   427.39   432.11   433.83   447.50
eigval :      467.06   480.26   502.29   503.24   503.94   525.20
eigval :      526.00   528.75   573.94   582.63   585.16   586.74
eigval :      598.17   613.35   614.37   630.01   630.98   637.16
eigval :      646.28   654.12   663.78   670.85   672.84   680.01
eigval :      684.61   693.50   703.42   709.35   728.45   745.88
eigval :      754.70   759.05   763.52   775.68   790.70   796.11
eigval :      797.56   808.86   818.37   829.74   836.49   856.05
eigval :      867.92   873.02   876.15   885.95   898.05   899.12
eigval :      902.48   902.88   903.03   905.13   910.48   912.48
eigval :      915.07   918.39   923.23   927.61   931.06   934.97
eigval :      935.45   943.28   978.82   990.55  1004.49  1021.55
eigval :     1055.47  1059.59  1075.91  1077.89  1082.60  1098.16
eigval :     1104.01  1115.17  1129.40  1130.53  1139.30  1148.90
eigval :     1152.40  1158.87  1167.64  1179.76  1180.52  1183.82
eigval :     1186.81  1199.77  1206.30  1216.44  1220.29  1240.49
eigval :     1246.50  1252.83  1259.04  1261.02  1271.65  1273.02
eigval :     1280.17  1283.50  1296.93  1305.22  1314.72  1317.15
eigval :     1331.31  1333.96  1336.47  1338.36  1351.35  1367.76
eigval :     1377.67  1392.00  1395.41  1407.60  1422.52  1429.21
eigval :     1431.70  1437.39  1442.05  1449.30  1463.08  1467.10
eigval :     1472.42  1475.77  1486.42  1488.67  1499.59  1519.15
eigval :     1540.54  1544.59  1545.47  1566.09  1576.54  1578.86
eigval :     1584.39  1587.75  1591.03  1600.05  3074.05  3077.49
eigval :     3077.73  3081.93  3083.44  3085.08  3085.74  3087.35
eigval :     3089.11  3089.26  3089.42  3093.50  3093.80  3096.54
eigval :     3097.85  3099.67  3101.52  3102.33  3102.40  3108.25
eigval :     3110.87  3114.51  3120.84  3124.44  3129.45  3178.50

   temp. (K)  partition function   enthalpy   heat capacity  entropy
                                   cal/mol     cal/K/mol   cal/K/mol   J/K/mol
 298.15  VIB  0.407E+16            19808.717    126.285    123.059
         ROT  0.908E+08              888.752      2.981     39.395
         INT  0.369E+24            20697.469    129.266    162.454
         TR   0.129E+29             1481.254      4.968     44.847
         TOT                       22178.7229   134.2337   207.3013   867.3487

       T/K    H(0)-H(T)+PV         H(T)/Eh          T*S/Eh         G(T)/Eh
   ------------------------------------------------------------------------
    298.15    0.353440E-01    0.565190E+00    0.984955E-01    0.466695E+00
   ------------------------------------------------------------------------

         :::::::::::::::::::::::::::::::::::::::::::::::::::::
         ::                  THERMODYNAMIC                  ::
         :::::::::::::::::::::::::::::::::::::::::::::::::::::
         :: total free energy        -110.170304714061 Eh   ::
         ::.................................................::
         :: total energy             -110.636999263549 Eh   ::
         :: zero point energy           0.529846043268 Eh   ::
         :: G(RRHO) w/o ZPVE           -0.063151493780 Eh   ::
         :: G(RRHO) contrib.            0.466694549488 Eh   ::
         :::::::::::::::::::::::::::::::::::::::::::::::::::::

           -------------------------------------------------
          | TOTAL ENERGY             -110.636999263549 Eh   |
          | TOTAL ENTHALPY           -110.071809175621 Eh   |
          | TOTAL FREE ENERGY        -110.170304714061 Eh   |
          | GRADIENT NORM               0.000072320799 Eh/α |
          | HOMO-LUMO GAP               0.602293744698 eV   |
           -------------------------------------------------

 * finished run on 2025/07/16 at 13:51:06.959
