   * xtb version 6.7.1 (edcfbbe) compiled by 'albert@albert-system' on 2024-07-22

   ID    Z sym.   atoms
    1    6 C      1-4, 6-16, 18-22, 24-27, 29-44
    2    7 N      5, 17, 23, 28
    3    1 H      45-70

          program call               : xtb data2507/toluene/IP-PPI/IP-PPI.xyz --gfn 2 --gbsa toluene --ohess vtight --parallel 40 --molden --ceasefiles --namespace data2507/toluene/IP-PPI/IP-PPI_toluene_S0_preOpt
      * Solvation model:               GBSA
        Solvent                        toluene
        Solvent mass                       9.2140E+01 g/mol
          :  Hamiltonian                  GFN2-xTB          :
 * total energy  :  -110.7023056 Eh     change       -0.1629772E-08 Eh
 * total energy  :  -110.7134817 Eh     change       -0.1117609E-01 Eh
 * total energy  :  -110.7165867 Eh     change       -0.3105016E-02 Eh
 * total energy  :  -110.7173687 Eh     change       -0.7819860E-03 Eh
 * total energy  :  -110.7179205 Eh     change       -0.5518357E-03 Eh
 * total energy  :  -110.7181884 Eh     change       -0.2679413E-03 Eh
 * total energy  :  -110.7184111 Eh     change       -0.2226467E-03 Eh
 * total energy  :  -110.7186060 Eh     change       -0.1949455E-03 Eh
 * total energy  :  -110.7188297 Eh     change       -0.2237107E-03 Eh
 * total energy  :  -110.7190790 Eh     change       -0.2492193E-03 Eh
 * total energy  :  -110.7209130 Eh     change       -0.1896405E-06 Eh
 * total energy  :  -110.7209132 Eh     change       -0.1506756E-06 Eh
 * total energy  :  -110.7209133 Eh     change       -0.1534693E-06 Eh
 * total energy  :  -110.7209135 Eh     change       -0.1763765E-06 Eh
 * total energy  :  -110.7209137 Eh     change       -0.2137116E-06 Eh
 * total energy  :  -110.7209139 Eh     change       -0.2453355E-06 Eh
 * total energy  :  -110.7209142 Eh     change       -0.2215487E-06 Eh
 * total energy  :  -110.7209143 Eh     change       -0.1333387E-06 Eh
 * total energy  :  -110.7209144 Eh     change       -0.8879930E-07 Eh
   *** GEOMETRY OPTIMIZATION CONVERGED AFTER 119 ITERATIONS ***

 final structure:
================
70
 xtb: 6.7.1 (edcfbbe)
C           -2.24312811999296        4.47003791774457       -0.46175130471126
C           -1.97471157093283        3.77766457478091        0.70739418662045
C           -2.37788675904143        2.46103153042980        0.84554247786050
C           -3.05320896332983        1.83619543412111       -0.19580614741648
N           -3.43680560292314        0.48303289250767       -0.06573816999233
C           -2.56457317342591       -0.57568616117599        0.05141261372291
C           -1.11432010134457       -0.47116766944442        0.03486674362789
C           -0.38218211507187       -1.35093069003431        0.83428938412026
C            0.99544622755996       -1.30840578359610        0.84789931423503
C            1.68976371088913       -0.39729261027743        0.05131050111643
C            3.15812437951360       -0.36042514276118        0.05808918921040
C            3.87545459664391       -0.21088498671482       -1.12906657011233
C            5.25384027266872       -0.19273228184948       -1.12289937707767
C            5.96407866549340       -0.31451676682686        0.07246604820026
C            7.41652172464051       -0.29857436470245        0.04713679751997
C            8.30283717716766       -0.41071388172283        1.10755228881881
N            9.54871733224969       -0.34764779084616        0.57438120906277
C           10.77598422679737       -0.40743952670651        1.14377115963617
C           11.88343159674007       -0.32012244489673        0.35732730782311
C           11.75565081755284       -0.16881722903369       -1.04040570461534
C           10.51933403641248       -0.10774892782826       -1.61949519695167
C            9.37970226318707       -0.19794536055792       -0.80554828040679
N            8.10038643105438       -0.16773204225442       -1.12001563139032
C            5.24862658887418       -0.45532962849248        1.26198174759003
C            3.86924489887910       -0.48200650470537        1.25168622260893
C            0.95557940046338        0.46453096227480       -0.76187394050612
C           -0.42452752869407        0.43205828651910       -0.77223420154320
N           -3.19190031043354       -1.72062441775308        0.17648090352843
C           -4.51844737879325       -1.42629380277342        0.13770740751367
C           -5.61346539274613       -2.33281708344893        0.20227082080728
C           -5.40825100314249       -3.71363653523668        0.30112621040937
C           -6.47715597260034       -4.57406886828261        0.33550867383532
C           -7.77102209640377       -4.06005087589259        0.26836786038467
C           -7.98471398104468       -2.70431406579882        0.17605847439656
C           -6.91838575494577       -1.79164692703406        0.14417186719571
C           -7.11141631816450       -0.35299261139545        0.07343314002222
C           -8.39313496093207        0.21674605774645        0.08157833995755
C           -8.58837855063262        1.57744868228333        0.05197162305421
C           -7.49547305506397        2.43833220580723        0.02767131990515
C           -6.22336723991008        1.92127122809632        0.01232002345099
C           -6.00198488565256        0.53613238373959        0.01652525162210
C           -4.70493472920407       -0.05159203439097        0.00144416730763
C           -3.31917587882298        2.52778788485420       -1.37408801103693
C           -2.91520085691292        3.84456329258940       -1.50023416406177
H           -1.92805810283877        5.49723396623250       -0.56538689004902
H           -1.45084948243976        4.26225220637655        1.51732195276350
H           -2.17260657467208        1.91077036583743        1.75207816216715
H           -0.91883459764127       -2.06572986954768        1.43950494439509
H            1.54520291402147       -2.00410089920745        1.46462096082204
H            3.34317506222333       -0.13412662522756       -2.06606558793865
H            5.81254198706348       -0.08786990717666       -2.04011331086764
H            8.14163731881454       -0.52672505522174        2.15936247711688
H           10.81389376462095       -0.52448637146525        2.21656663889212
H           12.86162728817587       -0.36763596399797        0.80689257504646
H           12.64553939984857       -0.10259466185656       -1.64631425124544
H           10.38139836453034        0.00668211918417       -2.68200098768538
H            5.77420114692729       -0.54534379654111        2.20068295735262
H            3.33040980206534       -0.57834327098992        2.18331512308147
H            1.47338127200477        1.17915754631724       -1.38457053323527
H           -0.96363502053401        1.09949955171480       -1.42716658624112
H           -4.39034224889152       -4.07060212243695        0.34234526998913
H           -6.32130798416812       -5.64041033884535        0.40946932793555
H           -8.61596522125876       -4.73341803768754        0.28900579188094
H           -9.00323815768290       -2.35380667983182        0.12405323542931
H           -9.26183039027046       -0.42035630905478        0.11983116466392
H           -9.59161126023219        1.97793350417411        0.05908940603315
H           -7.64497485309404        3.50801223018618        0.02507246964040
H           -5.37949723471261        2.59215668758903        0.00908742268908
H           -3.84184881110728        2.02831884169492       -2.17741717281336
H           -3.12337542738412        4.38085657270619       -2.41385013516508

          :  Hamiltonian                  GFN2-xTB          :
         :: gradient norm              0.000076313343 Eh/a0 ::
         :: HOMO-LUMO gap              2.552351343825 eV    ::
         :: SCC energy              -112.770910959068 Eh    ::
         :: -> dispersion             -0.096034101844 Eh    ::
         :: -> Gsolv                  -0.049189862117 Eh    ::
         :: repulsion energy           2.049996568888 Eh    ::

    * Orbital Energies and Occupations

         #    Occupation            Energy/Eh            Energy/eV
      -------------------------------------------------------------
         1        2.0000           -0.6927747             -18.8514
       ...           ...                  ...                  ...
        91        2.0000           -0.4162031             -11.3255
        92        2.0000           -0.4152956             -11.3008
        93        2.0000           -0.4096966             -11.1484
        94        2.0000           -0.4074194             -11.0864
        95        2.0000           -0.4041910             -10.9986
        96        2.0000           -0.4033359             -10.9753
        97        2.0000           -0.3984424             -10.8422
        98        2.0000           -0.3838643             -10.4455
        99        2.0000           -0.3824025             -10.4057
       100        2.0000           -0.3797850             -10.3345
       101        2.0000           -0.3790121             -10.3134
       102        2.0000           -0.3734552             -10.1622
       103        2.0000           -0.3631265              -9.8812 (HOMO)
       104                         -0.2693293              -7.3288 (LUMO)
       105                         -0.2580244              -7.0212
       106                         -0.2507115              -6.8222
       107                         -0.2453291              -6.6757
       108                         -0.2397339              -6.5235
       109                         -0.2394001              -6.5144
       110                         -0.2298980              -6.2558
       111                         -0.2259020              -6.1471
       112                         -0.2206237              -6.0035
       113                         -0.2179837              -5.9316
       114                         -0.2065485              -5.6205
       ...                                ...                  ...
       202                          0.7253958              19.7390
      -------------------------------------------------------------
                  HL-Gap            0.0937972 Eh            2.5524 eV

     #   Z          covCN         q      C6AA      α(0)
     1   6 C        2.919    -0.028    28.710     8.787
     2   6 C        2.920    -0.025    28.623     8.773
     3   6 C        2.921    -0.038    28.938     8.822
     4   6 C        2.912     0.067    26.504     8.442
     5   7 N        2.840    -0.055    22.300     7.014
     6   6 C        3.190     0.137    24.576     8.086
     7   6 C        2.974    -0.004    28.119     8.698
     8   6 C        2.926    -0.030    28.739     8.791
     9   6 C        2.923    -0.033    28.823     8.804
    10   6 C        2.976     0.013    27.724     8.637
    11   6 C        2.976     0.009    27.814     8.651
    12   6 C        2.922    -0.034    28.851     8.808
    13   6 C        2.924    -0.030    28.758     8.794
    14   6 C        2.972     0.004    27.940     8.670
    15   6 C        3.180     0.071    26.009     8.326
    16   6 C        3.004    -0.044    29.080     8.846
    17   7 N        2.853     0.019    20.919     6.793
    18   6 C        2.853     0.007    27.863     8.652
    19   6 C        2.914    -0.043    29.079     8.843
    20   6 C        2.921    -0.031    28.774     8.797
    21   6 C        2.908    -0.049    29.224     8.864
    22   6 C        3.190     0.131    24.703     8.107
    23   7 N        1.896    -0.321    29.181     8.009
    24   6 C        2.921    -0.039    28.971     8.827
    25   6 C        2.923    -0.035    28.875     8.812
    26   6 C        2.924    -0.034    28.854     8.809
    27   6 C        2.920    -0.036    28.900     8.816
    28   7 N        1.894    -0.319    29.132     8.002
    29   6 C        3.205     0.060    26.085     8.319
    30   6 C        2.985    -0.003    28.098     8.695
    31   6 C        2.921    -0.033    28.835     8.806
    32   6 C        2.917    -0.032    28.797     8.800
    33   6 C        2.917    -0.034    28.858     8.809
    34   6 C        2.921    -0.037    28.911     8.817
    35   6 C        2.979    -0.005    28.142     8.702
    36   6 C        2.979    -0.002    28.064     8.690
    37   6 C        2.922    -0.035    28.877     8.812
    38   6 C        2.916    -0.034    28.854     8.808
    39   6 C        2.917    -0.033    28.813     8.802
    40   6 C        2.919    -0.042    29.033     8.836
    41   6 C        2.977    -0.005    28.146     8.702
    42   6 C        3.073     0.022    27.446     8.590
    43   6 C        2.921    -0.037    28.917     8.818
    44   6 C        2.920    -0.026    28.655     8.778
    45   1 H        0.926     0.048     2.346     2.395
    46   1 H        0.926     0.047     2.355     2.400
    47   1 H        0.926     0.038     2.478     2.462
    48   1 H        0.926     0.045     2.388     2.417
    49   1 H        0.926     0.042     2.427     2.436
    50   1 H        0.926     0.037     2.494     2.470
    51   1 H        0.926     0.052     2.291     2.367
    52   1 H        0.926     0.034     2.533     2.489
    53   1 H        0.926     0.053     2.278     2.360
    54   1 H        0.926     0.055     2.259     2.350
    55   1 H        0.926     0.048     2.339     2.391
    56   1 H        0.926     0.054     2.266     2.354
    57   1 H        0.926     0.031     2.569     2.507
    58   1 H        0.926     0.036     2.503     2.474
    59   1 H        0.926     0.041     2.441     2.443
    60   1 H        0.926     0.030     2.593     2.518
    61   1 H        0.926     0.043     2.408     2.427
    62   1 H        0.926     0.032     2.555     2.500
    63   1 H        0.926     0.032     2.561     2.503
    64   1 H        0.926     0.034     2.524     2.484
    65   1 H        0.926     0.037     2.492     2.469
    66   1 H        0.926     0.032     2.552     2.498
    67   1 H        0.926     0.032     2.563     2.504
    68   1 H        0.926     0.029     2.594     2.519
    69   1 H        0.926     0.042     2.428     2.437
    70   1 H        0.926     0.048     2.349     2.397

molecular dipole:
                 x           y           z       tot (Debye)
 q only:        1.505       1.270       0.417
   full:        1.566       1.538       0.831       5.967

 projected vibrational frequencies (cm⁻¹)
eigval :       -0.00    -0.00    -0.00    -0.00     0.00     0.00
eigval :       -0.55    10.45    17.75    20.35    26.56    35.73
eigval :       45.05    51.47    59.39    75.14    77.24    85.04
eigval :       92.82    96.46   112.68   138.59   148.83   164.46
eigval :      197.04   220.10   226.12   227.15   245.29   250.15
eigval :      267.15   283.75   287.96   305.75   334.86   355.37
eigval :      362.92   374.49   377.01   386.08   395.98   398.85
eigval :      420.17   427.84   430.69   439.08   449.36   473.44
eigval :      487.25   501.04   512.61   518.28   525.44   534.98
eigval :      535.36   542.67   572.42   584.43   588.83   598.30
eigval :      604.14   618.63   633.33   641.72   648.81   652.27
eigval :      656.51   668.52   677.12   681.64   691.83   697.34
eigval :      705.02   710.53   712.91   721.77   734.17   757.65
eigval :      764.42   765.36   768.23   780.46   801.12   805.82
eigval :      830.81   836.04   853.14   861.40   865.76   872.96
eigval :      873.31   875.02   884.60   888.18   904.34   907.00
eigval :      911.39   912.16   912.73   919.40   922.41   924.90
eigval :      925.95   928.09   929.60   931.79   936.47   938.64
eigval :      951.02   980.01  1004.36  1015.74  1028.35  1053.34
eigval :     1067.71  1079.04  1079.17  1084.98  1088.33  1106.72
eigval :     1115.94  1131.58  1133.18  1134.23  1141.83  1151.53
eigval :     1152.22  1172.86  1179.84  1179.99  1184.53  1188.75
eigval :     1189.07  1197.28  1205.42  1208.17  1221.86  1252.18
eigval :     1255.49  1261.38  1266.79  1271.40  1275.28  1281.88
eigval :     1289.08  1307.21  1311.04  1311.47  1318.85  1323.36
eigval :     1331.03  1336.60  1340.87  1347.30  1365.02  1371.46
eigval :     1393.80  1405.87  1410.51  1417.06  1428.88  1431.57
eigval :     1435.27  1450.44  1470.17  1473.35  1481.25  1484.07
eigval :     1512.02  1512.20  1525.38  1539.60  1547.28  1554.15
eigval :     1560.07  1564.37  1568.37  1582.12  1588.03  1591.73
eigval :     1593.23  1600.68  1603.32  1622.90  3069.29  3072.91
eigval :     3073.07  3077.13  3079.44  3079.54  3080.48  3081.97
eigval :     3082.55  3083.34  3086.63  3087.23  3089.26  3092.62
eigval :     3095.53  3095.85  3097.67  3097.86  3098.47  3101.35
eigval :     3102.80  3109.07  3114.19  3117.37  3119.81  3179.89

   temp. (K)  partition function   enthalpy   heat capacity  entropy
                                   cal/mol     cal/K/mol   cal/K/mol   J/K/mol
 298.15  VIB  0.178E+15            18856.632    123.242    115.986
         ROT  0.881E+08              888.752      2.981     39.336
         INT  0.157E+23            19745.385    126.222    155.321
         TR   0.129E+29             1481.254      4.968     44.847
         TOT                       21226.6386   131.1906   200.1684   837.5047

       T/K    H(0)-H(T)+PV         H(T)/Eh          T*S/Eh         G(T)/Eh
   ------------------------------------------------------------------------
    298.15    0.338268E-01    0.567828E+00    0.951065E-01    0.472721E+00
   ------------------------------------------------------------------------

         :::::::::::::::::::::::::::::::::::::::::::::::::::::
         ::                  THERMODYNAMIC                  ::
         :::::::::::::::::::::::::::::::::::::::::::::::::::::
         :: total free energy        -110.248193065952 Eh   ::
         ::.................................................::
         :: total energy             -110.720914389947 Eh   ::
         :: zero point energy           0.534000998029 Eh   ::
         :: G(RRHO) w/o ZPVE           -0.061279674034 Eh   ::
         :: G(RRHO) contrib.            0.472721323995 Eh   ::
         :::::::::::::::::::::::::::::::::::::::::::::::::::::

           -------------------------------------------------
          | TOTAL ENERGY             -110.720914389947 Eh   |
          | TOTAL ENTHALPY           -110.153086590110 Eh   |
          | TOTAL FREE ENERGY        -110.248193065952 Eh   |
          | GRADIENT NORM               0.000076330761 Eh/α |
          | HOMO-LUMO GAP               2.552351588911 eV   |
           -------------------------------------------------

 * finished run on 2025/07/16 at 13:44:46.259
