   * xtb version 6.7.1 (edcfbbe) compiled by 'albert@albert-system' on 2024-07-22

   ID    Z sym.   atoms
    1    6 C      1-4, 6-26, 28-38
    2    7 N      5, 27
    3    1 H      39-62

          program call               : xtb data2507/gas/DPhBCz/DPhBCz_gas_T1_crest.xyz --gfn 2 --spinpol --tblite --uhf 2 --ohess vtight --parallel 40 --molden --ceasefiles --namespace data2507/gas/DPhBCz/DPhBCz_gas_T1_finalOpt
 * total energy  :   -95.1368575 Eh     change       -0.5043162E-08 Eh
 * total energy  :   -95.1368855 Eh     change       -0.2799063E-04 Eh
 * total energy  :   -95.1368999 Eh     change       -0.1440628E-04 Eh
 * total energy  :   -95.1369019 Eh     change       -0.1988804E-05 Eh
 * total energy  :   -95.1369033 Eh     change       -0.1453733E-05 Eh
 * total energy  :   -95.1369044 Eh     change       -0.1035800E-05 Eh
 * total energy  :   -95.1369054 Eh     change       -0.1043347E-05 Eh
 * total energy  :   -95.1369061 Eh     change       -0.7022570E-06 Eh
 * total energy  :   -95.1369066 Eh     change       -0.4961399E-06 Eh
 * total energy  :   -95.1369071 Eh     change       -0.5498541E-06 Eh
 * total energy  :   -95.1369076 Eh     change       -0.4359528E-06 Eh
 * total energy  :   -95.1369079 Eh     change       -0.3547541E-06 Eh
 * total energy  :   -95.1369082 Eh     change       -0.2447158E-06 Eh
 * total energy  :   -95.1369084 Eh     change       -0.2183042E-06 Eh
 * total energy  :   -95.1369095 Eh     change       -0.1118879E-05 Eh
 * total energy  :   -95.1369098 Eh     change       -0.2771783E-06 Eh
 * total energy  :   -95.1369092 Eh     change        0.5836589E-06 Eh
 * total energy  :   -95.1369094 Eh     change       -0.1826267E-06 Eh
 * total energy  :   -95.1369095 Eh     change       -0.8188454E-07 Eh
   *** GEOMETRY OPTIMIZATION CONVERGED AFTER 19 ITERATIONS ***

 final structure:
================
62
 xtb: 6.7.1 (edcfbbe)
C           -7.76203028609091       -2.98874321260183        0.27044931098228
C           -6.66663763722098       -3.12984625203961       -0.56885333432163
C           -5.71668935896969       -2.13198608865589       -0.65138260773647
C           -5.85253618978835       -0.97355204349230        0.11575060042098
N           -4.89018045607741        0.03517479582257        0.03789764463862
C           -5.14748477235876        1.38586044436403       -0.13815321989652
C           -6.35935775450095        2.03998114887620       -0.29946017135521
C           -6.33291101761412        3.41146154860005       -0.49495839804214
C           -5.13590952023049        4.11429294982074       -0.54029659965269
C           -3.92058994834548        3.45842724643343       -0.41054003591739
C           -3.92332147770774        2.08914099582119       -0.21520912642588
C           -2.87172729931066        1.10705819822385       -0.07803723957191
C           -1.51063255330499        1.20313957175486       -0.06647486841690
C           -0.70006744651880        0.01794309483238        0.08173157598080
C            0.70146057078116        0.05686726483789        0.03600308961273
C            1.43582010044193        1.30340052696226        0.04212951588614
C            2.79333726703126        1.37397955099241        0.04823687491902
C            3.53441433163747        0.17696920973078        0.03842699587147
C            2.85656758777629       -1.07547300898344       -0.04324957958367
C            1.49411837148286       -1.14748852348392       -0.04122972999886
C            3.89242594821662       -2.07959205217903       -0.13156753864481
C            3.86872400609038       -3.46030774133645       -0.21021454239711
C            5.07432655944859       -4.14538914853709       -0.24376186388210
C            6.28281926446812       -3.46391779753317       -0.17975984614855
C            6.33019804506060       -2.08141496846989       -0.10073357716082
C            5.12727379287986       -1.39185064263701       -0.09885779366747
N            4.89119621834156       -0.02957163492725        0.00085783428272
C            5.87101701905965        0.96095773203241        0.09450849101714
C            5.77806327680465        1.94768253967332        1.07769731878990
C            6.74576137781023        2.92799712060152        1.16514545244541
C            7.81632719916191        2.93847827172122        0.28323356007079
C            7.91035389981579        1.95963528282183       -0.69492404337596
C            6.94574596015832        0.97731272737803       -0.79609869529330
C           -1.41648650696365       -1.22067931966543        0.29967098151281
C           -2.77247274963311       -1.31285058381968        0.30459340238159
C           -3.53020515136466       -0.14944156606297        0.07140899542066
C           -6.95232524732559       -0.83654910731154        0.96454304051027
C           -7.89882602834899       -1.83905216978571        1.03405944874496
H           -8.50364540627005       -3.77053879850238        0.33008171729020
H           -6.55781817091991       -4.02127155982333       -1.16887254430196
H           -4.87649240007650       -2.22700871145121       -1.32285131980909
H           -7.29508242868184        1.50235693655665       -0.28904775635425
H           -7.26505778843806        3.94269313335313       -0.61889200897554
H           -5.15350862817444        5.18330957492290       -0.69105665160451
H           -2.99026029657052        4.00289214339977       -0.46720190496304
H           -1.05143908417189        2.16837148190628       -0.19439923873552
H            0.88403202758129        2.22811128402732        0.06198536516188
H            3.29691161912718        2.32950160479709        0.04577547443800
H            1.01663190464461       -2.10693950809471       -0.14596675042869
H            2.92992865402859       -3.99225579974430       -0.23961582473666
H            5.07562016829098       -5.22318174024290       -0.30856955816948
H            7.20753373839942       -4.02186566400675       -0.18750832550219
H            7.27513405562754       -1.56507558838409       -0.02824710805167
H            4.95742493177815        1.92124101690034        1.77891064972419
H            6.67038229160993        3.68544320048397        1.93137837748116
H            8.57197658928973        3.70550772618087        0.35687262087532
H            8.73732156929077        1.96878885210785       -1.38963231810684
H            7.00093030620207        0.23326987208746       -1.57655648938245
H           -0.84870229711569       -2.11016573238327        0.51665665375892
H           -3.26265862497140       -2.25383940212830        0.50721279498338
H           -7.04109724109060        0.04470852754649        1.58198109447821
H           -8.74524444218089       -1.72851440108768        1.69583990803202

 projected vibrational frequencies (cm⁻¹)
eigval :       -0.00    -0.00    -0.00    -0.00     0.00     0.00
eigval :       10.30    15.15    31.13    42.90    52.28    61.27
eigval :       63.58    74.17    82.09    90.56   108.20   114.15
eigval :      128.68   153.21   167.11   175.16   207.70   229.75
eigval :      235.66   257.39   258.59   271.02   275.40   327.28
eigval :      337.82   356.93   379.06   381.29   382.64   387.43
eigval :      392.58   398.23   406.50   412.36   437.36   462.47
eigval :      463.32   484.31   515.10   521.80   530.25   543.91
eigval :      559.09   572.68   576.70   585.48   587.62   589.73
eigval :      596.05   609.26   611.20   639.55   647.59   649.91
eigval :      661.72   666.87   695.80   696.51   701.87   719.53
eigval :      755.69   756.19   758.13   765.57   769.44   771.80
eigval :      774.44   779.37   783.96   841.88   863.25   863.43
eigval :      873.94   874.76   877.94   884.72   888.49   889.92
eigval :      897.66   897.91   900.77   901.02   916.73   917.74
eigval :      917.80   919.30   927.74   927.77   930.61   930.63
eigval :      962.94   988.13   990.77   997.41  1007.63  1071.12
eigval :     1072.02  1075.89  1076.20  1079.84  1112.66  1119.13
eigval :     1119.41  1126.20  1147.48  1166.39  1170.97  1177.32
eigval :     1178.55  1179.42  1179.45  1188.89  1191.31  1199.39
eigval :     1202.53  1234.37  1236.07  1244.25  1256.91  1264.25
eigval :     1271.90  1275.59  1282.02  1293.69  1313.53  1323.96
eigval :     1324.21  1337.60  1342.11  1348.43  1351.76  1374.66
eigval :     1375.74  1406.30  1419.34  1425.01  1426.19  1435.39
eigval :     1437.34  1450.85  1464.32  1466.62  1472.69  1475.10
eigval :     1506.75  1510.53  1537.23  1537.59  1538.07  1568.11
eigval :     1569.85  1580.54  1581.88  1587.27  1587.48  1610.35
eigval :     3075.28  3076.55  3078.05  3078.07  3078.68  3078.74
eigval :     3080.08  3080.10  3084.46  3084.52  3090.93  3091.02
eigval :     3092.38  3092.47  3094.15  3094.27  3097.33  3097.70
eigval :     3099.53  3100.38  3105.65  3109.06  3118.65  3122.95

   temp. (K)  partition function   enthalpy   heat capacity  entropy
                                   cal/mol     cal/K/mol   cal/K/mol   J/K/mol
 298.15  VIB  0.156E+13            16747.007    111.017    102.722
         ROT  0.529E+08              888.752      2.981     38.323
         INT  0.824E+20            17635.759    113.998    141.045
         TR   0.103E+29             1481.254      4.968     44.402
         TOT                       19117.0129   118.9659   185.4466   775.9085

       T/K    H(0)-H(T)+PV         H(T)/Eh          T*S/Eh         G(T)/Eh
   ------------------------------------------------------------------------
    298.15    0.304649E-01    0.505189E+00    0.881117E-01    0.417077E+00
   ------------------------------------------------------------------------

         :::::::::::::::::::::::::::::::::::::::::::::::::::::
         ::                  THERMODYNAMIC                  ::
         :::::::::::::::::::::::::::::::::::::::::::::::::::::
         :: total free energy         -94.719832281385 Eh   ::
         ::.................................................::
         :: total energy              -95.136909530047 Eh   ::
         :: zero point energy           0.474723999765 Eh   ::
         :: G(RRHO) w/o ZPVE           -0.057646751103 Eh   ::
         :: G(RRHO) contrib.            0.417077248662 Eh   ::
         :::::::::::::::::::::::::::::::::::::::::::::::::::::

           -------------------------------------------------
          | TOTAL ENERGY              -95.136909530047 Eh   |
          | TOTAL ENTHALPY            -94.631720631001 Eh   |
          | TOTAL FREE ENERGY         -94.719832281385 Eh   |
          | GRADIENT NORM               0.000083301020 Eh/α |
           -------------------------------------------------

 * finished run on 2025/08/29 at 11:44:02.387
