   * xtb version 6.7.1 (edcfbbe) compiled by 'albert@albert-system' on 2024-07-22

   ID    Z sym.   atoms
    1    6 C      1-4, 6-26, 28-38
    2    7 N      5, 27
    3    1 H      39-62

          program call               : xtb data2507/gas/DPhBCz/DPhBCz_gas_S0_crest.xyz --gfn 2 --ohess vtight --parallel 40 --molden --ceasefiles --namespace data2507/gas/DPhBCz/DPhBCz_gas_S0_finalOpt
          :  Hamiltonian                  GFN2-xTB          :
 * total energy  :   -95.2378595 Eh     change       -0.4139764E-09 Eh
 * total energy  :   -95.2378598 Eh     change       -0.3377733E-06 Eh
 * total energy  :   -95.2378602 Eh     change       -0.3491656E-06 Eh
 * total energy  :   -95.2378607 Eh     change       -0.5484483E-06 Eh
 * total energy  :   -95.2378610 Eh     change       -0.3318108E-06 Eh
 * total energy  :   -95.2378612 Eh     change       -0.1857860E-06 Eh
 * total energy  :   -95.2378614 Eh     change       -0.1697034E-06 Eh
 * total energy  :   -95.2378616 Eh     change       -0.1766878E-06 Eh
 * total energy  :   -95.2378618 Eh     change       -0.1770945E-06 Eh
 * total energy  :   -95.2378619 Eh     change       -0.1521272E-06 Eh
 * total energy  :   -95.2378620 Eh     change       -0.1405357E-06 Eh
 * total energy  :   -95.2378622 Eh     change       -0.1535610E-06 Eh
 * total energy  :   -95.2378624 Eh     change       -0.1891099E-06 Eh
 * total energy  :   -95.2378626 Eh     change       -0.2076282E-06 Eh
 * total energy  :   -95.2378628 Eh     change       -0.1762964E-06 Eh
 * total energy  :   -95.2378629 Eh     change       -0.1182440E-06 Eh
 * total energy  :   -95.2378630 Eh     change       -0.9056647E-07 Eh
   *** GEOMETRY OPTIMIZATION CONVERGED AFTER 17 ITERATIONS ***

 final structure:
================
62
 xtb: 6.7.1 (edcfbbe)
C           -7.77865229538627       -2.80822065085790       -1.05515474518351
C           -7.85432231117334       -1.52710600574915       -1.57597288617491
C           -6.89314605246133       -0.58611080869126       -1.25680937441294
C           -5.84937827568318       -0.92183456303698       -0.39919890256808
N           -4.87543443985144        0.02957641518468       -0.06747064806436
C           -5.11683905364862        1.30919505809227        0.39222594835974
C           -6.32280202217373        1.93531021635021        0.67287853602350
C           -6.28115220480079        3.22954763914707        1.15503201368372
C           -5.07243546379761        3.88977809894796        1.36431504146249
C           -3.86872891878571        3.26347388027408        1.11020153968925
C           -3.88464637760742        1.96260912185668        0.62529854244397
C           -2.85330437230081        1.02434305641323        0.27976371225127
C           -1.46855730207362        1.09109675329568        0.28107103596624
C           -0.73485352975019       -0.01184541101727       -0.13581075753554
C            0.73540535727500        0.02434194684238       -0.13334637980045
C            1.41013131108218        1.17483820044209       -0.56476754012553
C            2.78714681919390        1.25797165760555       -0.57693312308224
C            3.51029101299889        0.16082566429317       -0.13106358687988
C            2.85044749351292       -1.01716667334279        0.28645913309984
C            1.46566148534400       -1.08008770002803        0.28574890921274
C            3.87822668770721       -1.95895717694958        0.63268554923508
C            3.85726871866674       -3.25966720755350        1.11775827125929
C            5.05858200197606       -3.89055631458456        1.37177184981389
C            6.26975257967753       -3.23492990637005        1.16217816548250
C            6.31632468784307       -1.94088503713371        0.67991701957731
C            5.11273524327608       -1.31013848349799        0.39937175455743
N            4.87600151068611       -0.02968084008150       -0.06054497154412
C            5.85397387557450        0.91632616386058       -0.39588958185360
C            5.78987506770999        2.20441410906318        0.12805873185774
C            6.75409817155572        3.13581856274228       -0.20929726423958
C            7.79197945346642        2.79115747809244       -1.05914836017192
C            7.85990484032327        1.50865785292498       -1.57762953285112
C            6.89437087687123        0.57342464005262       -1.25479157714072
C           -1.40588280926844       -1.16384571541995       -0.56921555592639
C           -2.78251417303403       -1.25079844268410       -0.58349206463065
C           -3.50909690826872       -0.15592818824136       -0.13771701908040
C           -5.77758065062348       -2.20853840066797        0.12722092978610
C           -6.73741984902081       -3.14572114794207       -0.20652713000298
H           -8.52886820777902       -3.54147125585061       -1.30998542914318
H           -8.66192722908821       -1.26087573572812       -2.24184704274616
H           -6.93612799447818        0.40674994942319       -1.67915555021886
H           -7.26444700415819        1.42630010991264        0.53173741647351
H           -7.20692290115829        3.73931521152875        1.37823391058784
H           -5.08251059159020        4.90226879038995        1.73986143153667
H           -2.93122243805542        3.76853125256728        1.28820574676144
H           -0.96844463060343        1.98581342040103        0.62011864953410
H            0.83083359205967        2.01323873532320       -0.92262446770026
H            3.28311627779883        2.14661227115757       -0.93788962346090
H            0.96272238268396       -1.97335307152973        0.62439816832061
H            2.91779992603741       -3.76101353682962        1.29591095017710
H            5.06482926244070       -4.90304908824918        1.74739423399342
H            7.19359117764978       -3.74826674644056        1.38519918690725
H            7.25993794452485       -1.43560235550859        0.53852290037418
H            4.99189741467754        2.46255466223338        0.80815050087731
H            6.69945101492978        4.13355447652421        0.20062970466722
H            8.54561971027854        3.51990551321846       -1.31677597279370
H            8.66481878486080        1.23683555689558       -2.24450570291288
H            6.93132462448817       -0.42050257159041       -1.67520470355939
H           -0.82372990093205       -2.00045083341883       -0.92660047456156
H           -3.27561020226744       -2.14060418730153       -0.94549000555688
H           -4.97701069865503       -2.46110316752573        0.80636090269569
H           -6.67667639069616       -4.14235037233349        0.20523514145413

          :  Hamiltonian                  GFN2-xTB          :
         :: gradient norm              0.000020138525 Eh/a0 ::
         :: HOMO-LUMO gap              2.945341583014 eV    ::
         :: SCC energy               -97.062791444664 Eh    ::
         :: -> dispersion             -0.083470385331 Eh    ::
         :: repulsion energy           1.824928464759 Eh    ::

    * Orbital Energies and Occupations

         #    Occupation            Energy/Eh            Energy/eV
      -------------------------------------------------------------
         1        2.0000           -0.6722764             -18.2936
       ...           ...                  ...                  ...
        77        2.0000           -0.4161237             -11.3233
        78        2.0000           -0.4132419             -11.2449
        79        2.0000           -0.4121209             -11.2144
        80        2.0000           -0.4119830             -11.2106
        81        2.0000           -0.4094168             -11.1408
        82        2.0000           -0.4085916             -11.1183
        83        2.0000           -0.4076285             -11.0921
        84        2.0000           -0.4041100             -10.9964
        85        2.0000           -0.3936824             -10.7126
        86        2.0000           -0.3754103             -10.2154
        87        2.0000           -0.3728264             -10.1451
        88        2.0000           -0.3628170              -9.8728
        89        2.0000           -0.3503628              -9.5339 (HOMO)
        90                         -0.2421235              -6.5885 (LUMO)
        91                         -0.2418506              -6.5811
        92                         -0.2351977              -6.4001
        93                         -0.2313671              -6.2958
        94                         -0.2310463              -6.2871
        95                         -0.2310339              -6.2868
        96                         -0.2275127              -6.1909
        97                         -0.2103599              -5.7242
        98                         -0.1949660              -5.3053
        99                         -0.1832472              -4.9864
       100                         -0.1825703              -4.9680
       ...                                ...                  ...
       176                          0.7576973              20.6180
      -------------------------------------------------------------
                  HL-Gap            0.1082393 Eh            2.9453 eV

     #   Z          covCN         q      C6AA      α(0)
     1   6 C        2.919    -0.033    28.834     8.806
     2   6 C        2.920    -0.028    28.703     8.786
     3   6 C        2.922    -0.042    29.055     8.840
     4   6 C        2.913     0.065    26.538     8.447
     5   7 N        2.802    -0.044    22.096     6.981
     6   6 C        3.076     0.047    26.876     8.500
     7   6 C        2.910    -0.051    29.271     8.871
     8   6 C        2.924    -0.034    28.843     8.807
     9   6 C        2.920    -0.041    29.026     8.835
    10   6 C        2.913    -0.033    28.823     8.803
    11   6 C        3.069    -0.017    28.366     8.733
    12   6 C        3.065    -0.018    28.395     8.738
    13   6 C        2.918    -0.039    28.966     8.826
    14   6 C        2.977    -0.000    28.028     8.684
    15   6 C        2.977    -0.000    28.028     8.684
    16   6 C        2.929    -0.039    28.962     8.826
    17   6 C        2.908    -0.052    29.290     8.874
    18   6 C        3.077     0.044    26.925     8.507
    19   6 C        3.065    -0.018    28.395     8.738
    20   6 C        2.918    -0.039    28.967     8.826
    21   6 C        3.069    -0.017    28.366     8.733
    22   6 C        2.913    -0.033    28.823     8.803
    23   6 C        2.920    -0.041    29.026     8.835
    24   6 C        2.924    -0.034    28.843     8.807
    25   6 C        2.910    -0.051    29.271     8.871
    26   6 C        3.076     0.047    26.876     8.500
    27   7 N        2.802    -0.044    22.097     6.982
    28   6 C        2.913     0.065    26.538     8.447
    29   6 C        2.922    -0.042    29.053     8.839
    30   6 C        2.920    -0.028    28.702     8.785
    31   6 C        2.919    -0.033    28.834     8.806
    32   6 C        2.920    -0.028    28.703     8.786
    33   6 C        2.922    -0.042    29.055     8.840
    34   6 C        2.929    -0.039    28.963     8.826
    35   6 C        2.908    -0.052    29.291     8.874
    36   6 C        3.077     0.044    26.924     8.507
    37   6 C        2.922    -0.042    29.053     8.839
    38   6 C        2.920    -0.028    28.702     8.785
    39   1 H        0.926     0.034     2.525     2.485
    40   1 H        0.926     0.035     2.511     2.478
    41   1 H        0.926     0.040     2.445     2.445
    42   1 H        0.926     0.026     2.637     2.539
    43   1 H        0.926     0.028     2.618     2.530
    44   1 H        0.926     0.027     2.632     2.537
    45   1 H        0.926     0.030     2.587     2.515
    46   1 H        0.926     0.032     2.558     2.501
    47   1 H        0.926     0.031     2.571     2.507
    48   1 H        0.926     0.027     2.634     2.538
    49   1 H        0.926     0.032     2.558     2.501
    50   1 H        0.926     0.030     2.587     2.515
    51   1 H        0.926     0.027     2.632     2.537
    52   1 H        0.926     0.028     2.618     2.530
    53   1 H        0.926     0.026     2.637     2.539
    54   1 H        0.926     0.041     2.441     2.443
    55   1 H        0.926     0.036     2.509     2.477
    56   1 H        0.926     0.034     2.525     2.485
    57   1 H        0.926     0.035     2.511     2.478
    58   1 H        0.926     0.040     2.445     2.445
    59   1 H        0.926     0.031     2.571     2.507
    60   1 H        0.926     0.027     2.634     2.538
    61   1 H        0.926     0.041     2.441     2.443
    62   1 H        0.926     0.036     2.509     2.477

molecular dipole:
                 x           y           z       tot (Debye)
 q only:        0.001      -0.002      -0.254
   full:        0.002      -0.002      -0.294       0.746

 projected vibrational frequencies (cm⁻¹)
eigval :       -0.00    -0.00    -0.00     0.00     0.00     0.00
eigval :       13.77    20.34    24.56    46.57    52.39    62.11
eigval :       64.18    71.80    73.69    98.22   110.70   128.09
eigval :      131.84   160.20   174.59   186.96   213.80   238.82
eigval :      244.33   250.25   264.58   283.75   319.83   338.14
eigval :      348.77   380.58   380.77   381.88   395.16   399.69
eigval :      404.30   416.95   429.09   431.59   446.73   462.93
eigval :      476.40   490.61   526.30   534.79   535.77   556.87
eigval :      572.46   580.37   587.25   591.87   593.94   606.46
eigval :      610.62   618.66   626.10   655.04   670.13   672.31
eigval :      678.39   687.09   706.12   708.10   716.63   729.81
eigval :      763.25   763.62   767.82   775.44   775.68   813.37
eigval :      832.97   847.55   869.21   869.43   874.95   877.08
eigval :      882.68   884.05   893.71   900.24   900.96   904.95
eigval :      905.78   914.55   914.84   919.11   921.84   921.84
eigval :      923.33   933.14   933.34   933.37   934.30   935.82
eigval :      997.99   998.42  1013.09  1030.64  1070.93  1072.03
eigval :     1073.38  1080.69  1080.71  1118.20  1118.24  1121.75
eigval :     1125.17  1155.37  1157.73  1178.83  1178.95  1181.33
eigval :     1181.34  1183.62  1184.39  1200.19  1201.42  1212.63
eigval :     1232.93  1242.83  1249.00  1256.88  1274.37  1275.44
eigval :     1276.27  1294.51  1305.54  1318.21  1318.36  1320.27
eigval :     1346.18  1353.36  1361.03  1362.60  1364.85  1380.97
eigval :     1418.26  1422.61  1429.96  1434.86  1436.73  1440.67
eigval :     1460.34  1482.35  1483.96  1484.53  1485.40  1501.05
eigval :     1564.28  1568.91  1582.40  1582.74  1584.43  1585.98
eigval :     1596.38  1596.63  1597.52  1600.67  1613.02  1617.97
eigval :     3075.24  3075.24  3077.60  3077.88  3078.35  3078.54
eigval :     3080.38  3080.42  3080.92  3081.00  3086.06  3087.02
eigval :     3088.38  3088.91  3090.27  3090.63  3091.08  3091.38
eigval :     3094.10  3094.12  3095.09  3095.30  3098.92  3098.95

   temp. (K)  partition function   enthalpy   heat capacity  entropy
                                   cal/mol     cal/K/mol   cal/K/mol   J/K/mol
 298.15  VIB  0.559E+12            16305.397    108.490     99.615
         ROT  0.263E+08              888.752      2.981     36.933
         INT  0.147E+20            17194.149    111.471    136.548
         TR   0.103E+29             1481.254      4.968     44.402
         TOT                       18675.4030   116.4387   180.9502   757.0957

       T/K    H(0)-H(T)+PV         H(T)/Eh          T*S/Eh         G(T)/Eh
   ------------------------------------------------------------------------
    298.15    0.297611E-01    0.509476E+00    0.859753E-01    0.423500E+00
   ------------------------------------------------------------------------

         :::::::::::::::::::::::::::::::::::::::::::::::::::::
         ::                  THERMODYNAMIC                  ::
         :::::::::::::::::::::::::::::::::::::::::::::::::::::
         :: total free energy         -94.814362636783 Eh   ::
         ::.................................................::
         :: total energy              -95.237862979906 Eh   ::
         :: zero point energy           0.479714484482 Eh   ::
         :: G(RRHO) w/o ZPVE           -0.056214141359 Eh   ::
         :: G(RRHO) contrib.            0.423500343123 Eh   ::
         :::::::::::::::::::::::::::::::::::::::::::::::::::::

           -------------------------------------------------
          | TOTAL ENERGY              -95.237862979906 Eh   |
          | TOTAL ENTHALPY            -94.728387346431 Eh   |
          | TOTAL FREE ENERGY         -94.814362636783 Eh   |
          | GRADIENT NORM               0.000020131858 Eh/α |
          | HOMO-LUMO GAP               2.945341676371 eV   |
           -------------------------------------------------

 * finished run on 2025/08/29 at 11:41:02.553
