   * xtb version 6.7.1 (edcfbbe) compiled by 'albert@albert-system' on 2024-07-22

   ID    Z sym.   atoms
    1    6 C      1-4, 6-26, 28-38
    2    7 N      5, 27
    3    1 H      39-62

          program call               : xtb data2507/gas/DPhBCz/DPhBCz_gas_S0_finalOpt.xtbopt.xyz --gfn 2 --spinpol --tblite --uhf 2 --ohess vtight --parallel 40 --molden --ceasefiles --namespace data2507/gas/DPhBCz/DPhBCz_gas_T1_preOpt
 * total energy  :   -95.1297287 Eh     change       -0.1480657E-08 Eh
 * total energy  :   -95.1319009 Eh     change       -0.2172180E-02 Eh
 * total energy  :   -95.1326982 Eh     change       -0.7972966E-03 Eh
 * total energy  :   -95.1329013 Eh     change       -0.2030859E-03 Eh
 * total energy  :   -95.1331480 Eh     change       -0.2467122E-03 Eh
 * total energy  :   -95.1333879 Eh     change       -0.2399118E-03 Eh
 * total energy  :   -95.1338123 Eh     change       -0.4244556E-03 Eh
 * total energy  :   -95.1341621 Eh     change       -0.3497650E-03 Eh
 * total energy  :   -95.1344700 Eh     change       -0.3078780E-03 Eh
 * total energy  :   -95.1345999 Eh     change       -0.1299710E-03 Eh
 * total energy  :   -95.1368645 Eh     change       -0.5739306E-06 Eh
 * total energy  :   -95.1368649 Eh     change       -0.3981300E-06 Eh
 * total energy  :   -95.1368652 Eh     change       -0.2667628E-06 Eh
 * total energy  :   -95.1368655 Eh     change       -0.3121332E-06 Eh
 * total energy  :   -95.1368659 Eh     change       -0.3930262E-06 Eh
 * total energy  :   -95.1368664 Eh     change       -0.4588169E-06 Eh
 * total energy  :   -95.1368670 Eh     change       -0.5979845E-06 Eh
 * total energy  :   -95.1368677 Eh     change       -0.7186767E-06 Eh
 * total energy  :   -95.1368677 Eh     change       -0.1700715E-07 Eh
   *** GEOMETRY OPTIMIZATION CONVERGED AFTER 94 ITERATIONS ***

 final structure:
================
62
 xtb: 6.7.1 (edcfbbe)
C           -7.77654359806891       -3.01559775769597       -0.22885495409272
C           -7.90131845114686       -1.88504682823452       -1.02264811477458
C           -6.94954777280457       -0.88657792582170       -0.97171021684749
C           -5.85631849695035       -1.00816896300174       -0.11200907293680
N           -4.88929118018846       -0.00224497946995       -0.05534418907434
C           -5.14357119457302        1.35325620888054        0.08316638827848
C           -6.35398924957327        2.01324989159626        0.23125351177419
C           -6.32480048370180        3.38960335666835        0.38851421843427
C           -5.12661325627657        4.09158247406339        0.40923516210885
C           -3.91266390101290        3.43069781023548        0.29203617664010
C           -3.91814556579421        2.05648255973878        0.13487173144161
C           -2.86897358168848        1.06943510037466        0.01715705845205
C           -1.50794050961031        1.16326236254524       -0.01194001862672
C           -0.70087408422772       -0.02595448844555       -0.14131014344552
C            0.70155692181396        0.02367647311414       -0.14081713808960
C            1.41936786318904        1.27073240524775       -0.28921358129959
C            2.77563260707431        1.36115764787963       -0.27874427738052
C            3.53051082046234        0.18811772830366       -0.08807435734272
C            2.86952631844363       -1.07148511063620        0.02086893350331
C            1.50851230898094       -1.16533812255688       -0.00899591602696
C            3.91859003739574       -2.05837991652013        0.14082667300406
C            3.91295896931901       -3.43234260800987        0.30013504016585
C            5.12680980438017       -4.09309632542200        0.41910943271877
C            6.32503650136701       -3.39119387176854        0.39802425468744
C            6.35437001793944       -2.01508692696176        0.23863607040743
C            5.14407464878318       -1.35527249825684        0.08878162742939
N            4.88991949096959        0.00002825137474       -0.05199153721297
C            5.85701369011963        1.00585844812734       -0.10955160678559
C            5.73293116972404        2.14586934674031        0.68646350680547
C            6.68832135129903        3.13995001229296        0.62168211794855
C            7.77727051922340        3.01315518266760       -0.22823497603063
C            7.90260628979832        1.88137494792676       -1.02018128658751
C            6.95082095290831        0.88295738433743       -0.96832591646145
C           -1.41856797346836       -1.27324234765001       -0.28830012506979
C           -2.77483223403738       -1.36367336482765       -0.27861015939351
C           -3.52984531583622       -0.19035370323041       -0.09025065181384
C           -5.73278938976516       -2.14694733399460        0.68585492210199
C           -6.68815876406749       -3.14109754157190        0.62198132748228
H           -8.52212014900460       -3.79457830036596       -0.27405385613607
H           -8.74227596386938       -1.78670781962047       -1.69325285466541
H           -7.02877135444116       -0.02051088321579       -1.61158812214288
H           -7.29034610436467        1.47662880624060        0.23933989325544
H           -7.25564254761353        3.92550150911095        0.50165225884667
H           -5.14215244221912        5.16436967642511        0.53055203256627
H           -2.98134267640106        3.97512637936993        0.32927224736574
H           -1.04317101872958        2.12867023656830        0.09458135273054
H            0.85400687965968        2.16998593643055       -0.46945160760971
H            3.26808958170431        2.30958803514500       -0.43570612798460
H            1.04365219163787       -2.13056422719363        0.09875765624641
H            2.98159368795316       -3.97668625338147        0.33758477011389
H            5.14223609148197       -5.16569967999733        0.54205704308252
H            7.25578937460949       -3.92695275997369        0.51255429714372
H            7.29074373431523       -1.47848627930848        0.24647604815020
H            4.89796384273865        2.22940867203778        1.36591545483309
H            6.58881030595435        4.01721380600652        1.24378645857045
H            8.52285107129905        3.79209555876464       -0.27416244411866
H            8.74398886315716        1.78203404748171       -1.69010675544792
H            7.03048791161363        0.01591140964828       -1.60682586343150
H           -0.85307130921089       -2.17275387008491       -0.46679003800451
H           -3.26716466694806       -2.31234500953096       -0.43447986222720
H           -4.89826223190084       -2.22945833043034        1.36596972929957
H           -6.58906776365448       -4.01741444924540        1.24548398294290

 projected vibrational frequencies (cm⁻¹)
eigval :       -0.00    -0.00    -0.00    -0.00    -0.00     0.00
eigval :       11.38    16.87    28.73    44.60    51.91    61.58
eigval :       63.36    75.14    78.35    95.64   112.71   115.35
eigval :      125.72   153.22   171.36   171.50   208.45   232.00
eigval :      236.14   254.50   259.81   272.08   274.58   327.27
eigval :      335.80   361.15   378.29   381.56   383.69   386.62
eigval :      393.19   398.40   406.02   411.99   437.54   456.35
eigval :      466.25   484.53   515.56   521.00   530.53   544.02
eigval :      558.85   572.65   577.34   585.14   587.69   589.93
eigval :      596.15   609.06   610.71   640.10   648.04   649.76
eigval :      661.65   666.95   695.01   697.42   701.57   719.47
eigval :      755.53   756.04   758.66   768.44   769.61   774.64
eigval :      775.68   780.67   785.59   841.66   863.20   863.31
eigval :      873.45   874.63   877.93   884.09   888.13   890.58
eigval :      897.37   897.92   900.53   900.81   916.51   917.72
eigval :      917.75   919.34   927.43   927.50   930.40   930.46
eigval :      963.02   988.77   990.54   997.52  1007.17  1069.42
eigval :     1071.93  1075.11  1076.56  1076.68  1112.04  1119.02
eigval :     1119.29  1125.76  1147.76  1165.00  1168.61  1177.25
eigval :     1178.29  1179.20  1179.25  1187.68  1189.45  1199.12
eigval :     1201.99  1234.29  1235.96  1243.65  1256.74  1262.65
eigval :     1271.82  1274.88  1281.81  1293.16  1312.12  1324.01
eigval :     1324.23  1337.26  1340.76  1348.22  1351.44  1374.56
eigval :     1375.15  1405.60  1418.88  1424.97  1426.08  1435.05
eigval :     1437.13  1449.00  1463.98  1466.43  1471.93  1474.41
eigval :     1506.47  1510.16  1535.45  1535.92  1536.38  1566.41
eigval :     1568.55  1580.11  1580.94  1586.41  1586.49  1607.36
eigval :     3075.84  3076.01  3077.98  3077.99  3078.50  3078.55
eigval :     3079.88  3079.89  3084.41  3084.45  3090.69  3090.71
eigval :     3092.18  3092.25  3093.82  3093.84  3097.38  3097.63
eigval :     3099.42  3099.91  3105.07  3107.61  3117.84  3119.57

   temp. (K)  partition function   enthalpy   heat capacity  entropy
                                   cal/mol     cal/K/mol   cal/K/mol   J/K/mol
 298.15  VIB  0.127E+13            16735.569    111.029    102.440
         ROT  0.264E+08              888.752      2.981     36.944
         INT  0.336E+20            17624.321    114.010    139.384
         TR   0.103E+29             1481.254      4.968     44.402
         TOT                       19105.5749   118.9777   183.7857   768.9592

       T/K    H(0)-H(T)+PV         H(T)/Eh          T*S/Eh         G(T)/Eh
   ------------------------------------------------------------------------
    298.15    0.304467E-01    0.505086E+00    0.873225E-01    0.417763E+00
   ------------------------------------------------------------------------

         :::::::::::::::::::::::::::::::::::::::::::::::::::::
         ::                  THERMODYNAMIC                  ::
         :::::::::::::::::::::::::::::::::::::::::::::::::::::
         :: total free energy         -94.719104433791 Eh   ::
         ::.................................................::
         :: total energy              -95.136867665860 Eh   ::
         :: zero point energy           0.474639060122 Eh   ::
         :: G(RRHO) w/o ZPVE           -0.056875828053 Eh   ::
         :: G(RRHO) contrib.            0.417763232068 Eh   ::
         :::::::::::::::::::::::::::::::::::::::::::::::::::::

           -------------------------------------------------
          | TOTAL ENERGY              -95.136867665860 Eh   |
          | TOTAL ENTHALPY            -94.631781934076 Eh   |
          | TOTAL FREE ENERGY         -94.719104433791 Eh   |
          | GRADIENT NORM               0.000063576396 Eh/α |
           -------------------------------------------------

 * finished run on 2025/08/29 at 11:41:11.921
