   * xtb version 6.7.1 (edcfbbe) compiled by 'albert@albert-system' on 2024-07-22

   ID    Z sym.   atoms
    1    6 C      1-4, 6-26, 28-38
    2    7 N      5, 27
    3    1 H      39-62

          program call               : xtb data2507/gas/DPhBCz/DPhBCz.xyz --gfn 2 --ohess vtight --parallel 40 --molden --ceasefiles --namespace data2507/gas/DPhBCz/DPhBCz_gas_S0_preOpt
          :  Hamiltonian                  GFN2-xTB          :
 * total energy  :   -95.2211628 Eh     change       -0.9087699E-09 Eh
 * total energy  :   -95.2329700 Eh     change       -0.1180720E-01 Eh
 * total energy  :   -95.2356257 Eh     change       -0.2655718E-02 Eh
 * total energy  :   -95.2362862 Eh     change       -0.6604723E-03 Eh
 * total energy  :   -95.2367084 Eh     change       -0.4222114E-03 Eh
 * total energy  :   -95.2368533 Eh     change       -0.1448976E-03 Eh
 * total energy  :   -95.2369774 Eh     change       -0.1241066E-03 Eh
 * total energy  :   -95.2371029 Eh     change       -0.1254864E-03 Eh
 * total energy  :   -95.2372228 Eh     change       -0.1198570E-03 Eh
 * total energy  :   -95.2373223 Eh     change       -0.9951995E-04 Eh
 * total energy  :   -95.2378034 Eh     change       -0.7126768E-06 Eh
 * total energy  :   -95.2378041 Eh     change       -0.7024663E-06 Eh
 * total energy  :   -95.2378048 Eh     change       -0.6941341E-06 Eh
 * total energy  :   -95.2378054 Eh     change       -0.6847119E-06 Eh
 * total energy  :   -95.2378061 Eh     change       -0.6769573E-06 Eh
 * total energy  :   -95.2378068 Eh     change       -0.6683091E-06 Eh
 * total energy  :   -95.2378075 Eh     change       -0.6609240E-06 Eh
 * total energy  :   -95.2378081 Eh     change       -0.6527278E-06 Eh
 * total energy  :   -95.2378081 Eh     change       -0.6416144E-08 Eh
   *** GEOMETRY OPTIMIZATION CONVERGED AFTER 152 ITERATIONS ***

 final structure:
================
62
 xtb: 6.7.1 (edcfbbe)
C           -7.87372687860494       -2.81340763130251       -0.98727703538615
C           -7.90008791572181       -1.51041740748514       -1.45614059775018
C           -6.90600879581811       -0.61954564994973       -1.09692215771598
C           -5.87842264508626       -1.02788008334794       -0.25113326229846
N           -4.87110692453098       -0.12629116633407        0.11779560108449
C           -5.06840120968704        1.14667013623094        0.61564688738799
C           -6.25180165461589        1.80034588534121        0.92787965976342
C           -6.16553613066352        3.07687991242846        1.44970722700880
C           -4.93506119642390        3.69298965988232        1.66676764939871
C           -3.75372933065323        3.03879881297051        1.38007566012949
C           -3.81468961987851        1.75485306590150        0.85526758599807
C           -2.81627136022091        0.79577092256679        0.47261161574254
C           -1.43036042108635        0.82169007161539        0.45856584481524
C           -0.73546593463892       -0.29338144255707        0.00969012483982
C            0.73547258903299       -0.29338362914095       -0.00968957013801
C            1.44388357981637       -1.41608151444206        0.43903694993841
C            2.82297107963245       -1.45951795463274        0.44471775963607
C            3.51169163238568       -0.35281367130310       -0.03094694095169
C            2.81628033493296        0.79576056194707       -0.47261937952052
C            1.43036953333474        0.82168402486038       -0.45857092084895
C            3.81470064668090        1.75484003495727       -0.85527607982838
C            3.75374161943230        3.03878577799852       -1.38008401364540
C            4.93507421779935        3.69297575137866       -1.66677472576113
C            6.16554823453975        3.07686500909880       -1.44971203001964
C            6.25181243665207        1.80033035727318       -0.92788543947159
C            5.06841121116225        1.14665456033357       -0.61565566106382
N            4.87111400253565       -0.12630651734666       -0.11780496736090
C            5.87842270504425       -1.02790159029770        0.25112834824242
C            5.85660322106684       -2.33620397002496       -0.22371210457869
C            6.84922318701346       -3.22292040062686        0.15006594175613
C            7.87369659518477       -2.81345260908393        0.98729758381561
C            7.90007044626395       -1.51046076241362        1.45615590746232
C            6.90600693604384       -0.61957683322279        1.09692403776398
C           -1.44387932467406       -1.41607885400578       -0.43903367611519
C           -2.82296694716917       -1.45951064953328       -0.44471853961235
C           -3.51168520043624       -0.35280259906543        0.03094068021026
C           -5.85661372678259       -2.33618180272131        0.22370917226110
C           -6.84924886981711       -3.22288657889142       -0.15005649971481
H           -8.64929485019678       -3.50760998089556       -1.27363637763414
H           -8.69456262675038       -1.18778688993229       -2.11281250269197
H           -6.91050010202387        0.39048695663513       -1.47881710340448
H           -7.20998222709243        1.32484855483448        0.78105115366645
H           -7.07292111048708        3.60722079512449        1.69895457238455
H           -4.91027142717413        4.69266319213770        2.07455308295785
H           -2.79935231555208        3.50882011265332        1.56411058557936
H           -0.89806521426832        1.69298577320848        0.80947233552600
H            0.88965879153130       -2.26328442226674        0.81581639060682
H            3.34603165739336       -2.32543557978346        0.82219790667407
H            0.89807646124400        1.69298108809524       -0.80947723224965
H            2.79936477663426        3.50880615375002       -1.56412232945838
H            4.91028563086950        4.69264873150149       -2.07456165281231
H            7.07293392143893        3.60720640428948       -1.69895573802644
H            7.20999288116624        1.32483369087830       -0.78105395144011
H            5.06901774450256       -2.64542686562559       -0.89453507932351
H            6.82714557852122       -4.23685759624517       -0.22138157032571
H            8.64925279224255       -3.50766402857550        1.27366687881893
H            8.69454364516497       -1.18783806331774        2.11283345448113
H            6.91050766550074        0.39045693132284        1.47881573586644
H           -0.88965607537048       -2.26328450716112       -0.81580924305722
H           -3.34602930669960       -2.32542753821316       -0.82219788014198
H           -5.06902561124279       -2.64541280379805        0.89452526998816
H           -6.82717980139567       -4.23682333568644        0.22139265854151

          :  Hamiltonian                  GFN2-xTB          :
         :: gradient norm              0.000065062434 Eh/a0 ::
         :: HOMO-LUMO gap              2.950173636384 eV    ::
         :: SCC energy               -97.062809121393 Eh    ::
         :: -> dispersion             -0.083455432874 Eh    ::
         :: repulsion energy           1.825001007368 Eh    ::

    * Orbital Energies and Occupations

         #    Occupation            Energy/Eh            Energy/eV
      -------------------------------------------------------------
         1        2.0000           -0.6721721             -18.2907
       ...           ...                  ...                  ...
        77        2.0000           -0.4168849             -11.3440
        78        2.0000           -0.4129602             -11.2372
        79        2.0000           -0.4122587             -11.2181
        80        2.0000           -0.4109392             -11.1822
        81        2.0000           -0.4102037             -11.1622
        82        2.0000           -0.4082571             -11.1092
        83        2.0000           -0.4078805             -11.0990
        84        2.0000           -0.4038903             -10.9904
        85        2.0000           -0.3936847             -10.7127
        86        2.0000           -0.3751603             -10.2086
        87        2.0000           -0.3728447             -10.1456
        88        2.0000           -0.3625622              -9.8658
        89        2.0000           -0.3505215              -9.5382 (HOMO)
        90                         -0.2421046              -6.5880 (LUMO)
        91                         -0.2416816              -6.5765
        92                         -0.2346367              -6.3848
        93                         -0.2315413              -6.3006
        94                         -0.2310680              -6.2877
        95                         -0.2310665              -6.2876
        96                         -0.2271680              -6.1816
        97                         -0.2104338              -5.7262
        98                         -0.1945748              -5.2946
        99                         -0.1831057              -4.9826
       100                         -0.1824695              -4.9652
       ...                                ...                  ...
       176                          0.7587022              20.6453
      -------------------------------------------------------------
                  HL-Gap            0.1084169 Eh            2.9502 eV

     #   Z          covCN         q      C6AA      α(0)
     1   6 C        2.919    -0.034    28.835     8.806
     2   6 C        2.920    -0.028    28.702     8.786
     3   6 C        2.922    -0.042    29.055     8.839
     4   6 C        2.913     0.065    26.537     8.447
     5   7 N        2.802    -0.045    22.099     6.982
     6   6 C        3.076     0.047    26.877     8.500
     7   6 C        2.910    -0.051    29.270     8.871
     8   6 C        2.924    -0.034    28.843     8.807
     9   6 C        2.920    -0.041    29.024     8.835
    10   6 C        2.913    -0.033    28.821     8.803
    11   6 C        3.068    -0.017    28.365     8.733
    12   6 C        3.065    -0.018    28.390     8.737
    13   6 C        2.918    -0.039    28.962     8.825
    14   6 C        2.977    -0.000    28.027     8.684
    15   6 C        2.977    -0.000    28.027     8.684
    16   6 C        2.929    -0.039    28.963     8.826
    17   6 C        2.908    -0.052    29.294     8.875
    18   6 C        3.076     0.044    26.925     8.507
    19   6 C        3.065    -0.018    28.390     8.737
    20   6 C        2.918    -0.039    28.962     8.825
    21   6 C        3.068    -0.017    28.365     8.733
    22   6 C        2.913    -0.033    28.821     8.803
    23   6 C        2.920    -0.041    29.024     8.835
    24   6 C        2.924    -0.034    28.843     8.807
    25   6 C        2.910    -0.051    29.270     8.871
    26   6 C        3.076     0.047    26.877     8.500
    27   7 N        2.802    -0.045    22.099     6.982
    28   6 C        2.913     0.065    26.537     8.447
    29   6 C        2.922    -0.042    29.055     8.840
    30   6 C        2.920    -0.028    28.703     8.786
    31   6 C        2.919    -0.034    28.835     8.806
    32   6 C        2.920    -0.028    28.702     8.786
    33   6 C        2.922    -0.042    29.055     8.839
    34   6 C        2.929    -0.039    28.963     8.826
    35   6 C        2.908    -0.052    29.294     8.875
    36   6 C        3.076     0.044    26.925     8.507
    37   6 C        2.922    -0.042    29.055     8.840
    38   6 C        2.920    -0.028    28.703     8.786
    39   1 H        0.926     0.034     2.526     2.485
    40   1 H        0.926     0.035     2.510     2.478
    41   1 H        0.926     0.040     2.444     2.445
    42   1 H        0.926     0.026     2.639     2.540
    43   1 H        0.926     0.028     2.617     2.530
    44   1 H        0.926     0.027     2.629     2.536
    45   1 H        0.926     0.030     2.580     2.512
    46   1 H        0.926     0.033     2.550     2.497
    47   1 H        0.926     0.030     2.584     2.514
    48   1 H        0.926     0.027     2.636     2.539
    49   1 H        0.926     0.033     2.550     2.497
    50   1 H        0.926     0.030     2.580     2.512
    51   1 H        0.926     0.027     2.629     2.536
    52   1 H        0.926     0.028     2.617     2.530
    53   1 H        0.926     0.026     2.639     2.540
    54   1 H        0.926     0.040     2.443     2.444
    55   1 H        0.926     0.035     2.511     2.478
    56   1 H        0.926     0.034     2.526     2.485
    57   1 H        0.926     0.035     2.510     2.478
    58   1 H        0.926     0.040     2.444     2.445
    59   1 H        0.926     0.030     2.584     2.514
    60   1 H        0.926     0.027     2.636     2.539
    61   1 H        0.926     0.040     2.443     2.444
    62   1 H        0.926     0.035     2.511     2.478

molecular dipole:
                 x           y           z       tot (Debye)
 q only:       -0.000      -0.657       0.000
   full:       -0.000      -0.769       0.000       1.954

 projected vibrational frequencies (cm⁻¹)
eigval :       -0.00    -0.00    -0.00     0.00     0.00     0.00
eigval :       14.54    17.64    25.12    47.42    56.12    62.25
eigval :       64.06    65.82    71.83   100.08   105.49   127.52
eigval :      135.96   161.37   170.97   193.71   214.65   231.64
eigval :      249.42   264.80   272.67   272.69   306.82   330.42
eigval :      358.98   376.10   380.92   380.92   396.10   398.43
eigval :      405.11   418.20   426.70   434.69   437.61   473.40
eigval :      478.15   481.14   528.99   535.72   536.49   557.06
eigval :      573.15   579.49   586.95   593.20   593.42   607.37
eigval :      608.28   619.72   626.60   655.16   668.96   674.56
eigval :      677.68   686.99   706.58   707.73   716.16   730.74
eigval :      763.24   763.40   770.51   775.60   775.82   813.80
eigval :      830.07   846.92   868.73   869.82   872.18   881.22
eigval :      882.71   885.48   893.73   900.25   900.72   904.85
eigval :      904.94   911.60   917.50   918.38   921.89   921.96
eigval :      923.19   933.06   933.25   933.39   934.18   935.79
eigval :      998.00   998.39  1013.01  1030.47  1070.52  1072.10
eigval :     1073.64  1080.70  1080.72  1118.20  1118.22  1121.52
eigval :     1124.70  1154.99  1159.19  1178.78  1178.85  1181.34
eigval :     1181.34  1183.52  1184.82  1201.36  1201.46  1212.85
eigval :     1228.23  1244.42  1247.88  1256.84  1274.98  1275.30
eigval :     1281.37  1289.17  1304.43  1318.34  1318.39  1321.28
eigval :     1347.77  1352.16  1361.66  1362.91  1364.00  1376.47
eigval :     1418.32  1421.38  1429.23  1435.32  1436.80  1439.18
eigval :     1470.28  1482.28  1484.16  1485.63  1485.64  1494.54
eigval :     1564.62  1569.49  1582.38  1582.92  1584.50  1585.77
eigval :     1596.39  1596.70  1597.69  1600.72  1613.26  1617.90
eigval :     3075.29  3075.29  3076.22  3078.04  3078.23  3078.67
eigval :     3080.36  3080.42  3080.96  3081.05  3085.39  3087.44
eigval :     3088.28  3088.89  3089.87  3090.47  3090.69  3090.90
eigval :     3094.05  3094.09  3095.13  3095.46  3098.86  3098.90

   temp. (K)  partition function   enthalpy   heat capacity  entropy
                                   cal/mol     cal/K/mol   cal/K/mol   J/K/mol
 298.15  VIB  0.600E+12            16309.347    108.500     99.740
         ROT  0.260E+08              888.752      2.981     36.914
         INT  0.156E+20            17198.099    111.481    136.654
         TR   0.103E+29             1481.254      4.968     44.402
         TOT                       18679.3531   116.4493   181.0562   757.5392

       T/K    H(0)-H(T)+PV         H(T)/Eh          T*S/Eh         G(T)/Eh
   ------------------------------------------------------------------------
    298.15    0.297674E-01    0.509461E+00    0.860257E-01    0.423435E+00
   ------------------------------------------------------------------------

         :::::::::::::::::::::::::::::::::::::::::::::::::::::
         ::                  THERMODYNAMIC                  ::
         :::::::::::::::::::::::::::::::::::::::::::::::::::::
         :: total free energy         -94.814373194739 Eh   ::
         ::.................................................::
         :: total energy              -95.237808114025 Eh   ::
         :: zero point energy           0.479693129227 Eh   ::
         :: G(RRHO) w/o ZPVE           -0.056258209940 Eh   ::
         :: G(RRHO) contrib.            0.423434919287 Eh   ::
         :::::::::::::::::::::::::::::::::::::::::::::::::::::

           -------------------------------------------------
          | TOTAL ENERGY              -95.237808114025 Eh   |
          | TOTAL ENTHALPY            -94.728347540782 Eh   |
          | TOTAL FREE ENERGY         -94.814373194739 Eh   |
          | GRADIENT NORM               0.000065062291 Eh/α |
          | HOMO-LUMO GAP               2.950173696917 eV   |
           -------------------------------------------------

 * finished run on 2025/08/29 at 11:38:47.906
