   * xtb version 6.7.1 (edcfbbe) compiled by 'albert@albert-system' on 2024-07-22

   ID    Z sym.   atoms
    1    8 O      1, 18
    2    6 C      2-10, 12-17, 19-26, 28, 30-35
    3    7 N      11, 27, 29
    4    1 H      36-56

          program call               : xtb data2507/toluene/MPA/MPA_toluene_S0_finalOpt.xtbopt.xyz --gfn 2 --uhf 2 --gbsa toluene --ohess vtight --parallel 40 --molden --ceasefiles --namespace data2507/toluene/MPA/MPA_toluene_T1_preOpt
      * Solvation model:               GBSA
        Solvent                        toluene
        Solvent mass                       9.2140E+01 g/mol
          :  Hamiltonian                  GFN2-xTB          :
 * total energy  :   -91.8198665 Eh     change       -0.6216567E-08 Eh
 * total energy  :   -91.8236962 Eh     change       -0.3829695E-02 Eh
 * total energy  :   -91.8247163 Eh     change       -0.1020123E-02 Eh
 * total energy  :   -91.8248776 Eh     change       -0.1612871E-03 Eh
 * total energy  :   -91.8250776 Eh     change       -0.2000057E-03 Eh
 * total energy  :   -91.8252054 Eh     change       -0.1278237E-03 Eh
 * total energy  :   -91.8253423 Eh     change       -0.1368219E-03 Eh
 * total energy  :   -91.8254449 Eh     change       -0.1026467E-03 Eh
 * total energy  :   -91.8255319 Eh     change       -0.8698609E-04 Eh
 * total energy  :   -91.8256119 Eh     change       -0.8004258E-04 Eh
 * total energy  :   -91.8262846 Eh     change       -0.1312324E-05 Eh
 * total energy  :   -91.8262860 Eh     change       -0.1382117E-05 Eh
 * total energy  :   -91.8262876 Eh     change       -0.1675846E-05 Eh
 * total energy  :   -91.8262894 Eh     change       -0.1770304E-05 Eh
 * total energy  :   -91.8262909 Eh     change       -0.1533754E-05 Eh
 * total energy  :   -91.8262922 Eh     change       -0.1247089E-05 Eh
 * total energy  :   -91.8262934 Eh     change       -0.1207707E-05 Eh
 * total energy  :   -91.8262934 Eh     change        0.5938176E-08 Eh
 * total energy  :   -91.8262934 Eh     change       -0.1340786E-07 Eh
   *** GEOMETRY OPTIMIZATION CONVERGED AFTER 69 ITERATIONS ***

 final structure:
================
56
 xtb: 6.7.1 (edcfbbe)
O            4.76996447018300       -0.96324730246570        2.29635929390917
C            5.35026976791327       -0.15443835091892        1.56563513681646
C            5.04541030892265        1.33165101668608        1.70604095586682
C            3.98275199739343        1.55624824004482        0.67284625022120
C            2.70434607998459        1.08023514986703        0.84845283298035
C            1.76297450596728        1.27891342274784       -0.18256430792949
C            0.38834878274566        0.89131948937123       -0.12172835151311
C           -0.45981608527670        1.18148217911831       -1.21639737936889
C           -1.78706364211318        0.84297724176554       -1.20286936552481
C           -2.33029515522304        0.18578182712128       -0.09315234450989
N           -3.70341697061133       -0.16894648314325       -0.07091243700408
C           -4.67557155695929        0.80871733825100        0.02943001375141
C           -4.35884651172625        2.16548265061397        0.13020302580391
C           -5.35961102426091        3.11133917626781        0.22905473413016
C           -6.69544892125616        2.72965503856041        0.23724042444999
C           -7.03123261625954        1.39027097778527        0.15853427560264
C           -6.03378352019504        0.43090943500887        0.05872729943794
O           -6.41896624493248       -0.87367207335215        0.00366781523626
C           -5.45218998458173       -1.82701901205048       -0.09451288077036
C           -5.86113429028670       -3.15134309720608       -0.15735779955331
C           -4.92139031396106       -4.15895347661295       -0.27791776397207
C           -3.57035208499389       -3.84251740421074       -0.34844588100873
C           -3.15195869351590       -2.52846245544577       -0.28556282205475
C           -4.08224708022042       -1.49629698203167       -0.14241637724500
C           -1.51011243349210       -0.12159662095294        0.99618703313017
C           -0.18255852530811        0.22699180805363        0.98558530827923
N            2.19393950842898        1.89995590369035       -1.32455274066867
C            3.42686301541400        2.29979903267053       -1.41210011789443
N            4.34853640189522        2.18111511135683       -0.47350111265292
C            6.28513371607595       -0.57888605122911        0.52339053319424
C            6.67732817380704       -1.92594487002773        0.50494620046619
C            7.57846418671920       -2.39062377801840       -0.42804818884160
C            8.10625173223827       -1.52313697644530       -1.37465109520042
C            7.71799594294865       -0.19136953715703       -1.37720389845502
C            6.82338721703941        0.28492705551200       -0.43893491388535
H            5.91296411481058        1.95903952394421        1.51748724821013
H            4.65413107328847        1.51165743886688        2.70860285370927
H            2.44817025692408        0.56697483537267        1.76138287875169
H           -0.02514982438108        1.67955695890244       -2.06892827587941
H           -2.41980072374854        1.06712542165050       -2.04928553858220
H           -3.32309538557091        2.46405604334394        0.13530692010225
H           -5.09505065206621        4.15429678154774        0.30391324857421
H           -7.47300553534910        3.47267315466180        0.31338866524268
H           -8.05797674151218        1.06187234577069        0.17583340996821
H           -6.91710781622092       -3.36426712027597       -0.11419962918223
H           -5.24201918838096       -5.18727473817595       -0.32500629729908
H           -2.83663482079914       -4.62566039473912       -0.45663127365786
H           -2.10353028812211       -2.28602172149798       -0.35021892375555
H           -1.93407837113787       -0.62497398861448        1.85318172955298
H            0.42609776705583       -0.01618347148461        1.84198150569283
H            3.73016909365120        2.78288886982219       -2.33314651619735
H            6.25423202058034       -2.58643800969866        1.24869364863074
H            7.87194730158410       -3.43053852643222       -0.42213216156580
H            8.81290676360685       -1.88438683508641       -2.10719695591918
H            8.11984089952155        0.48393284086671       -2.11904569035924
H            6.51694060570067        1.31816963524392       -0.47760001332340

          :  Hamiltonian                  GFN2-xTB          :
         :: gradient norm              0.000118464758 Eh/a0 ::
         :: HOMO-LUMO gap              0.356558339689 eV    ::
         :: SCC energy               -93.360743534439 Eh    ::
         :: -> dispersion             -0.070998294021 Eh    ::
         :: -> Gsolv                  -0.052364646202 Eh    ::
         :: repulsion energy           1.534450141793 Eh    ::

    * Orbital Energies and Occupations

         #    Occupation            Energy/Eh            Energy/eV
      -------------------------------------------------------------
         1        2.0000           -0.7650724             -20.8187
       ...           ...                  ...                  ...
        73        2.0000           -0.4317839             -11.7494
        74        2.0000           -0.4313891             -11.7387
        75        2.0000           -0.4193230             -11.4104
        76        2.0000           -0.4158224             -11.3151
        77        2.0000           -0.4144615             -11.2781
        78        2.0000           -0.4043819             -11.0038
        79        2.0000           -0.4035694             -10.9817
        80        2.0000           -0.4000133             -10.8849
        81        2.0000           -0.3975056             -10.8167
        82        2.0000           -0.3810647             -10.3693
        83        1.7221           -0.3690677             -10.0428
        84        1.2779           -0.3672534              -9.9935
        85        0.9990           -0.2841973              -7.7334 (HOMO)
        86        0.0010           -0.2710939              -7.3768 (LUMO)
        87        0.0000           -0.2671167              -7.2686
        88                         -0.2531662              -6.8890
        89                         -0.2396775              -6.5220
        90                         -0.2390858              -6.5059
        91                         -0.2280553              -6.2057
        92                         -0.2224214              -6.0524
        93                         -0.2210662              -6.0155
        94                         -0.2084636              -5.6726
        95                         -0.1840088              -5.0071
        96                         -0.1295072              -3.5241
       ...                                ...                  ...
       161                          0.6760569              18.3964
      -------------------------------------------------------------
                  HL-Gap            0.0131035 Eh            0.3566 eV

     #   Z          covCN         q      C6AA      α(0)
     1   8 O        0.857    -0.478    23.295     6.471
     2   6 C        2.846     0.210    23.567     7.956
     3   6 C        3.810    -0.083    22.071     6.687
     4   6 C        2.977     0.103    25.711     8.317
     5   6 C        2.910    -0.059    29.466     8.901
     6   6 C        2.950     0.075    26.331     8.416
     7   6 C        2.972    -0.006    28.174     8.707
     8   6 C        2.925    -0.036    28.906     8.817
     9   6 C        2.914    -0.040    28.992     8.829
    10   6 C        2.924     0.030    27.324     8.572
    11   7 N        2.752    -0.001    21.275     6.850
    12   6 C        2.927     0.047    26.945     8.513
    13   6 C        2.919    -0.046    29.135     8.851
    14   6 C        2.917    -0.025    28.633     8.775
    15   6 C        2.919    -0.024    28.602     8.770
    16   6 C        2.916    -0.049    29.207     8.862
    17   6 C        2.886     0.134    25.061     8.207
    18   8 O        1.710    -0.209    17.482     5.645
    19   6 C        2.886     0.134    25.062     8.207
    20   6 C        2.915    -0.049    29.208     8.862
    21   6 C        2.919    -0.024    28.602     8.770
    22   6 C        2.917    -0.025    28.634     8.775
    23   6 C        2.919    -0.046    29.130     8.851
    24   6 C        2.927     0.047    26.945     8.513
    25   6 C        2.915    -0.040    28.987     8.829
    26   6 C        2.919    -0.042    29.031     8.836
    27   7 N        1.842    -0.258    27.569     7.781
    28   6 C        2.863     0.156    24.612     8.132
    29   7 N        1.838    -0.287    28.296     7.883
    30   6 C        2.968    -0.024    28.606     8.773
    31   6 C        2.926    -0.025    28.616     8.773
    32   6 C        2.916    -0.031    28.778     8.797
    33   6 C        2.919    -0.030    28.755     8.794
    34   6 C        2.917    -0.030    28.756     8.794
    35   6 C        2.919    -0.037    28.911     8.817
    36   1 H        0.925     0.058     2.217     2.329
    37   1 H        0.924     0.052     2.295     2.369
    38   1 H        0.926     0.032     2.562     2.503
    39   1 H        0.926     0.051     2.303     2.373
    40   1 H        0.926     0.044     2.401     2.423
    41   1 H        0.926     0.063     2.165     2.301
    42   1 H        0.926     0.063     2.161     2.299
    43   1 H        0.926     0.066     2.129     2.282
    44   1 H        0.926     0.072     2.064     2.247
    45   1 H        0.926     0.072     2.062     2.246
    46   1 H        0.926     0.066     2.131     2.283
    47   1 H        0.926     0.062     2.172     2.305
    48   1 H        0.926     0.061     2.182     2.310
    49   1 H        0.926     0.040     2.448     2.446
    50   1 H        0.926     0.033     2.550     2.497
    51   1 H        0.925     0.033     2.548     2.496
    52   1 H        0.926     0.037     2.493     2.469
    53   1 H        0.926     0.035     2.510     2.478
    54   1 H        0.926     0.038     2.476     2.460
    55   1 H        0.926     0.037     2.493     2.469
    56   1 H        0.926     0.050     2.317     2.380

molecular dipole:
                 x           y           z       tot (Debye)
 q only:       -6.567      -0.223      -1.079
   full:       -6.419      -0.245      -0.865      16.475

 projected vibrational frequencies (cm⁻¹)
eigval :       -0.00    -0.00    -0.00    -0.00     0.00     0.00
eigval :        9.78    10.77    21.50    32.67    35.35    46.04
eigval :       55.68    63.29    77.80    87.01   105.05   112.39
eigval :      138.31   150.38   167.79   175.11   201.83   216.20
eigval :      242.20   258.40   273.43   292.66   310.93   365.25
eigval :      370.52   373.48   378.92   380.63   389.80   394.17
eigval :      414.87   420.54   434.42   439.48   452.30   464.06
eigval :      479.61   493.42   502.83   530.44   534.28   548.38
eigval :      573.45   578.00   583.53   586.18   607.30   627.01
eigval :      632.80   654.20   666.65   671.84   677.55   678.73
eigval :      681.58   736.27   746.42   762.30   775.78   779.66
eigval :      792.04   800.46   822.34   837.52   856.72   863.93
eigval :      867.00   869.89   871.30   892.00   894.87   895.60
eigval :      904.99   906.93   908.86   910.50   912.96   921.70
eigval :      921.90   924.88   928.41   939.92   967.09   981.42
eigval :      994.08  1026.11  1047.62  1079.07  1080.34  1080.80
eigval :     1102.18  1114.87  1119.48  1121.16  1125.35  1164.29
eigval :     1168.07  1171.04  1176.69  1177.92  1189.31  1194.86
eigval :     1207.84  1209.45  1215.18  1230.19  1233.85  1247.52
eigval :     1249.09  1250.81  1276.53  1282.99  1296.97  1300.89
eigval :     1318.04  1320.46  1329.29  1329.58  1339.99  1344.32
eigval :     1369.17  1409.89  1410.82  1421.81  1424.15  1427.88
eigval :     1435.59  1441.62  1447.45  1458.14  1466.63  1477.48
eigval :     1509.03  1544.66  1549.40  1556.17  1556.37  1562.83
eigval :     1577.37  1581.66  1595.44  2983.92  3023.65  3033.88
eigval :     3068.82  3071.39  3076.02  3078.23  3079.49  3087.60
eigval :     3094.38  3099.67  3099.79  3100.47  3102.50  3103.14
eigval :     3106.70  3107.28  3114.85  3115.57  3118.07  3118.48

   temp. (K)  partition function   enthalpy   heat capacity  entropy
                                   cal/mol     cal/K/mol   cal/K/mol   J/K/mol
 298.15  VIB  0.556E+13            16003.194    101.471     99.771
         ROT  0.407E+08              888.752      2.981     37.799
         INT  0.226E+21            16891.946    104.451    137.570
         TR   0.941E+28             1481.254      4.968     44.218
         TOT                       18373.1999   109.4196   181.7876   760.5995

       T/K    H(0)-H(T)+PV         H(T)/Eh          T*S/Eh         G(T)/Eh
   ------------------------------------------------------------------------
    298.15    0.292796E-01    0.448435E+00    0.863732E-01    0.362062E+00
   ------------------------------------------------------------------------

         :::::::::::::::::::::::::::::::::::::::::::::::::::::
         ::                  THERMODYNAMIC                  ::
         :::::::::::::::::::::::::::::::::::::::::::::::::::::
         :: total free energy         -91.464231265086 Eh   ::
         ::.................................................::
         :: total energy              -91.826293394865 Eh   ::
         :: zero point energy           0.419155742633 Eh   ::
         :: G(RRHO) w/o ZPVE           -0.057093612853 Eh   ::
         :: G(RRHO) contrib.            0.362062129780 Eh   ::
         :::::::::::::::::::::::::::::::::::::::::::::::::::::

           -------------------------------------------------
          | TOTAL ENERGY              -91.826293394865 Eh   |
          | TOTAL ENTHALPY            -91.377858094438 Eh   |
          | TOTAL FREE ENERGY         -91.464231265086 Eh   |
          | GRADIENT NORM               0.000118793835 Eh/α |
          | HOMO-LUMO GAP               0.356563714756 eV   |
           -------------------------------------------------

 * finished run on 2025/07/20 at 12:53:26.613
