   * xtb version 6.7.1 (edcfbbe) compiled by 'albert@albert-system' on 2024-07-22

   ID    Z sym.   atoms
    1    8 O      1, 18
    2    6 C      2-10, 12-17, 19-26, 28, 30-35
    3    7 N      11, 27, 29
    4    1 H      36-56

          program call               : xtb data2507/toluene/MPA/MPA.xyz --gfn 2 --gbsa toluene --ohess vtight --parallel 40 --molden --ceasefiles --namespace data2507/toluene/MPA/MPA_toluene_S0_preOpt
      * Solvation model:               GBSA
        Solvent                        toluene
        Solvent mass                       9.2140E+01 g/mol
          :  Hamiltonian                  GFN2-xTB          :
 * total energy  :   -91.8839321 Eh     change       -0.3259984E-08 Eh
 * total energy  :   -91.8922368 Eh     change       -0.8304720E-02 Eh
 * total energy  :   -91.8945119 Eh     change       -0.2275079E-02 Eh
 * total energy  :   -91.8951974 Eh     change       -0.6854731E-03 Eh
 * total energy  :   -91.8956523 Eh     change       -0.4549079E-03 Eh
 * total energy  :   -91.8957877 Eh     change       -0.1354772E-03 Eh
 * total energy  :   -91.8958596 Eh     change       -0.7188507E-04 Eh
 * total energy  :   -91.8959246 Eh     change       -0.6497500E-04 Eh
 * total energy  :   -91.8959875 Eh     change       -0.6285483E-04 Eh
 * total energy  :   -91.8960660 Eh     change       -0.7855860E-04 Eh
 * total energy  :   -91.8969136 Eh     change       -0.8031220E-06 Eh
 * total energy  :   -91.8969144 Eh     change       -0.7506988E-06 Eh
 * total energy  :   -91.8969152 Eh     change       -0.7564993E-06 Eh
 * total energy  :   -91.8969160 Eh     change       -0.8366115E-06 Eh
 * total energy  :   -91.8969169 Eh     change       -0.9125933E-06 Eh
 * total energy  :   -91.8969172 Eh     change       -0.3015767E-06 Eh
 * total energy  :   -91.8969179 Eh     change       -0.7337133E-06 Eh
 * total energy  :   -91.8969181 Eh     change       -0.1952073E-06 Eh
 * total energy  :   -91.8969182 Eh     change       -0.1636346E-07 Eh
   *** GEOMETRY OPTIMIZATION CONVERGED AFTER 47 ITERATIONS ***

 final structure:
================
56
 xtb: 6.7.1 (edcfbbe)
O            4.41060792533456       -0.80109176094021       -0.73286544379442
C            5.21381174980720       -0.10687420594618       -0.14136549230084
C            4.86502195133454        1.30119832493628        0.33202596489839
C            3.59307774484443        1.78773369722211       -0.28921178803213
C            2.36553966171274        1.20439017576304       -0.00260580752714
C            1.24253311231703        1.70447930233198       -0.66495681659372
C           -0.11347923073748        1.18572685384250       -0.46698949447939
C           -0.45232381705371        0.37216836341512        0.61509173190059
C           -1.74324508634593       -0.09056328517855        0.76924953625365
C           -2.72800566596248        0.24798463628981       -0.15591333571964
N           -4.04817396467426       -0.22238633164608        0.00848540800396
C           -4.32461398844828       -1.59134913707386       -0.03410079569989
C           -3.34660443360164       -2.53737103061245       -0.31712621635220
C           -3.65450697183949       -3.88906878397732       -0.35560961750157
C           -4.94565748140231       -4.31839175868709       -0.12317361534768
C           -5.94048261512892       -3.38452140320868        0.12910906624048
C           -5.63834541704900       -2.03587139141404        0.16695729642567
O           -6.68377065491255       -1.17052981907302        0.39271660790521
C           -6.39729403572913        0.17529680051107        0.41343087660995
C           -7.45628447592080        1.03485382037114        0.64012844199791
C           -7.24479811740497        2.40447348659642        0.70754272482264
C           -5.96524564745750        2.90155874545387        0.56274194037298
C           -4.90034883052223        2.04341323245934        0.33280356611813
C           -5.09899976010649        0.67146410359445        0.23332543196750
C           -2.39837015609078        1.06069497526749       -1.23872487132315
C           -1.10855503480440        1.52379098501931       -1.38762404448451
N            1.37473510201708        2.71088362631259       -1.54029028743152
C            2.58166108855740        3.19133372992327       -1.73530156845170
N            3.70029112559109        2.79007558213173       -1.15998004683022
C            6.58117315841635       -0.58169896584807        0.16257935082851
C            7.01906049828795       -1.74731715555515       -0.47212118766449
C            8.28456931910379       -2.24661085135148       -0.23491136747463
C            9.12997961943826       -1.59327036406299        0.64838781849833
C            8.70235644531498       -0.44224450973983        1.29260384299263
C            7.43952262709444        0.06657308245862        1.05250156125568
H            5.67064534056198        1.98591361642864        0.06600963669813
H            4.76234010771829        1.26536445546521        1.41956521730985
H            2.30433328342003        0.37953885255630        0.68684597591776
H            0.28488124162802        0.11423122585733        1.35913154172723
H           -2.00043962240115       -0.71199987695907        1.61443060628103
H           -2.33699929835721       -2.21464047299681       -0.51692330226444
H           -2.87275477139641       -4.60070636676547       -0.57309804166951
H           -5.19056040270643       -5.36859835351979       -0.14746122226317
H           -6.96365365063011       -3.68318967089233        0.29553525242431
H           -8.43979034759878        0.61029722279452        0.76743456626384
H           -8.07747147260950        3.06727389785842        0.88286062267733
H           -5.78050707475851        3.96269834253019        0.63044632875760
H           -3.90401076216719        2.44503987898736        0.23730941343869
H           -3.15854191418285        1.31963978938515       -1.96071436460283
H           -0.84226863488181        2.15076667348390       -2.22391346052880
H            2.66961922896353        4.00697920327540       -2.44355800986482
H            6.34485351807450       -2.24277222617308       -1.15576366657732
H            8.61191440945474       -3.14480984466526       -0.73677132572677
H           10.11991664958365       -1.98134186130552        0.83641463656248
H            9.35889526409365        0.06281215215018        1.98540025221935
H            7.12476416420951        0.95857159292113        1.57000797313012

          :  Hamiltonian                  GFN2-xTB          :
         :: gradient norm              0.000197735865 Eh/a0 ::
         :: HOMO-LUMO gap              1.408367845249 eV    ::
         :: SCC energy               -93.442694320555 Eh    ::
         :: -> dispersion             -0.069556961086 Eh    ::
         :: -> Gsolv                  -0.043477297969 Eh    ::
         :: repulsion energy           1.545776168924 Eh    ::

    * Orbital Energies and Occupations

         #    Occupation            Energy/Eh            Energy/eV
      -------------------------------------------------------------
         1        2.0000           -0.7301011             -19.8671
       ...           ...                  ...                  ...
        72        2.0000           -0.4343197             -11.8184
        73        2.0000           -0.4276201             -11.6361
        74        2.0000           -0.4230756             -11.5125
        75        2.0000           -0.4212359             -11.4624
        76        2.0000           -0.4200743             -11.4308
        77        2.0000           -0.4163855             -11.3304
        78        2.0000           -0.4132602             -11.2454
        79        2.0000           -0.4109875             -11.1835
        80        2.0000           -0.4087896             -11.1237
        81        2.0000           -0.4055920             -11.0367
        82        2.0000           -0.3910802             -10.6418
        83        2.0000           -0.3749303             -10.2024
        84        2.0000           -0.3444933              -9.3741 (HOMO)
        85                         -0.2927368              -7.9658 (LUMO)
        86                         -0.2863237              -7.7913
        87                         -0.2583126              -7.0290
        88                         -0.2397136              -6.5229
        89                         -0.2385960              -6.4925
        90                         -0.2383289              -6.4853
        91                         -0.2303466              -6.2680
        92                         -0.2248036              -6.1172
        93                         -0.2134225              -5.8075
        94                         -0.2068784              -5.6294
        95                         -0.1959909              -5.3332
       ...                                ...                  ...
       161                          0.6742759              18.3480
      -------------------------------------------------------------
                  HL-Gap            0.0517565 Eh            1.4084 eV

     #   Z          covCN         q      C6AA      α(0)
     1   8 O        0.857    -0.407    21.819     6.263
     2   6 C        2.822     0.239    23.016     7.861
     3   6 C        3.811    -0.100    22.402     6.737
     4   6 C        2.979     0.127    25.221     8.238
     5   6 C        2.911    -0.058    29.446     8.898
     6   6 C        2.975     0.113    25.500     8.283
     7   6 C        2.977    -0.000    28.026     8.684
     8   6 C        2.921    -0.030    28.738     8.791
     9   6 C        2.920    -0.040    28.987     8.829
    10   6 C        2.920     0.069    26.445     8.433
    11   7 N        2.751    -0.071    22.613     7.063
    12   6 C        2.921     0.042    27.052     8.529
    13   6 C        2.924    -0.060    29.504     8.908
    14   6 C        2.919    -0.039    28.969     8.826
    15   6 C        2.919    -0.041    29.020     8.834
    16   6 C        2.919    -0.058    29.442     8.898
    17   6 C        2.882     0.122    25.310     8.248
    18   8 O        1.708    -0.272    18.510     5.809
    19   6 C        2.882     0.122    25.312     8.248
    20   6 C        2.919    -0.058    29.439     8.897
    21   6 C        2.919    -0.041    29.018     8.834
    22   6 C        2.919    -0.039    28.965     8.826
    23   6 C        2.923    -0.061    29.509     8.908
    24   6 C        2.921     0.042    27.052     8.529
    25   6 C        2.919    -0.038    28.956     8.824
    26   6 C        2.925    -0.024    28.598     8.770
    27   7 N        1.842    -0.270    27.872     7.824
    28   6 C        2.908     0.156    24.618     8.136
    29   7 N        1.839    -0.277    28.029     7.846
    30   6 C        2.970    -0.017    28.418     8.744
    31   6 C        2.926    -0.015    28.375     8.736
    32   6 C        2.916    -0.024    28.609     8.771
    33   6 C        2.920    -0.017    28.445     8.746
    34   6 C        2.918    -0.024    28.614     8.772
    35   6 C        2.920    -0.027    28.675     8.781
    36   1 H        0.924     0.089     1.891     2.151
    37   1 H        0.924     0.087     1.906     2.159
    38   1 H        0.926     0.048     2.349     2.397
    39   1 H        0.926     0.048     2.350     2.397
    40   1 H        0.926     0.050     2.322     2.383
    41   1 H        0.926     0.039     2.464     2.455
    42   1 H        0.926     0.041     2.437     2.441
    43   1 H        0.926     0.042     2.421     2.433
    44   1 H        0.926     0.048     2.346     2.395
    45   1 H        0.926     0.048     2.347     2.396
    46   1 H        0.926     0.042     2.419     2.432
    47   1 H        0.926     0.042     2.425     2.435
    48   1 H        0.926     0.041     2.441     2.443
    49   1 H        0.926     0.052     2.299     2.371
    50   1 H        0.926     0.064     2.154     2.295
    51   1 H        0.925     0.038     2.481     2.463
    52   1 H        0.926     0.051     2.305     2.374
    53   1 H        0.926     0.049     2.334     2.389
    54   1 H        0.926     0.052     2.294     2.369
    55   1 H        0.926     0.052     2.296     2.370
    56   1 H        0.926     0.054     2.273     2.358

molecular dipole:
                 x           y           z       tot (Debye)
 q only:        1.703      -0.030       1.176
   full:        1.820      -0.188       1.414       5.877

 projected vibrational frequencies (cm⁻¹)
eigval :       -0.00    -0.00    -0.00     0.00     0.00     0.00
eigval :        8.93    10.80    20.64    22.41    29.63    37.29
eigval :       52.07    54.75    61.01    89.03   103.45   114.95
eigval :      124.59   145.28   164.86   180.32   202.46   212.50
eigval :      250.51   263.13   269.76   294.45   301.92   314.73
eigval :      363.38   372.15   374.08   378.89   384.19   406.92
eigval :      417.76   428.64   432.59   437.40   450.23   455.02
eigval :      486.62   508.61   521.23   541.80   560.19   567.21
eigval :      580.77   583.82   586.71   595.07   611.06   638.35
eigval :      658.30   659.97   660.81   666.11   685.75   696.32
eigval :      739.31   749.01   760.95   776.40   779.21   801.08
eigval :      808.35   819.51   851.80   852.75   860.48   865.20
eigval :      868.96   871.15   895.65   897.45   898.26   904.42
eigval :      911.53   913.18   915.71   916.71   920.61   922.81
eigval :      928.74   930.71   934.94   935.35   963.39  1012.86
eigval :     1023.35  1032.86  1080.90  1083.21  1088.65  1090.14
eigval :     1096.36  1105.27  1117.87  1123.41  1130.68  1167.96
eigval :     1172.03  1178.50  1179.91  1184.64  1190.73  1191.96
eigval :     1196.83  1208.07  1218.14  1237.88  1240.74  1244.74
eigval :     1258.79  1263.98  1270.41  1276.49  1290.83  1304.11
eigval :     1307.78  1319.50  1325.75  1333.65  1351.59  1372.43
eigval :     1402.13  1407.07  1421.33  1426.26  1432.88  1440.73
eigval :     1458.03  1478.93  1479.80  1502.72  1518.27  1554.18
eigval :     1560.12  1566.10  1576.05  1578.64  1585.57  1586.05
eigval :     1590.21  1601.74  1686.18  2958.97  3004.75  3039.46
eigval :     3080.36  3083.05  3085.38  3086.69  3087.88  3089.00
eigval :     3089.24  3095.35  3096.03  3096.68  3099.60  3103.83
eigval :     3104.71  3107.18  3108.50  3109.15  3109.57  3114.02

   temp. (K)  partition function   enthalpy   heat capacity  entropy
                                   cal/mol     cal/K/mol   cal/K/mol   J/K/mol
 298.15  VIB  0.196E+14            15994.617     99.707    100.330
         ROT  0.455E+08              888.752      2.981     38.021
         INT  0.889E+21            16883.369    102.688    138.351
         TR   0.941E+28             1481.254      4.968     44.218
         TOT                       18364.6231   107.6563   182.5684   763.8663

       T/K    H(0)-H(T)+PV         H(T)/Eh          T*S/Eh         G(T)/Eh
   ------------------------------------------------------------------------
    298.15    0.292659E-01    0.450974E+00    0.867441E-01    0.364230E+00
   ------------------------------------------------------------------------

         :::::::::::::::::::::::::::::::::::::::::::::::::::::
         ::                  THERMODYNAMIC                  ::
         :::::::::::::::::::::::::::::::::::::::::::::::::::::
         :: total free energy         -91.532688485511 Eh   ::
         ::.................................................::
         :: total energy              -91.896918153630 Eh   ::
         :: zero point energy           0.421707927993 Eh   ::
         :: G(RRHO) w/o ZPVE           -0.057478259874 Eh   ::
         :: G(RRHO) contrib.            0.364229668119 Eh   ::
         :::::::::::::::::::::::::::::::::::::::::::::::::::::

           -------------------------------------------------
          | TOTAL ENERGY              -91.896918153630 Eh   |
          | TOTAL ENTHALPY            -91.445944335929 Eh   |
          | TOTAL FREE ENERGY         -91.532688485511 Eh   |
          | GRADIENT NORM               0.000197778455 Eh/α |
          | HOMO-LUMO GAP               1.408366488999 eV   |
           -------------------------------------------------

 * finished run on 2025/07/20 at 12:50:42.826
