   * xtb version 6.7.1 (edcfbbe) compiled by 'albert@albert-system' on 2024-07-22

   ID    Z sym.   atoms
    1    8 O      1, 18
    2    6 C      2-10, 12-17, 19-26, 28, 30-35
    3    7 N      11, 27, 29
    4    1 H      36-56

          program call               : xtb data2507/toluene/MPA/MPA_toluene_S0_crest.xyz --gfn 2 --gbsa toluene --ohess vtight --parallel 40 --molden --ceasefiles --namespace data2507/toluene/MPA/MPA_toluene_S0_finalOpt
      * Solvation model:               GBSA
        Solvent                        toluene
        Solvent mass                       9.2140E+01 g/mol
          :  Hamiltonian                  GFN2-xTB          :
 * total energy  :   -91.8980552 Eh     change       -0.2862748E-08 Eh
 * total energy  :   -91.8981168 Eh     change       -0.6164293E-04 Eh
 * total energy  :   -91.8981398 Eh     change       -0.2300885E-04 Eh
 * total energy  :   -91.8981479 Eh     change       -0.8099673E-05 Eh
 * total energy  :   -91.8981547 Eh     change       -0.6781868E-05 Eh
 * total energy  :   -91.8981593 Eh     change       -0.4621418E-05 Eh
 * total energy  :   -91.8981630 Eh     change       -0.3681886E-05 Eh
 * total energy  :   -91.8981674 Eh     change       -0.4399223E-05 Eh
 * total energy  :   -91.8981729 Eh     change       -0.5468223E-05 Eh
 * total energy  :   -91.8981763 Eh     change       -0.3445172E-05 Eh
 * total energy  :   -91.8982052 Eh     change       -0.9748717E-06 Eh
 * total energy  :   -91.8982062 Eh     change       -0.9907854E-06 Eh
 * total energy  :   -91.8982072 Eh     change       -0.9757211E-06 Eh
 * total energy  :   -91.8982082 Eh     change       -0.9570650E-06 Eh
 * total energy  :   -91.8982092 Eh     change       -0.1025829E-05 Eh
 * total energy  :   -91.8982103 Eh     change       -0.1132081E-05 Eh
 * total energy  :   -91.8982116 Eh     change       -0.1293579E-05 Eh
 * total energy  :   -91.8982128 Eh     change       -0.1203528E-05 Eh
 * total energy  :   -91.8982128 Eh     change       -0.8955027E-08 Eh
   *** GEOMETRY OPTIMIZATION CONVERGED AFTER 44 ITERATIONS ***

 final structure:
================
56
 xtb: 6.7.1 (edcfbbe)
O            4.73905369968101       -0.85542988918344        2.18306629940242
C            5.36800767934597       -0.12412006722798        1.44211505625120
C            5.02793378728241        1.36176364155320        1.36400497557546
C            3.94736741308683        1.52015714614365        0.33298308600179
C            2.63597258789605        1.15169019170557        0.60343965978444
C            1.70158213960342        1.29034114824875       -0.42515455423595
C            0.29236611831372        0.91724267441234       -0.28766452361350
C           -0.64023779535028        1.44143966353955       -1.18585971169037
C           -1.97434052625707        1.10742272235122       -1.09342602035832
C           -2.40869234875382        0.23179409536199       -0.09977332600313
N           -3.77043344902537       -0.12370905094446       -0.00954278799553
C           -4.74483623784735        0.84815507312922        0.23597929942072
C           -4.42171505004790        2.17491087801958        0.49510659464392
C           -5.41247966454823        3.11359916040917        0.74098361036631
C           -6.74189757285515        2.74181199887979        0.74437279852387
C           -7.07989680556491        1.41505309981548        0.51987740874546
C           -6.09504381219246        0.47537786561210        0.27694681705092
O           -6.50779388339498       -0.82459421384922        0.09877346281004
C           -5.53645976706529       -1.76955505253106       -0.13729844324031
C           -5.96595077777912       -3.07002320345914       -0.32805602753491
C           -5.05175521288637       -4.07680207571783       -0.60259023045593
C           -3.71049668299537       -3.76616460291862       -0.70243887013761
C           -3.27544834020668       -2.46328185895006       -0.51198621359283
C           -4.17390229352993       -1.44837655787087       -0.20430136766905
C           -1.48355903810765       -0.29875337190355        0.79680871421599
C           -0.14869575756275        0.03927787099083        0.70336201630157
N            2.07772728143903        1.79572882133232       -1.60817626370826
C            3.34142823599710        2.11920535959354       -1.75611416070742
N            4.30286862370733        1.99731388483313       -0.85828280594419
C            6.45576928923841       -0.62281407012584        0.58117344616169
C            7.03871852636444       -1.84995981083271        0.91040678233793
C            8.06290079305790       -2.36855004771596        0.14339053118346
C            8.50716715853890       -1.67650028228565       -0.97318997064894
C            7.92135358503650       -0.46831201108855       -1.31907675898213
C            6.90654302399610        0.06612330815683       -0.54650112728406
H            5.89673839417490        1.95588274898158        1.09206373846102
H            4.64453593716915        1.66540727079280        2.33940444803515
H            2.36837842387207        0.77469966778116        1.57628711008773
H           -0.29258675342855        2.10875899212812       -1.95864808409903
H           -2.68827876965877        1.51287508879212       -1.79485562083484
H           -3.38636044765933        2.47662068918184        0.51119691452248
H           -5.13137358213546        4.13762523096200        0.93363529788046
H           -7.51755558698846        3.46796049385856        0.93013194875734
H           -8.10705982172720        1.08555629390314        0.53470655082490
H           -7.02351543870308       -3.27263113500604       -0.26253110264068
H           -5.39586741051224       -5.08888878871938       -0.74618152445553
H           -2.98780859138198       -4.53341972849682       -0.93446924085684
H           -2.22654062435565       -2.23373830581896       -0.61277852087448
H           -1.81898053148680       -0.97655866721133        1.56781340729211
H            0.55178882153664       -0.39901493388426        1.39745352793807
H            3.62971614720560        2.52541548925618       -2.71829630272739
H            6.67483595032992       -2.37520200939166        1.78169106725064
H            8.51314196537850       -3.31233114065322        0.41263963156792
H            9.30674907886785       -2.08100104278535       -1.57586292345037
H            8.25948155620087        0.06329217789268       -2.19601773727200
H            6.44336855470082        0.99509423245416       -0.84085936147417

          :  Hamiltonian                  GFN2-xTB          :
         :: gradient norm              0.000070429114 Eh/a0 ::
         :: HOMO-LUMO gap              1.327088640639 eV    ::
         :: SCC energy               -93.444173709663 Eh    ::
         :: -> dispersion             -0.070554336617 Eh    ::
         :: -> Gsolv                  -0.041118762302 Eh    ::
         :: repulsion energy           1.545960879935 Eh    ::

    * Orbital Energies and Occupations

         #    Occupation            Energy/Eh            Energy/eV
      -------------------------------------------------------------
         1        2.0000           -0.7308672             -19.8879
       ...           ...                  ...                  ...
        72        2.0000           -0.4337600             -11.8032
        73        2.0000           -0.4286243             -11.6635
        74        2.0000           -0.4214735             -11.4689
        75        2.0000           -0.4213964             -11.4668
        76        2.0000           -0.4193686             -11.4116
        77        2.0000           -0.4170813             -11.3494
        78        2.0000           -0.4143412             -11.2748
        79        2.0000           -0.4139316             -11.2637
        80        2.0000           -0.4121986             -11.2165
        81        2.0000           -0.4049124             -11.0182
        82        2.0000           -0.3917556             -10.6602
        83        2.0000           -0.3802396             -10.3468
        84        2.0000           -0.3453381              -9.3971 (HOMO)
        85                         -0.2965685              -8.0700 (LUMO)
        86                         -0.2866791              -7.8009
        87                         -0.2620156              -7.1298
        88                         -0.2409499              -6.5566
        89                         -0.2394373              -6.5154
        90                         -0.2367574              -6.4425
        91                         -0.2310676              -6.2877
        92                         -0.2278738              -6.2008
        93                         -0.2147731              -5.8443
        94                         -0.2070565              -5.6343
        95                         -0.1967691              -5.3544
       ...                                ...                  ...
       161                          0.6728097              18.3081
      -------------------------------------------------------------
                  HL-Gap            0.0487697 Eh            1.3271 eV

     #   Z          covCN         q      C6AA      α(0)
     1   8 O        0.857    -0.405    21.781     6.257
     2   6 C        2.828     0.238    23.040     7.866
     3   6 C        3.810    -0.096    22.329     6.726
     4   6 C        2.984     0.124    25.280     8.248
     5   6 C        2.911    -0.065    29.612     8.923
     6   6 C        2.976     0.113    25.504     8.284
     7   6 C        2.978    -0.001    28.039     8.686
     8   6 C        2.925    -0.024    28.592     8.769
     9   6 C        2.919    -0.038    28.953     8.824
    10   6 C        2.920     0.070    26.433     8.431
    11   7 N        2.751    -0.070    22.595     7.060
    12   6 C        2.921     0.042    27.058     8.530
    13   6 C        2.924    -0.060    29.500     8.907
    14   6 C        2.919    -0.039    28.965     8.826
    15   6 C        2.919    -0.041    29.011     8.833
    16   6 C        2.919    -0.058    29.435     8.897
    17   6 C        2.882     0.123    25.305     8.247
    18   8 O        1.708    -0.271    18.497     5.807
    19   6 C        2.883     0.123    25.305     8.247
    20   6 C        2.919    -0.058    29.435     8.897
    21   6 C        2.919    -0.041    29.012     8.833
    22   6 C        2.919    -0.039    28.966     8.826
    23   6 C        2.924    -0.061    29.506     8.908
    24   6 C        2.921     0.042    27.057     8.530
    25   6 C        2.920    -0.040    28.983     8.828
    26   6 C        2.921    -0.029    28.730     8.790
    27   7 N        1.842    -0.267    27.778     7.811
    28   6 C        2.907     0.155    24.651     8.141
    29   7 N        1.839    -0.273    27.932     7.832
    30   6 C        2.971    -0.017    28.424     8.745
    31   6 C        2.926    -0.016    28.413     8.741
    32   6 C        2.916    -0.025    28.629     8.774
    33   6 C        2.920    -0.018    28.455     8.748
    34   6 C        2.918    -0.024    28.615     8.772
    35   6 C        2.919    -0.029    28.716     8.788
    36   1 H        0.925     0.080     1.978     2.199
    37   1 H        0.924     0.075     2.029     2.228
    38   1 H        0.926     0.052     2.300     2.372
    39   1 H        0.926     0.064     2.150     2.293
    40   1 H        0.926     0.052     2.292     2.367
    41   1 H        0.926     0.040     2.447     2.446
    42   1 H        0.926     0.042     2.424     2.435
    43   1 H        0.926     0.043     2.415     2.430
    44   1 H        0.926     0.048     2.343     2.394
    45   1 H        0.926     0.048     2.341     2.393
    46   1 H        0.926     0.042     2.416     2.431
    47   1 H        0.926     0.041     2.431     2.438
    48   1 H        0.926     0.040     2.453     2.449
    49   1 H        0.926     0.051     2.307     2.375
    50   1 H        0.926     0.048     2.345     2.395
    51   1 H        0.925     0.042     2.422     2.434
    52   1 H        0.926     0.050     2.319     2.381
    53   1 H        0.926     0.049     2.336     2.390
    54   1 H        0.926     0.052     2.300     2.372
    55   1 H        0.926     0.051     2.312     2.378
    56   1 H        0.926     0.064     2.148     2.292

molecular dipole:
                 x           y           z       tot (Debye)
 q only:        1.058       0.293      -0.502
   full:        1.086       0.258      -0.238       2.901

 projected vibrational frequencies (cm⁻¹)
eigval :       -0.00    -0.00     0.00     0.00     0.00     0.00
eigval :        7.58    10.88    22.25    29.01    35.46    39.01
eigval :       49.64    64.25    68.63    84.36   101.14   119.59
eigval :      130.83   148.63   165.27   187.51   201.58   213.95
eigval :      246.80   257.41   269.04   285.83   310.99   355.84
eigval :      363.53   371.39   378.87   380.94   386.68   407.06
eigval :      417.21   426.93   430.82   438.35   455.68   474.90
eigval :      487.95   510.76   521.09   523.46   546.04   574.35
eigval :      580.42   585.67   587.01   606.10   610.76   638.34
eigval :      657.92   660.27   662.01   685.24   686.33   705.85
eigval :      737.16   752.02   757.28   777.22   777.56   787.95
eigval :      801.98   821.35   841.42   853.08   863.67   866.00
eigval :      874.87   876.75   894.96   896.21   897.99   908.81
eigval :      912.91   913.73   915.62   917.50   925.72   929.72
eigval :      930.97   934.24   936.58   955.67   969.19  1013.36
eigval :     1027.73  1032.57  1080.90  1085.11  1089.42  1090.69
eigval :     1105.48  1109.01  1117.74  1123.47  1131.93  1168.29
eigval :     1172.07  1178.02  1178.95  1181.27  1189.71  1196.94
eigval :     1197.33  1218.31  1218.97  1238.33  1241.12  1245.80
eigval :     1257.81  1259.11  1267.36  1279.00  1288.49  1303.97
eigval :     1307.87  1318.84  1324.61  1333.16  1351.05  1368.78
eigval :     1402.09  1420.68  1424.90  1424.98  1439.78  1440.61
eigval :     1458.66  1479.21  1479.57  1502.16  1513.47  1552.19
eigval :     1558.02  1566.11  1574.40  1578.85  1584.79  1585.85
eigval :     1590.38  1601.82  1680.49  2992.95  3037.48  3044.78
eigval :     3078.75  3082.70  3085.08  3087.03  3087.26  3088.38
eigval :     3090.89  3095.09  3095.39  3096.07  3097.04  3101.93
eigval :     3103.83  3105.13  3108.51  3109.20  3109.76  3112.06

   temp. (K)  partition function   enthalpy   heat capacity  entropy
                                   cal/mol     cal/K/mol   cal/K/mol   J/K/mol
 298.15  VIB  0.101E+14            15894.910     99.816     99.603
         ROT  0.419E+08              888.752      2.981     37.859
         INT  0.423E+21            16783.663    102.797    137.462
         TR   0.941E+28             1481.254      4.968     44.218
         TOT                       18264.9167   107.7648   181.6796   760.1473

       T/K    H(0)-H(T)+PV         H(T)/Eh          T*S/Eh         G(T)/Eh
   ------------------------------------------------------------------------
    298.15    0.291070E-01    0.451380E+00    0.863218E-01    0.365058E+00
   ------------------------------------------------------------------------

         :::::::::::::::::::::::::::::::::::::::::::::::::::::
         ::                  THERMODYNAMIC                  ::
         :::::::::::::::::::::::::::::::::::::::::::::::::::::
         :: total free energy         -91.533154701263 Eh   ::
         ::.................................................::
         :: total energy              -91.898212826062 Eh   ::
         :: zero point energy           0.422272946793 Eh   ::
         :: G(RRHO) w/o ZPVE           -0.057214821994 Eh   ::
         :: G(RRHO) contrib.            0.365058124799 Eh   ::
         :::::::::::::::::::::::::::::::::::::::::::::::::::::

           -------------------------------------------------
          | TOTAL ENERGY              -91.898212826062 Eh   |
          | TOTAL ENTHALPY            -91.446832881814 Eh   |
          | TOTAL FREE ENERGY         -91.533154701263 Eh   |
          | GRADIENT NORM               0.000070422689 Eh/α |
          | HOMO-LUMO GAP               1.327089829043 eV   |
           -------------------------------------------------

 * finished run on 2025/07/20 at 12:53:21.055
