   * xtb version 6.7.1 (edcfbbe) compiled by 'albert@albert-system' on 2024-07-22

   ID    Z sym.   atoms
    1    8 O      1, 18
    2    6 C      2-10, 12-17, 19-26, 28, 30-35
    3    7 N      11, 27, 29
    4    1 H      36-56

          program call               : xtb data2507/toluene/MPA/MPA_toluene_T1_crest.xyz --gfn 2 --uhf 2 --gbsa toluene --ohess vtight --parallel 40 --molden --ceasefiles --namespace data2507/toluene/MPA/MPA_toluene_T1_finalOpt
      * Solvation model:               GBSA
        Solvent                        toluene
        Solvent mass                       9.2140E+01 g/mol
          :  Hamiltonian                  GFN2-xTB          :
 * total energy  :   -91.8257905 Eh     change       -0.5667628E-07 Eh
 * total energy  :   -91.8260567 Eh     change       -0.2661766E-03 Eh
 * total energy  :   -91.8261857 Eh     change       -0.1290753E-03 Eh
 * total energy  :   -91.8262072 Eh     change       -0.2147923E-04 Eh
 * total energy  :   -91.8262341 Eh     change       -0.2690760E-04 Eh
 * total energy  :   -91.8262500 Eh     change       -0.1589279E-04 Eh
 * total energy  :   -91.8262651 Eh     change       -0.1505951E-04 Eh
 * total energy  :   -91.8262811 Eh     change       -0.1604646E-04 Eh
 * total energy  :   -91.8262913 Eh     change       -0.1020715E-04 Eh
 * total energy  :   -91.8263039 Eh     change       -0.1253784E-04 Eh
 * total energy  :   -91.8263704 Eh     change       -0.5181676E-06 Eh
 * total energy  :   -91.8263707 Eh     change       -0.3278740E-06 Eh
 * total energy  :   -91.8263709 Eh     change       -0.2249344E-06 Eh
 * total energy  :   -91.8263711 Eh     change       -0.1937661E-06 Eh
 * total energy  :   -91.8263713 Eh     change       -0.2229578E-06 Eh
 * total energy  :   -91.8263716 Eh     change       -0.2884468E-06 Eh
 * total energy  :   -91.8263719 Eh     change       -0.2917165E-06 Eh
 * total energy  :   -91.8263721 Eh     change       -0.1910763E-06 Eh
 * total energy  :   -91.8263722 Eh     change       -0.8472369E-07 Eh
   *** GEOMETRY OPTIMIZATION CONVERGED AFTER 58 ITERATIONS ***

 final structure:
================
56
 xtb: 6.7.1 (edcfbbe)
O            4.71303214592820        0.71383759253719        2.45774613304672
C            5.31619138198809        0.81595561455281        1.38501898498682
C            5.08569182305368        2.04354606541199        0.51271221742225
C            4.02591281714063        1.58473164658364       -0.44340679889238
C            2.73340426629924        1.36854535911481       -0.02659797336172
C            1.79363015210267        0.89077792846553       -0.96353090201977
C            0.41188635194513        0.65282060490423       -0.68788327822964
C           -0.41547714996244        0.12785638920291       -1.70894937422598
C           -1.74448285583901       -0.12327002649850       -1.49485353939532
C           -2.31550703498142        0.14312743550279       -0.24435227047247
N           -3.68996778356174       -0.11307243235132       -0.01527428510327
C           -4.56759681812057        0.93164457694405        0.21103817310835
C           -4.16088020866304        2.26762406677836        0.17323369177220
C           -5.06652395043124        3.28168649856405        0.41226970508278
C           -6.39719302760821        2.99179576511924        0.68673724223754
C           -6.82740830925570        1.67754593860120        0.70319317144773
C           -5.92629178107887        0.65041491421013        0.46187644600631
O           -6.40877117484768       -0.62244053390534        0.46504516542147
C           -5.53942327546699       -1.64103595353178        0.22060606963820
C           -6.04889460001122       -2.93158618595062        0.22299592421814
C           -5.20705332996688       -4.00689114754438        0.00465532692721
C           -3.84986688485681       -3.79346800938942       -0.20113268739102
C           -3.33209521726431       -2.51368545367745       -0.20570161970419
C           -4.16796029158340       -1.41102988203921       -0.01284870636051
C           -1.51854817075721        0.66499088441506        0.77941946170387
C           -0.18565508326182        0.91116605803760        0.56521421267710
N            2.24111528856691        0.61905397961757       -2.22896374324550
C            3.48846904817154        0.82628907380611       -2.52690485331681
N            4.40775086719494        1.32103500255501       -1.71717198919609
C            6.20561463270055       -0.23477241475033        0.89000897644054
C            6.52881676704195       -1.28409768397743        1.76364123627083
C            7.38165399109302       -2.29425687677549        1.37540340427615
C            7.92842466786739       -2.28830841818790        0.09935679003707
C            7.60836759712968       -1.26409742628288       -0.77979480290833
C            6.76325706783890       -0.24174403392670       -0.39496233974102
H            5.98084722840137        2.35703441998737       -0.01869163762020
H            4.71394017964546        2.85177321442122        1.14459377206607
H            2.46739032687489        1.55519120895581        1.00153011760863
H            0.03606617215798       -0.06298481399889       -2.67000967148009
H           -2.36504446028712       -0.51124418339403       -2.28955929413909
H           -3.13197859074258        2.49780488118733       -0.05106796265349
H           -4.73219571148824        4.30664735125613        0.38074439646767
H           -7.09923926003080        3.78773903774981        0.87660371316174
H           -7.85664153048412        1.42110880596710        0.89607777527758
H           -7.10351385308826       -3.06544583931688        0.40235402705791
H           -5.60650104257247       -5.00834690471590        0.00520101841964
H           -3.18782975319591       -4.63088124641141       -0.35528649389823
H           -2.27616299661491       -2.35486415727694       -0.35276213866426
H           -1.95853381317992        0.85805564821248        1.74724325159697
H            0.40846740386137        1.30220469396439        1.37583186371214
H            3.80588293334261        0.58995407085935       -3.53545176878902
H            6.09124337376572       -1.27272877161619        2.75198742055316
H            7.62212457800453       -3.09101754975934        2.06453920942992
H            8.59679654162625       -3.07899378086050       -0.20806620012222
H            8.02479833838468       -1.26207077911330       -1.77700282428787
H            6.50977624537667        0.53004819696711       -1.10432304046120

          :  Hamiltonian                  GFN2-xTB          :
         :: gradient norm              0.000087266333 Eh/a0 ::
         :: HOMO-LUMO gap              0.359425780509 eV    ::
         :: SCC energy               -93.360672305192 Eh    ::
         :: -> dispersion             -0.071020035209 Eh    ::
         :: -> Gsolv                  -0.052332956403 Eh    ::
         :: repulsion energy           1.534300110532 Eh    ::

    * Orbital Energies and Occupations

         #    Occupation            Energy/Eh            Energy/eV
      -------------------------------------------------------------
         1        2.0000           -0.7649394             -20.8151
       ...           ...                  ...                  ...
        73        2.0000           -0.4322115             -11.7611
        74        2.0000           -0.4311194             -11.7314
        75        2.0000           -0.4194606             -11.4141
        76        2.0000           -0.4158029             -11.3146
        77        2.0000           -0.4146105             -11.2821
        78        2.0000           -0.4045684             -11.0089
        79        2.0000           -0.4037658             -10.9870
        80        2.0000           -0.4000258             -10.8853
        81        2.0000           -0.3976500             -10.8206
        82        2.0000           -0.3812654             -10.3748
        83        1.7600           -0.3690743             -10.0430
        84        1.2400           -0.3668836              -9.9834
        85        0.9990           -0.2843934              -7.7387 (HOMO)
        86        0.0010           -0.2711849              -7.3793 (LUMO)
        87        0.0000           -0.2670190              -7.2660
        88                         -0.2530867              -6.8868
        89                         -0.2397679              -6.5244
        90                         -0.2390925              -6.5060
        91                         -0.2282045              -6.2098
        92                         -0.2226118              -6.0576
        93                         -0.2212427              -6.0203
        94                         -0.2081464              -5.6640
        95                         -0.1842561              -5.0139
        96                         -0.1297457              -3.5306
       ...                                ...                  ...
       161                          0.6761305              18.3984
      -------------------------------------------------------------
                  HL-Gap            0.0132085 Eh            0.3594 eV

     #   Z          covCN         q      C6AA      α(0)
     1   8 O        0.857    -0.477    23.282     6.469
     2   6 C        2.845     0.210    23.569     7.956
     3   6 C        3.810    -0.083    22.070     6.687
     4   6 C        2.977     0.104    25.703     8.316
     5   6 C        2.910    -0.059    29.473     8.902
     6   6 C        2.950     0.075    26.328     8.416
     7   6 C        2.972    -0.006    28.165     8.705
     8   6 C        2.924    -0.036    28.904     8.817
     9   6 C        2.914    -0.040    28.991     8.829
    10   6 C        2.924     0.031    27.316     8.571
    11   7 N        2.752     0.000    21.264     6.849
    12   6 C        2.926     0.047    26.956     8.514
    13   6 C        2.920    -0.046    29.137     8.852
    14   6 C        2.917    -0.026    28.640     8.776
    15   6 C        2.919    -0.024    28.606     8.771
    16   6 C        2.916    -0.049    29.209     8.862
    17   6 C        2.886     0.134    25.061     8.207
    18   8 O        1.710    -0.210    17.488     5.646
    19   6 C        2.886     0.134    25.061     8.207
    20   6 C        2.916    -0.049    29.210     8.863
    21   6 C        2.919    -0.024    28.602     8.770
    22   6 C        2.917    -0.025    28.637     8.775
    23   6 C        2.920    -0.046    29.137     8.852
    24   6 C        2.926     0.047    26.953     8.514
    25   6 C        2.915    -0.040    28.985     8.828
    26   6 C        2.919    -0.041    29.030     8.835
    27   7 N        1.842    -0.259    27.583     7.783
    28   6 C        2.863     0.156    24.611     8.132
    29   7 N        1.838    -0.288    28.326     7.887
    30   6 C        2.968    -0.024    28.608     8.773
    31   6 C        2.926    -0.025    28.616     8.773
    32   6 C        2.916    -0.031    28.777     8.797
    33   6 C        2.919    -0.030    28.755     8.794
    34   6 C        2.917    -0.030    28.756     8.794
    35   6 C        2.919    -0.037    28.915     8.818
    36   1 H        0.925     0.059     2.214     2.327
    37   1 H        0.924     0.052     2.293     2.368
    38   1 H        0.926     0.032     2.563     2.504
    39   1 H        0.926     0.052     2.298     2.370
    40   1 H        0.926     0.044     2.394     2.419
    41   1 H        0.926     0.062     2.171     2.304
    42   1 H        0.926     0.063     2.167     2.302
    43   1 H        0.926     0.066     2.133     2.284
    44   1 H        0.926     0.072     2.066     2.248
    45   1 H        0.926     0.072     2.065     2.247
    46   1 H        0.926     0.066     2.131     2.283
    47   1 H        0.926     0.063     2.167     2.302
    48   1 H        0.926     0.063     2.168     2.303
    49   1 H        0.926     0.041     2.439     2.442
    50   1 H        0.926     0.033     2.546     2.495
    51   1 H        0.925     0.032     2.552     2.498
    52   1 H        0.926     0.037     2.492     2.469
    53   1 H        0.926     0.036     2.509     2.477
    54   1 H        0.926     0.038     2.474     2.460
    55   1 H        0.926     0.037     2.493     2.469
    56   1 H        0.926     0.050     2.320     2.382

molecular dipole:
                 x           y           z       tot (Debye)
 q only:       -6.528      -0.857      -0.772
   full:       -6.381      -0.743      -0.592      16.397

 projected vibrational frequencies (cm⁻¹)
eigval :       -0.00     0.00     0.00     0.00     0.00     0.00
eigval :       11.41    12.87    21.89    29.60    37.50    47.82
eigval :       61.11    63.31    78.79    88.85   104.17   112.14
eigval :      139.45   151.24   170.19   175.49   203.77   217.38
eigval :      241.56   259.40   272.90   293.47   312.50   364.08
eigval :      368.05   376.11   380.85   383.69   389.63   392.86
eigval :      415.27   421.67   433.97   437.84   453.79   466.14
eigval :      479.61   492.35   503.33   530.83   534.85   549.30
eigval :      574.00   577.90   584.73   586.18   607.13   627.53
eigval :      633.10   654.32   666.92   670.55   677.03   678.30
eigval :      681.81   736.12   746.52   761.60   775.36   778.35
eigval :      796.83   800.90   822.01   841.47   856.94   862.03
eigval :      866.86   870.37   871.38   893.89   894.68   898.60
eigval :      905.33   906.82   910.30   912.38   914.13   921.25
eigval :      922.11   923.13   926.42   940.72   967.06   982.30
eigval :      994.98  1026.80  1048.95  1079.59  1080.25  1081.81
eigval :     1103.48  1115.42  1120.52  1124.24  1126.06  1165.63
eigval :     1169.06  1172.36  1177.35  1179.18  1188.87  1195.99
eigval :     1208.24  1210.91  1216.00  1231.04  1234.44  1248.19
eigval :     1250.27  1252.72  1277.19  1282.01  1295.53  1300.56
eigval :     1318.20  1321.18  1329.34  1330.50  1340.87  1344.28
eigval :     1369.39  1409.48  1412.01  1422.33  1424.36  1429.59
eigval :     1435.32  1441.87  1447.65  1457.80  1466.25  1476.32
eigval :     1510.68  1544.45  1548.99  1555.75  1556.15  1562.72
eigval :     1577.00  1581.44  1595.12  2983.57  3023.75  3032.80
eigval :     3068.55  3071.48  3076.22  3079.25  3079.47  3087.49
eigval :     3094.05  3099.81  3100.34  3100.43  3101.84  3102.52
eigval :     3107.43  3107.95  3115.74  3116.47  3118.62  3119.32

   temp. (K)  partition function   enthalpy   heat capacity  entropy
                                   cal/mol     cal/K/mol   cal/K/mol   J/K/mol
 298.15  VIB  0.346E+13            15970.173    101.534     99.236
         ROT  0.409E+08              888.752      2.981     37.809
         INT  0.141E+21            16858.925    104.515    137.044
         TR   0.941E+28             1481.254      4.968     44.218
         TOT                       18340.1791   109.4827   181.2619   758.3998

       T/K    H(0)-H(T)+PV         H(T)/Eh          T*S/Eh         G(T)/Eh
   ------------------------------------------------------------------------
    298.15    0.292269E-01    0.448547E+00    0.861234E-01    0.362424E+00
   ------------------------------------------------------------------------

         :::::::::::::::::::::::::::::::::::::::::::::::::::::
         ::                  THERMODYNAMIC                  ::
         :::::::::::::::::::::::::::::::::::::::::::::::::::::
         :: total free energy         -91.463948644530 Eh   ::
         ::.................................................::
         :: total energy              -91.826372193323 Eh   ::
         :: zero point energy           0.419319989258 Eh   ::
         :: G(RRHO) w/o ZPVE           -0.056896440465 Eh   ::
         :: G(RRHO) contrib.            0.362423548793 Eh   ::
         :::::::::::::::::::::::::::::::::::::::::::::::::::::

           -------------------------------------------------
          | TOTAL ENERGY              -91.826372193323 Eh   |
          | TOTAL ENTHALPY            -91.377825268254 Eh   |
          | TOTAL FREE ENERGY         -91.463948644530 Eh   |
          | GRADIENT NORM               0.000086971532 Eh/α |
          | HOMO-LUMO GAP               0.359421084675 eV   |
           -------------------------------------------------

 * finished run on 2025/07/20 at 12:56:22.581
