   * xtb version 6.7.1 (edcfbbe) compiled by 'albert@albert-system' on 2024-07-22

   ID    Z sym.   atoms
    1    7 N      1, 9, 26, 32, 49, 55
    2    6 C      2-8, 10-25, 27-31, 33-48, 50-54, 56-69
    3    1 H      70-111

          program call               : xtb data2507/toluene/3DPA3CN/3DPA3CN_toluene_T1_crest.xyz --gfn 2 --uhf 2 --gbsa toluene --ohess vtight --parallel 40 --molden --ceasefiles --namespace data2507/toluene/3DPA3CN/3DPA3CN_toluene_T1_finalOpt
      * Solvation model:               GBSA
        Solvent                        toluene
        Solvent mass                       9.2140E+01 g/mol
          :  Hamiltonian                  GFN2-xTB          :
 * total energy  :  -173.7782224 Eh     change       -0.8918818E-08 Eh
 * total energy  :  -173.7783603 Eh     change       -0.1379792E-03 Eh
 * total energy  :  -173.7784501 Eh     change       -0.8974865E-04 Eh
 * total energy  :  -173.7784527 Eh     change       -0.2589451E-05 Eh
 * total energy  :  -173.7784814 Eh     change       -0.2876238E-04 Eh
 * total energy  :  -173.7784887 Eh     change       -0.7289934E-05 Eh
 * total energy  :  -173.7784914 Eh     change       -0.2663070E-05 Eh
 * total energy  :  -173.7784938 Eh     change       -0.2412632E-05 Eh
 * total energy  :  -173.7784949 Eh     change       -0.1110037E-05 Eh
 * total energy  :  -173.7784963 Eh     change       -0.1333977E-05 Eh
 * total energy  :  -173.7785257 Eh     change       -0.1994620E-05 Eh
 * total energy  :  -173.7785271 Eh     change       -0.1459051E-05 Eh
 * total energy  :  -173.7785280 Eh     change       -0.9122894E-06 Eh
 * total energy  :  -173.7785287 Eh     change       -0.6154335E-06 Eh
 * total energy  :  -173.7785289 Eh     change       -0.2222980E-06 Eh
 * total energy  :  -173.7785291 Eh     change       -0.2364154E-06 Eh
 * total energy  :  -173.7785294 Eh     change       -0.2404766E-06 Eh
 * total energy  :  -173.7785296 Eh     change       -0.2815898E-06 Eh
 * total energy  :  -173.7785297 Eh     change       -0.8307762E-07 Eh
   *** GEOMETRY OPTIMIZATION CONVERGED AFTER 48 ITERATIONS ***

 final structure:
================
111
 xtb: 6.7.1 (edcfbbe)
N           -2.20164789459199        3.33075896910282       -0.01764591181886
C           -1.55570343825668        2.37026600560616        0.00019826994724
C           -0.78887739789849        1.20785246424460        0.01501727661761
C            0.63783581799905        1.27868043242560        0.01585015558612
C            1.31278712327014        2.57199808026978        0.04214787835131
C            0.93955885432827        3.56635553539219        0.95225385335731
C            1.58399700692408        4.78112302855456        0.97792579993810
C            2.62438985998522        5.05241582909925        0.08285349064463
N            3.27663826635345        6.28501639940849        0.10462232504274
C            2.55719836736154        7.45084913836468        0.38663734546573
C            3.13607591142683        8.47419883284728        1.14059137275549
C            2.42129018000994        9.62392506939355        1.41369473764507
C            1.12385625830548        9.77165895145106        0.94748215267481
C            0.54337104375204        8.75689913223771        0.20191342461155
C            1.25023913526866        7.60474661803574       -0.08150168602027
C            4.65027591465017        6.35322565509900       -0.14923741091080
C            5.18488185887538        7.43319283006866       -0.85555014721206
C            6.54282878072899        7.49968440227021       -1.09817230248420
C            7.38610865303834        6.49502001379466       -0.64857097823850
C            6.85944519854499        5.41800576334949        0.04810716514333
C            5.50372570349566        5.34333275110520        0.30113284753383
C            2.99818791437462        4.06469686455627       -0.83427032961387
C            2.35547615200180        2.84894405410322       -0.84914126957406
C            1.37433224330802        0.09224635180408        0.01095507712794
C            2.76162408584996        0.18991975764600        0.22663087365228
N            3.88201055079632        0.28711775594796        0.47804830950135
C            0.75984662195035       -1.18809784211281        0.00301854250100
C            1.53988268510470       -2.39851728356008       -0.00514113123922
C            1.14874095849445       -3.53147475986841        0.73496837739022
C            1.89523164732029       -4.68196465215355        0.72962626922794
C            3.07389892017924       -4.76525907095862       -0.02472633450271
N            3.83452309108573       -5.93474983221783       -0.03182475257411
C            3.19834414107739       -7.17743040350856       -0.00065143995529
C            1.98780452661160       -7.36813598858698       -0.67292231279110
C            1.36105144788914       -8.59780540482547       -0.63670217871792
C            1.92572180690958       -9.65425895585758        0.06244288952145
C            3.12605281886739       -9.47003974808923        0.73245455622628
C            3.76042917568061       -8.24404732748355        0.70663867160969
C            5.22784487064207       -5.85643041942089       -0.07415939963579
C            5.89822550375639       -4.82806227916223        0.59442555628187
C            7.27568853731242       -4.75001885550398        0.54269801524478
C            8.00691187690230       -5.69082704935515       -0.16716110848483
C            7.34686635910921       -6.71383931879629       -0.83156893135694
C            5.96955188396636       -6.79983883275562       -0.79105304547269
C            3.47142597489487       -3.64833760648872       -0.77297493436996
C            2.72468699071046       -2.49838890633750       -0.76128171425184
C           -0.67521944933505       -1.22254227962701        0.00614621658369
C           -1.36002614389932       -2.43102627613414       -0.17051830806920
N           -1.94787989949906       -3.40503913610710       -0.36993053919158
C           -1.42972278065953       -0.04990706267928        0.01409389844826
C           -2.89637006219114       -0.12481638891447       -0.00015395396125
C           -3.63543403925759        0.51138921607784       -0.99707137327870
C           -5.00959504599591        0.42737890024317       -1.01843069756082
C           -5.69049115450599       -0.28867653482266       -0.02980963667464
N           -7.08199311190011       -0.37304915102222       -0.04920342617761
C           -7.72125822789428       -1.54920572838232        0.35668241987656
C           -7.15578796118709       -2.79561785101337        0.07831059924760
C           -7.79536784271217       -3.95187720490151        0.48079029279677
C           -9.00355666823936       -3.88766139816199        1.15794218481105
C           -9.56934070775673       -2.65269741356950        1.43528787496982
C           -8.93631905792961       -1.48970007832453        1.04247447794626
C           -7.83960784397862        0.72037683993169       -0.48622943142122
C           -7.45045284614908        2.02162641379356       -0.16234959372985
C           -8.19912005856035        3.09758610987386       -0.59804665743777
C           -9.34286908608620        2.89608859194746       -1.35531179570952
C           -9.73385807293099        1.60564373777417       -1.67774399283977
C           -8.99099093079943        0.52234084857108       -1.25042317484376
C           -4.95299959702701       -0.91844761084874        0.97638148940510
C           -3.57813060305683       -0.84141742603121        0.98351104425494
H            0.15547220388580        3.36596600231892        1.66753636541815
H            1.29857524157321        5.52563401095647        1.70603502985155
H            4.14050088763136        8.35314432961961        1.51818966574381
H            2.87713288680028       10.40598914763148        2.00247444346189
H            0.56784459489292       10.67085029323975        1.16477769293682
H           -0.46499563163165        8.86463549499499       -0.16906911912962
H            0.80014948095935        6.82019296413621       -0.67198935708425
H            4.52635285262195        8.20765976459714       -1.21987057883043
H            6.94410260710350        8.33692096288459       -1.64953422402499
H            8.44667684344102        6.54982619249235       -0.84124158596571
H            7.50879790402566        4.63261056988538        0.40523916434069
H            5.09752097982844        4.50998109908407        0.85541003738271
H            3.78434611268348        4.26715185512045       -1.54628477192957
H            2.64019958411342        2.10630373437422       -1.58068305350415
H            0.26544354376734       -3.48027965527169        1.35398821543224
H            1.58955164614793       -5.52484561843852        1.33205935906335
H            1.55378374254177       -6.55012680490928       -1.22885051915046
H            0.42880386667193       -8.73314768528935       -1.16446445098874
H            1.43226884452005      -10.61379874280506        0.08631730912730
H            3.56667715584532      -10.28497861826302        1.28711968896671
H            4.68522718591073       -8.09626907839698        1.24423382852664
H            5.33108036721736       -4.10262221780590        1.15886716409189
H            7.78121468625098       -3.95282025665700        1.06700692092368
H            9.08359012615839       -5.62609949253024       -0.20350658546749
H            7.90890023327743       -7.44442890285029       -1.39396992275867
H            5.45548816853208       -7.58495510566042       -1.32531771109282
H            4.35937208029855       -3.70771393461135       -1.38515307067736
H            3.03037626632170       -1.66616571023237       -1.37812085788312
H           -3.12163601836615        1.05384543305733       -1.77734218443416
H           -5.56574595577173        0.90397640010708       -1.81170720178840
H           -6.22085686950611       -2.84953002938132       -0.46009552781955
H           -7.34937241092129       -4.90924712508570        0.25586971697914
H           -9.50015506304124       -4.79439415866599        1.46808644479780
H          -10.50599133200659       -2.59386282576437        1.96939134504495
H           -9.36971815683642       -0.52776584471171        1.27265138633401
H           -6.56468871865688        2.17944332374107        0.43547160029587
H           -7.88908701619976        4.09889718472754       -0.33849879950328
H           -9.92543119590493        3.73979225940822       -1.69256152405734
H          -10.61913309682257        1.44159259036495       -2.27391619171500
H           -9.28743474467649       -0.48216398450082       -1.51388348560772
H           -5.46709247301020       -1.45782794774969        1.75778082027727
H           -3.02043862469519       -1.32325133768005        1.77391008368571

          :  Hamiltonian                  GFN2-xTB          :
         :: gradient norm              0.000127783816 Eh/a0 ::
         :: HOMO-LUMO gap              0.105634012158 eV    ::
         :: SCC energy              -177.135125192595 Eh    ::
         :: -> dispersion             -0.162849023850 Eh    ::
         :: -> Gsolv                  -0.089042075256 Eh    ::
         :: repulsion energy           3.356595470735 Eh    ::

    * Orbital Energies and Occupations

         #    Occupation            Energy/Eh            Energy/eV
      -------------------------------------------------------------
         1        2.0000           -0.6803715             -18.5139
       ...           ...                  ...                  ...
       151        2.0000           -0.4136305             -11.2555
       152        2.0000           -0.4134190             -11.2497
       153        2.0000           -0.4133150             -11.2469
       154        2.0000           -0.4122815             -11.2188
       155        2.0000           -0.4114481             -11.1961
       156        2.0000           -0.4067076             -11.0671
       157        2.0000           -0.4057505             -11.0410
       158        2.0000           -0.3984949             -10.8436
       159        2.0000           -0.3908829             -10.6365
       160        1.8019           -0.3616234              -9.8403
       161        1.7541           -0.3613593              -9.8331
       162        1.4440           -0.3600812              -9.7983
       163        0.8852           -0.2802801              -7.6268 (HOMO)
       164        0.1148           -0.2763984              -7.5212 (LUMO)
       165                         -0.2486065              -6.7649
       166                         -0.2419578              -6.5840
       167                         -0.2406148              -6.5475
       168                         -0.2401103              -6.5337
       169                         -0.2370302              -6.4499
       170                         -0.2363993              -6.4328
       171                         -0.2360156              -6.4223
       172                         -0.2338767              -6.3641
       173                         -0.2315360              -6.3004
       174                         -0.2313696              -6.2959
       ...                                ...                  ...
       318                          1.1587077              31.5300
      -------------------------------------------------------------
                  HL-Gap            0.0038817 Eh            0.1056 eV

     #   Z          covCN         q      C6AA      α(0)
     1   7 N        0.911    -0.349    28.986     7.787
     2   6 C        1.911     0.106    28.475     8.618
     3   6 C        2.969    -0.030    28.742     8.794
     4   6 C        2.988    -0.000    28.027     8.684
     5   6 C        2.975     0.003    27.951     8.672
     6   6 C        2.922    -0.030    28.742     8.792
     7   6 C        2.919    -0.043    29.058     8.840
     8   6 C        2.925     0.062    26.608     8.459
     9   7 N        2.752    -0.042    22.052     6.974
    10   6 C        2.925     0.064    26.560     8.452
    11   6 C        2.921    -0.042    29.053     8.839
    12   6 C        2.919    -0.026    28.661     8.779
    13   6 C        2.919    -0.031    28.776     8.797
    14   6 C        2.919    -0.026    28.642     8.776
    15   6 C        2.921    -0.041    29.016     8.833
    16   6 C        2.925     0.064    26.560     8.452
    17   6 C        2.921    -0.042    29.054     8.839
    18   6 C        2.919    -0.026    28.662     8.779
    19   6 C        2.919    -0.031    28.777     8.797
    20   6 C        2.919    -0.026    28.642     8.776
    21   6 C        2.921    -0.041    29.019     8.834
    22   6 C        2.919    -0.043    29.065     8.841
    23   6 C        2.923    -0.031    28.764     8.795
    24   6 C        2.971    -0.011    28.287     8.724
    25   6 C        1.918     0.119    28.179     8.573
    26   7 N        0.911    -0.319    28.212     7.682
    27   6 C        2.978    -0.020    28.498     8.757
    28   6 C        2.971     0.001    27.990     8.678
    29   6 C        2.921    -0.036    28.902     8.816
    30   6 C        2.916    -0.042    29.049     8.838
    31   6 C        2.926     0.053    26.819     8.493
    32   7 N        2.752    -0.033    21.889     6.949
    33   6 C        2.925     0.064    26.562     8.452
    34   6 C        2.921    -0.040    28.988     8.829
    35   6 C        2.918    -0.025    28.635     8.775
    36   6 C        2.919    -0.030    28.757     8.794
    37   6 C        2.918    -0.026    28.653     8.778
    38   6 C        2.921    -0.042    29.040     8.837
    39   6 C        2.925     0.064    26.561     8.452
    40   6 C        2.921    -0.040    28.990     8.830
    41   6 C        2.918    -0.025    28.635     8.775
    42   6 C        2.919    -0.030    28.758     8.794
    43   6 C        2.918    -0.026    28.653     8.778
    44   6 C        2.921    -0.042    29.043     8.838
    45   6 C        2.916    -0.042    29.051     8.838
    46   6 C        2.921    -0.036    28.907     8.817
    47   6 C        2.970    -0.020    28.500     8.757
    48   6 C        1.917     0.113    28.321     8.594
    49   7 N        0.911    -0.335    28.621     7.738
    50   6 C        2.993     0.012    27.741     8.640
    51   6 C        2.978     0.004    27.918     8.667
    52   6 C        2.923    -0.027    28.685     8.783
    53   6 C        2.920    -0.043    29.057     8.840
    54   6 C        2.925     0.066    26.528     8.447
    55   7 N        2.753    -0.045    22.109     6.984
    56   6 C        2.924     0.064    26.558     8.451
    57   6 C        2.921    -0.042    29.033     8.836
    58   6 C        2.919    -0.026    28.646     8.777
    59   6 C        2.919    -0.032    28.786     8.798
    60   6 C        2.919    -0.027    28.665     8.780
    61   6 C        2.921    -0.043    29.062     8.841
    62   6 C        2.925     0.064    26.562     8.452
    63   6 C        2.921    -0.041    29.020     8.834
    64   6 C        2.919    -0.026    28.643     8.776
    65   6 C        2.919    -0.031    28.779     8.797
    66   6 C        2.919    -0.026    28.663     8.779
    67   6 C        2.921    -0.042    29.051     8.839
    68   6 C        2.920    -0.043    29.067     8.841
    69   6 C        2.923    -0.028    28.708     8.787
    70   1 H        0.926     0.031     2.568     2.506
    71   1 H        0.926     0.043     2.409     2.427
    72   1 H        0.926     0.043     2.406     2.425
    73   1 H        0.926     0.045     2.380     2.412
    74   1 H        0.926     0.044     2.402     2.424
    75   1 H        0.926     0.043     2.410     2.427
    76   1 H        0.926     0.038     2.477     2.461
    77   1 H        0.926     0.043     2.408     2.427
    78   1 H        0.926     0.045     2.381     2.413
    79   1 H        0.926     0.044     2.402     2.424
    80   1 H        0.926     0.043     2.405     2.425
    81   1 H        0.926     0.039     2.468     2.457
    82   1 H        0.926     0.044     2.402     2.424
    83   1 H        0.926     0.030     2.589     2.516
    84   1 H        0.926     0.027     2.627     2.534
    85   1 H        0.926     0.039     2.467     2.456
    86   1 H        0.926     0.039     2.460     2.453
    87   1 H        0.926     0.044     2.400     2.422
    88   1 H        0.926     0.044     2.390     2.418
    89   1 H        0.926     0.046     2.368     2.406
    90   1 H        0.926     0.044     2.392     2.419
    91   1 H        0.926     0.039     2.456     2.451
    92   1 H        0.926     0.044     2.397     2.421
    93   1 H        0.926     0.044     2.390     2.418
    94   1 H        0.926     0.046     2.369     2.407
    95   1 H        0.926     0.044     2.394     2.419
    96   1 H        0.926     0.039     2.464     2.455
    97   1 H        0.926     0.026     2.639     2.540
    98   1 H        0.926     0.032     2.554     2.499
    99   1 H        0.926     0.045     2.384     2.414
   100   1 H        0.926     0.038     2.473     2.459
   101   1 H        0.926     0.043     2.411     2.428
   102   1 H        0.926     0.043     2.408     2.426
   103   1 H        0.926     0.045     2.385     2.415
   104   1 H        0.926     0.043     2.413     2.429
   105   1 H        0.926     0.038     2.479     2.462
   106   1 H        0.926     0.043     2.409     2.427
   107   1 H        0.926     0.043     2.403     2.424
   108   1 H        0.926     0.045     2.381     2.413
   109   1 H        0.926     0.043     2.409     2.427
   110   1 H        0.926     0.046     2.376     2.410
   111   1 H        0.926     0.032     2.563     2.504

molecular dipole:
                 x           y           z       tot (Debye)
 q only:        0.357      -0.234      -0.023
   full:        0.399      -0.264      -0.029       1.218

 projected vibrational frequencies (cm⁻¹)
eigval :        0.00     0.00     0.00     0.00     0.00     0.00
eigval :        5.53     7.32     7.73     8.90    11.93    13.40
eigval :       21.10    26.18    31.92    37.14    41.71    42.89
eigval :       44.89    46.94    51.52    57.74    59.94    61.57
eigval :       62.81    64.53    75.05    75.74    81.88    83.05
eigval :       90.31    97.11   100.44   112.99   123.65   128.22
eigval :      134.33   139.99   150.65   167.31   170.75   171.80
eigval :      184.22   196.71   206.99   216.12   220.91   227.96
eigval :      231.86   232.89   233.46   281.91   282.79   288.70
eigval :      303.58   304.60   307.99   315.41   317.48   331.18
eigval :      345.75   348.87   362.34   368.05   375.77   376.35
eigval :      376.64   377.49   377.92   378.06   380.26   386.79
eigval :      388.00   388.79   391.90   407.06   409.51   422.08
eigval :      443.70   460.52   464.40   468.37   471.98   478.59
eigval :      480.40   482.76   487.78   490.60   500.93   508.26
eigval :      514.29   516.92   525.64   567.59   568.75   575.54
eigval :      580.15   581.41   582.15   583.69   587.88   588.34
eigval :      590.64   591.98   592.55   594.83   605.50   610.52
eigval :      620.29   622.82   649.97   657.74   659.19   660.08
eigval :      660.87   661.39   663.16   664.55   677.58   679.26
eigval :      688.72   691.34   717.28   729.63   754.71   755.09
eigval :      755.81   756.76   757.37   758.89   788.96   792.29
eigval :      806.16   814.31   817.24   843.49   853.13   859.68
eigval :      866.24   867.52   868.20   869.45   870.52   872.17
eigval :      893.91   894.05   894.22   894.76   896.95   897.27
eigval :      906.89   907.08   908.37   908.70   908.75   910.92
eigval :      911.21   912.58   915.03   917.01   920.13   921.83
eigval :      923.97   924.27   925.03   926.33   926.59   926.93
eigval :      927.23   927.40   927.86   928.87   929.95   930.64
eigval :      965.66   974.20   976.03   980.30   993.30   997.50
eigval :      999.74  1001.40  1001.63  1008.44  1020.80  1041.09
eigval :     1050.06  1078.53  1079.01  1079.28  1079.55  1079.78
eigval :     1080.36  1118.53  1120.35  1120.83  1121.07  1122.63
eigval :     1123.15  1141.39  1143.11  1143.91  1147.50  1174.17
eigval :     1175.24  1176.63  1176.66  1176.83  1177.08  1177.99
eigval :     1179.72  1182.57  1188.71  1189.33  1190.88  1191.27
eigval :     1192.91  1202.33  1206.21  1213.11  1217.84  1225.21
eigval :     1226.92  1267.76  1268.47  1269.33  1272.27  1273.02
eigval :     1273.16  1274.82  1275.99  1276.29  1292.07  1296.65
eigval :     1298.21  1298.67  1303.96  1306.87  1310.13  1313.44
eigval :     1314.36  1315.77  1321.85  1323.32  1323.76  1324.58
eigval :     1324.76  1326.40  1329.92  1354.53  1372.20  1397.43
eigval :     1412.08  1415.61  1423.63  1430.48  1430.62  1430.73
eigval :     1436.83  1437.06  1437.35  1453.03  1455.10  1456.61
eigval :     1456.95  1457.76  1458.81  1461.41  1474.41  1481.30
eigval :     1487.99  1524.04  1540.96  1556.33  1560.85  1565.07
eigval :     1565.68  1567.47  1568.93  1570.81  1572.95  1574.96
eigval :     1578.92  1579.51  1580.26  1583.10  1586.79  1590.96
eigval :     2246.62  2272.16  2313.22  3074.68  3074.88  3075.17
eigval :     3077.64  3078.42  3079.12  3079.39  3079.47  3079.71
eigval :     3079.88  3080.01  3080.40  3080.46  3080.83  3080.90
eigval :     3080.97  3081.33  3081.55  3087.28  3087.43  3087.84
eigval :     3088.10  3088.54  3088.78  3089.30  3090.15  3090.43
eigval :     3090.84  3091.35  3091.48  3091.78  3092.29  3092.31
eigval :     3092.72  3093.53  3094.14  3099.01  3099.27  3099.36
eigval :     3099.76  3100.03  3100.53

   temp. (K)  partition function   enthalpy   heat capacity  entropy
                                   cal/mol     cal/K/mol   cal/K/mol   J/K/mol
 298.15  VIB  0.199E+31            35029.908    210.926    225.247
         ROT  0.367E+09              888.752      2.981     42.170
         INT  0.729E+39            35918.661    213.907    267.417
         TR   0.254E+29             1481.254      4.968     46.190
         TOT                       37399.9145   218.8754   313.6070  1312.1317

       T/K    H(0)-H(T)+PV         H(T)/Eh          T*S/Eh         G(T)/Eh
   ------------------------------------------------------------------------
    298.15    0.596006E-01    0.897756E+00    0.149005E+00    0.748751E+00
   ------------------------------------------------------------------------

         :::::::::::::::::::::::::::::::::::::::::::::::::::::
         ::                  THERMODYNAMIC                  ::
         :::::::::::::::::::::::::::::::::::::::::::::::::::::
         :: total free energy        -173.029778408098 Eh   ::
         ::.................................................::
         :: total energy             -173.778529714061 Eh   ::
         :: zero point energy           0.838155558434 Eh   ::
         :: G(RRHO) w/o ZPVE           -0.089404252471 Eh   ::
         :: G(RRHO) contrib.            0.748751305963 Eh   ::
         :::::::::::::::::::::::::::::::::::::::::::::::::::::

           -------------------------------------------------
          | TOTAL ENERGY             -173.778529714061 Eh   |
          | TOTAL ENTHALPY           -172.880773598206 Eh   |
          | TOTAL FREE ENERGY        -173.029778408098 Eh   |
          | GRADIENT NORM               0.000129269984 Eh/α |
          | HOMO-LUMO GAP               0.105626831977 eV   |
           -------------------------------------------------

 * finished run on 2025/08/30 at 16:38:01.832
