   * xtb version 6.7.1 (edcfbbe) compiled by 'albert@albert-system' on 2024-07-22

   ID    Z sym.   atoms
    1    7 N      1, 9, 26, 32, 49, 55
    2    6 C      2-8, 10-25, 27-31, 33-48, 50-54, 56-69
    3    1 H      70-111

          program call               : xtb data2507/toluene/3DPA3CN/3DPA3CN.xyz --gfn 2 --gbsa toluene --ohess vtight --parallel 40 --molden --ceasefiles --namespace data2507/toluene/3DPA3CN/3DPA3CN_toluene_S0_preOpt
      * Solvation model:               GBSA
        Solvent                        toluene
        Solvent mass                       9.2140E+01 g/mol
          :  Hamiltonian                  GFN2-xTB          :
 * total energy  :  -173.8028052 Eh     change       -0.4011895E-08 Eh
 * total energy  :  -173.8231613 Eh     change       -0.2035605E-01 Eh
 * total energy  :  -173.8310287 Eh     change       -0.7867485E-02 Eh
 * total energy  :  -173.8341599 Eh     change       -0.3131150E-02 Eh
 * total energy  :  -173.8361700 Eh     change       -0.2010130E-02 Eh
 * total energy  :  -173.8368884 Eh     change       -0.7183296E-03 Eh
 * total energy  :  -173.8375771 Eh     change       -0.6887695E-03 Eh
 * total energy  :  -173.8378474 Eh     change       -0.2703156E-03 Eh
 * total energy  :  -173.8382059 Eh     change       -0.3584520E-03 Eh
 * total energy  :  -173.8383576 Eh     change       -0.1516970E-03 Eh
 * total energy  :  -173.8471194 Eh     change       -0.9279328E-06 Eh
 * total energy  :  -173.8471203 Eh     change       -0.9579676E-06 Eh
 * total energy  :  -173.8471213 Eh     change       -0.9706314E-06 Eh
 * total energy  :  -173.8471223 Eh     change       -0.9737532E-06 Eh
 * total energy  :  -173.8471233 Eh     change       -0.9831912E-06 Eh
 * total energy  :  -173.8471243 Eh     change       -0.9982696E-06 Eh
 * total energy  :  -173.8471253 Eh     change       -0.1016009E-05 Eh
 * total energy  :  -173.8471263 Eh     change       -0.1028561E-05 Eh
 * total energy  :  -173.8471263 Eh     change       -0.4387744E-08 Eh
   *** GEOMETRY OPTIMIZATION CONVERGED AFTER 221 ITERATIONS ***

 final structure:
================
111
 xtb: 6.7.1 (edcfbbe)
N           -1.28361696929712        3.77983211921677        0.01002634388073
C           -0.91295227921943        2.69291070534477        0.01101233913552
C           -0.45715477206871        1.35533710006403        0.01188395469212
C            0.92352542893028        1.09776133526550        0.02560972717656
C            1.89583436586666        2.19131335112308        0.05013681661060
C            1.80079156693205        3.21676297497884        0.99160795978061
C            2.72508222950137        4.23548282547893        1.01982281717986
C            3.76938706211939        4.28001016426609        0.08911532189122
N            4.69176847635354        5.31291885862660        0.10772031680587
C            4.32476567928094        6.59229204842802        0.56147201705960
C            5.20069271493090        7.33037986775789        1.35538116795552
C            4.84683571382027        8.59386714246479        1.78990254657719
C            3.61802534687188        9.13442385661240        1.44688853649020
C            2.74425335520546        8.40341433104519        0.65810027318234
C            3.09231944006004        7.14223566934233        0.21236226215054
C            6.01301213320663        5.10402327543874       -0.32458648326084
C            6.66450726113439        6.08001085142022       -1.07666558195097
C            7.96862763270978        5.88299029232513       -1.48974973336618
C            8.63701361355668        4.71309224074330       -1.16662393183536
C            7.99215997996562        3.73986165819893       -0.42024712653792
C            6.69090417795938        3.93122799199625        0.00465076599335
C            3.85819117329024        3.25527357825710       -0.86005653255230
C            2.94584524651400        2.22556453859650       -0.86872745403716
C            1.35872639902597       -0.23719920186559        0.02770204414205
C            2.73725619992834       -0.50751002514886        0.18219183913518
N            3.84939629133896       -0.72450530332860        0.36882297142862
C            0.44834727135715       -1.30633658326344        0.01041067523582
C            0.91846508380842       -2.69028225196060        0.00849822673976
C            0.39467686814378       -3.62297032653640        0.90525094011697
C            0.84374693303061       -4.92303339834950        0.91349916928381
C            1.81882918081341       -5.34862569145926        0.00354713688524
N            2.26231395174389       -6.65994361295085        0.00081013863684
C            1.41334677670972       -7.70558783170848        0.40542954115638
C            0.07369668917413       -7.72172248472783        0.02043415247096
C           -0.74992606608879       -8.75761385929510        0.41927304346240
C           -0.25103909156676       -9.79172526478810        1.19501170931863
C            1.08199272897259       -9.78289450727960        1.57285584001978
C            1.91151397367860       -8.74739455944312        1.18569945282196
C            3.57208915045193       -6.97456787573980       -0.40314159793553
C            4.64604348196397       -6.17419803778986       -0.01694079419226
C            5.92994199431647       -6.49781757714887       -0.41359858923956
C            6.16215162361472       -7.62248688841054       -1.18899233398583
C            5.09793166012494       -8.42446974212172       -1.56844004475994
C            3.80961462172353       -8.10468666202716       -1.18343402955684
C            2.33392637708284       -4.41505081338207       -0.90363906830869
C            1.90015355609760       -3.10982140372664       -0.89076589521494
C           -0.92517127957581       -1.01413000491326       -0.00528091484405
C           -1.85413613257852       -2.06798603857565       -0.15927915884759
N           -2.60601521525899       -2.91599401308737       -0.34464032570741
C           -1.39397645458064        0.30926519216365       -0.00192149686674
C           -2.83189580363689        0.58216955048950       -0.02867709010054
C           -3.38122296568848        1.44392573422598       -0.97846513645277
C           -4.73571199523677        1.68308112245227       -1.01288861645094
C           -5.59144773335990        1.08560596501315       -0.08052666813732
N           -6.95412563706158        1.33493692301950       -0.10946014629159
C           -7.87364341255926        0.35967820232378        0.31198979230367
C           -7.67255130861611       -0.98590755992835        0.00685076519035
C           -8.58760656693280       -1.93547015001407        0.42074624234315
C           -9.71723334108511       -1.55973748826276        1.12987632721537
C           -9.92447255321117       -0.22267456325857        1.42844850692383
C           -9.00972857509457        0.73298672639117        1.02848829166194
C           -7.44093264259809        2.57231891194222       -0.56779457115954
C           -6.80706054160911        3.75994435756122       -0.20599172755281
C           -7.29646848086854        4.97216555544010       -0.65477694860091
C           -8.42351156213092        5.01864618448284       -1.45955966084491
C           -9.05973400276056        3.84051530407986       -1.81615896428534
C           -8.57324176741608        2.62297620392610       -1.37868746497310
C           -5.03707051463608        0.23131726374333        0.87928069926870
C           -3.68522595861438       -0.02438681183900        0.89410971491285
H            1.01633149408828        3.19249028467058        1.73395210885164
H            2.65020159490396        5.00384534865314        1.77415360918635
H            6.15584986530218        6.90607688537657        1.62834614981556
H            5.53243016585707        9.15593062969239        2.40694755610155
H            3.34340797221748       10.12022434877161        1.79076773925395
H            1.78669205127778        8.81898452415956        0.38049900657746
H            2.41283242293454        6.57724884333200       -0.40932801774587
H            6.14129006087267        6.98941247131466       -1.33395744821162
H            8.46266757529750        6.64528075384853       -2.07415725044630
H            9.65486048431915        4.56117653010256       -1.49288939415837
H            8.50713640581081        2.82721196653713       -0.15842140756106
H            6.19369978897937        3.17495829770818        0.59483989773918
H            4.64559733319098        3.27878042548627       -1.59795329684293
H            3.02282940070842        1.45567128933853       -1.62310840090473
H           -0.34328363976132       -3.31253625604873        1.63089257706829
H            0.44713347812536       -5.62078829258549        1.63513758165991
H           -0.31534730853836       -6.92099722893540       -0.59190460962890
H           -1.78623609562166       -8.75913095050538        0.11477539114445
H           -0.89721193647630      -10.60014681146519        1.50223957312822
H            1.47824570796103      -10.58360465694383        2.17992165397856
H            2.94930293142789       -8.73733542902002        1.48546866034119
H            4.46864048473394       -5.30173134063689        0.59525029646087
H            6.75397263242241       -5.87006074729393       -0.10776710434064
H            7.16686951204214       -7.87304936910472       -1.49429925048926
H            5.26987772424155       -9.30149366944137       -2.17505035302936
H            2.97916181549616       -8.72653408438287       -1.48429914278178
H            3.07225382845462       -4.72572865935345       -1.62703884705474
H            2.29686015164467       -2.41239086680170       -1.61441100668910
H           -2.74339194616299        1.89889918147680       -1.72226194312737
H           -5.14479376829656        2.33033111610709       -1.77363936830342
H           -6.79950320178870       -1.28116576371420       -0.55707631929935
H           -8.42017137770723       -2.97458784628499        0.17797894778633
H          -10.43157048242030       -2.30448838939651        1.44704126163704
H          -10.80036393966393        0.07891983923513        1.98396473884979
H           -9.16825420017615        1.77415957956278        1.26868694926544
H           -5.93260140700362        3.72607313516834        0.42771638691352
H           -6.79706317076761        5.88570498579767       -0.36714039284687
H           -8.80414131547690        5.96766035055208       -1.80598128328901
H           -9.93692063919580        3.86809146679012       -2.44584375944718
H           -9.06513886370542        1.70392852953815       -1.66204212852594
H           -5.67612005183745       -0.22490686048183        1.61991898289352
H           -3.27685732570633       -0.67417400275110        1.65487035668073

          :  Hamiltonian                  GFN2-xTB          :
         :: gradient norm              0.000063202407 Eh/a0 ::
         :: HOMO-LUMO gap              1.569263805899 eV    ::
         :: SCC energy              -177.225971837171 Eh    ::
         :: -> dispersion             -0.162634546436 Eh    ::
         :: -> Gsolv                  -0.078387662828 Eh    ::
         :: repulsion energy           3.378845522112 Eh    ::

    * Orbital Energies and Occupations

         #    Occupation            Energy/Eh            Energy/eV
      -------------------------------------------------------------
         1        2.0000           -0.6938209             -18.8798
       ...           ...                  ...                  ...
       150        2.0000           -0.4117592             -11.2045
       151        2.0000           -0.4115530             -11.1989
       152        2.0000           -0.4110200             -11.1844
       153        2.0000           -0.4106423             -11.1741
       154        2.0000           -0.4094640             -11.1421
       155        2.0000           -0.4091469             -11.1335
       156        2.0000           -0.4090006             -11.1295
       157        2.0000           -0.4078268             -11.0975
       158        2.0000           -0.4073018             -11.0832
       159        2.0000           -0.4071694             -11.0796
       160        2.0000           -0.3579040              -9.7391
       161        2.0000           -0.3577206              -9.7341
       162        2.0000           -0.3569433              -9.7129 (HOMO)
       163                         -0.2992740              -8.1437 (LUMO)
       164                         -0.2988570              -8.1323
       165                         -0.2566014              -6.9825
       166                         -0.2392751              -6.5110
       167                         -0.2390231              -6.5042
       168                         -0.2365990              -6.4382
       169                         -0.2355117              -6.4086
       170                         -0.2343730              -6.3776
       171                         -0.2340628              -6.3692
       172                         -0.2340175              -6.3679
       173                         -0.2339180              -6.3652
       ...                                ...                  ...
       318                          1.1470422              31.2126
      -------------------------------------------------------------
                  HL-Gap            0.0576694 Eh            1.5693 eV

     #   Z          covCN         q      C6AA      α(0)
     1   7 N        0.911    -0.271    27.005     7.516
     2   6 C        1.912     0.124    28.053     8.554
     3   6 C        2.976    -0.002    28.062     8.689
     4   6 C        2.988     0.029    27.344     8.578
     5   6 C        2.977    -0.008    28.206     8.712
     6   6 C        2.922    -0.028    28.710     8.787
     7   6 C        2.921    -0.048    29.187     8.859
     8   6 C        2.922     0.072    26.392     8.425
     9   7 N        2.752    -0.068    22.563     7.055
    10   6 C        2.925     0.063    26.580     8.455
    11   6 C        2.922    -0.045    29.120     8.849
    12   6 C        2.919    -0.029    28.717     8.788
    13   6 C        2.919    -0.036    28.892     8.814
    14   6 C        2.919    -0.028    28.711     8.787
    15   6 C        2.922    -0.045    29.119     8.849
    16   6 C        2.925     0.063    26.580     8.455
    17   6 C        2.922    -0.045    29.124     8.850
    18   6 C        2.919    -0.029    28.718     8.788
    19   6 C        2.919    -0.036    28.896     8.815
    20   6 C        2.919    -0.028    28.712     8.787
    21   6 C        2.921    -0.045    29.124     8.850
    22   6 C        2.921    -0.048    29.197     8.861
    23   6 C        2.922    -0.028    28.708     8.787
    24   6 C        2.977    -0.002    28.062     8.689
    25   6 C        1.913     0.124    28.059     8.555
    26   7 N        0.911    -0.272    27.039     7.521
    27   6 C        2.987     0.029    27.349     8.579
    28   6 C        2.977    -0.008    28.202     8.711
    29   6 C        2.922    -0.028    28.702     8.786
    30   6 C        2.921    -0.048    29.194     8.860
    31   6 C        2.922     0.072    26.386     8.424
    32   7 N        2.752    -0.067    22.547     7.052
    33   6 C        2.925     0.063    26.582     8.455
    34   6 C        2.921    -0.045    29.118     8.849
    35   6 C        2.919    -0.028    28.709     8.787
    36   6 C        2.919    -0.036    28.889     8.814
    37   6 C        2.919    -0.029    28.715     8.788
    38   6 C        2.922    -0.045    29.118     8.849
    39   6 C        2.925     0.063    26.582     8.455
    40   6 C        2.921    -0.045    29.119     8.849
    41   6 C        2.919    -0.028    28.710     8.787
    42   6 C        2.919    -0.036    28.890     8.814
    43   6 C        2.919    -0.029    28.715     8.787
    44   6 C        2.922    -0.045    29.118     8.849
    45   6 C        2.921    -0.048    29.193     8.860
    46   6 C        2.922    -0.028    28.702     8.786
    47   6 C        2.977    -0.002    28.062     8.689
    48   6 C        1.913     0.124    28.059     8.555
    49   7 N        0.911    -0.272    27.039     7.521
    50   6 C        2.988     0.029    27.344     8.578
    51   6 C        2.977    -0.008    28.202     8.711
    52   6 C        2.922    -0.028    28.710     8.787
    53   6 C        2.921    -0.048    29.182     8.859
    54   6 C        2.922     0.072    26.393     8.425
    55   7 N        2.752    -0.068    22.565     7.055
    56   6 C        2.924     0.063    26.580     8.455
    57   6 C        2.921    -0.046    29.135     8.852
    58   6 C        2.919    -0.029    28.714     8.787
    59   6 C        2.919    -0.036    28.904     8.816
    60   6 C        2.919    -0.029    28.721     8.788
    61   6 C        2.922    -0.046    29.134     8.851
    62   6 C        2.925     0.063    26.580     8.455
    63   6 C        2.922    -0.045    29.117     8.849
    64   6 C        2.919    -0.028    28.710     8.787
    65   6 C        2.919    -0.036    28.892     8.814
    66   6 C        2.919    -0.029    28.718     8.788
    67   6 C        2.922    -0.045    29.117     8.849
    68   6 C        2.921    -0.048    29.190     8.860
    69   6 C        2.922    -0.028    28.710     8.787
    70   1 H        0.926     0.033     2.549     2.497
    71   1 H        0.926     0.043     2.408     2.426
    72   1 H        0.926     0.036     2.508     2.476
    73   1 H        0.926     0.038     2.472     2.459
    74   1 H        0.926     0.037     2.490     2.468
    75   1 H        0.926     0.038     2.477     2.461
    76   1 H        0.926     0.034     2.532     2.488
    77   1 H        0.926     0.035     2.510     2.477
    78   1 H        0.926     0.038     2.474     2.460
    79   1 H        0.926     0.037     2.492     2.469
    80   1 H        0.926     0.038     2.479     2.462
    81   1 H        0.926     0.034     2.529     2.487
    82   1 H        0.926     0.043     2.406     2.425
    83   1 H        0.926     0.032     2.555     2.500
    84   1 H        0.926     0.033     2.551     2.498
    85   1 H        0.926     0.043     2.404     2.425
    86   1 H        0.926     0.034     2.527     2.486
    87   1 H        0.926     0.038     2.475     2.460
    88   1 H        0.926     0.037     2.488     2.466
    89   1 H        0.926     0.038     2.470     2.458
    90   1 H        0.926     0.036     2.506     2.475
    91   1 H        0.926     0.034     2.527     2.486
    92   1 H        0.926     0.038     2.475     2.460
    93   1 H        0.926     0.037     2.488     2.467
    94   1 H        0.926     0.038     2.471     2.458
    95   1 H        0.926     0.036     2.506     2.475
    96   1 H        0.926     0.043     2.404     2.424
    97   1 H        0.926     0.033     2.551     2.498
    98   1 H        0.926     0.033     2.550     2.497
    99   1 H        0.926     0.043     2.408     2.427
   100   1 H        0.926     0.034     2.533     2.489
   101   1 H        0.926     0.037     2.483     2.464
   102   1 H        0.926     0.036     2.497     2.471
   103   1 H        0.926     0.038     2.479     2.462
   104   1 H        0.926     0.035     2.512     2.479
   105   1 H        0.926     0.034     2.534     2.489
   106   1 H        0.926     0.038     2.477     2.461
   107   1 H        0.926     0.037     2.489     2.467
   108   1 H        0.926     0.038     2.472     2.459
   109   1 H        0.926     0.036     2.506     2.475
   110   1 H        0.926     0.044     2.402     2.424
   111   1 H        0.926     0.032     2.554     2.499

molecular dipole:
                 x           y           z       tot (Debye)
 q only:        0.070      -0.091      -0.014
   full:        0.072      -0.096      -0.014       0.307

 projected vibrational frequencies (cm⁻¹)
eigval :       -0.00    -0.00    -0.00     0.00     0.00     0.00
eigval :        8.96     9.38    10.13    10.60    13.23    14.44
eigval :       23.63    28.79    31.90    37.94    44.71    45.43
eigval :       47.43    50.34    52.19    58.99    60.02    60.62
eigval :       63.51    64.25    73.75    77.20    77.96    81.66
eigval :       92.28   100.15   102.43   115.48   122.01   124.47
eigval :      135.04   139.37   142.44   166.69   168.80   169.49
eigval :      188.23   196.52   207.92   218.25   223.63   231.86
eigval :      235.04   236.37   236.83   278.70   283.94   288.61
eigval :      304.39   304.72   306.22   321.08   329.16   337.08
eigval :      347.20   348.91   363.97   370.65   374.47   378.54
eigval :      378.75   379.11   381.19   381.45   382.22   390.73
eigval :      392.33   392.82   393.89   405.62   410.92   421.28
eigval :      463.41   471.13   473.48   475.43   483.28   485.45
eigval :      487.23   488.08   491.39   491.76   502.90   504.34
eigval :      512.23   540.13   541.44   571.01   571.18   583.28
eigval :      584.24   584.34   585.36   589.30   589.52   592.51
eigval :      593.51   593.74   605.19   605.54   608.73   620.00
eigval :      639.79   643.72   660.38   661.62   662.27   664.07
eigval :      664.91   668.27   669.58   677.44   682.43   692.09
eigval :      693.11   715.98   719.99   731.83   757.79   758.51
eigval :      760.13   761.00   761.87   764.41   793.43   794.34
eigval :      818.31   818.95   820.85   862.96   863.69   864.94
eigval :      874.68   876.24   876.40   877.77   878.64   879.53
eigval :      893.71   895.47   897.21   897.87   898.65   900.86
eigval :      909.15   909.22   909.53   912.07   915.23   915.63
eigval :      916.14   919.57   919.70   924.19   924.40   924.88
eigval :      927.45   928.69   929.80   929.91   930.19   930.43
eigval :      931.02   931.39   932.39   933.48   933.63   935.55
eigval :      977.27   977.91   978.24   995.82   996.04  1002.48
eigval :     1004.14  1004.18  1004.66  1028.88  1029.32  1065.44
eigval :     1081.13  1081.26  1081.46  1082.35  1082.61  1082.73
eigval :     1120.25  1120.26  1120.90  1121.86  1122.41  1122.63
eigval :     1148.34  1148.52  1149.66  1177.87  1178.04  1178.62
eigval :     1179.04  1179.86  1179.95  1183.88  1184.44  1184.96
eigval :     1193.04  1193.55  1194.14  1196.81  1196.94  1198.93
eigval :     1210.50  1210.93  1217.24  1229.93  1231.06  1271.16
eigval :     1272.06  1272.40  1276.20  1276.36  1276.50  1279.69
eigval :     1280.46  1280.87  1287.14  1295.81  1302.19  1302.49
eigval :     1303.60  1313.60  1313.65  1313.93  1322.38  1322.46
eigval :     1322.54  1325.42  1326.39  1326.42  1328.06  1330.50
eigval :     1331.06  1368.74  1395.40  1396.52  1417.01  1417.71
eigval :     1418.51  1433.75  1433.92  1434.46  1438.97  1439.36
eigval :     1439.76  1466.90  1467.19  1468.08  1470.46  1470.63
eigval :     1470.80  1481.84  1482.75  1495.04  1496.95  1497.11
eigval :     1544.52  1545.52  1546.28  1576.90  1577.04  1577.29
eigval :     1580.44  1580.56  1580.88  1586.75  1586.81  1587.88
eigval :     1590.18  1590.37  1590.62  1597.81  1597.89  1598.02
eigval :     2348.56  2348.83  2354.03  3074.15  3074.49  3074.66
eigval :     3074.89  3075.06  3075.34  3075.39  3075.40  3075.61
eigval :     3075.69  3075.72  3075.97  3076.12  3076.26  3076.56
eigval :     3078.09  3078.94  3079.22  3083.15  3083.44  3083.81
eigval :     3083.94  3084.31  3084.33  3086.53  3086.61  3087.05
eigval :     3087.68  3087.73  3088.02  3095.75  3095.78  3096.08
eigval :     3096.14  3096.26  3096.35  3096.63  3096.67  3096.78
eigval :     3098.04  3098.33  3098.74

   temp. (K)  partition function   enthalpy   heat capacity  entropy
                                   cal/mol     cal/K/mol   cal/K/mol   J/K/mol
 298.15  VIB  0.274E+30            34739.505    209.295    222.518
         ROT  0.370E+09              888.752      2.981     42.187
         INT  0.101E+39            35628.257    212.276    264.705
         TR   0.254E+29             1481.254      4.968     46.190
         TOT                       37109.5111   217.2440   310.8945  1300.7826

       T/K    H(0)-H(T)+PV         H(T)/Eh          T*S/Eh         G(T)/Eh
   ------------------------------------------------------------------------
    298.15    0.591378E-01    0.902596E+00    0.147716E+00    0.754880E+00
   ------------------------------------------------------------------------

         :::::::::::::::::::::::::::::::::::::::::::::::::::::
         ::                  THERMODYNAMIC                  ::
         :::::::::::::::::::::::::::::::::::::::::::::::::::::
         :: total free energy        -173.092246318487 Eh   ::
         ::.................................................::
         :: total energy             -173.847126300011 Eh   ::
         :: zero point energy           0.843458222954 Eh   ::
         :: G(RRHO) w/o ZPVE           -0.088578241430 Eh   ::
         :: G(RRHO) contrib.            0.754879981524 Eh   ::
         :::::::::::::::::::::::::::::::::::::::::::::::::::::

           -------------------------------------------------
          | TOTAL ENERGY             -173.847126300011 Eh   |
          | TOTAL ENTHALPY           -172.944530306821 Eh   |
          | TOTAL FREE ENERGY        -173.092246318487 Eh   |
          | GRADIENT NORM               0.000063182389 Eh/α |
          | HOMO-LUMO GAP               1.569263792390 eV   |
           -------------------------------------------------

 * finished run on 2025/08/30 at 15:40:48.201
