   * xtb version 6.7.1 (edcfbbe) compiled by 'albert@albert-system' on 2024-07-22

   ID    Z sym.   atoms
    1    7 N      1, 9, 26, 32, 49, 55
    2    6 C      2-8, 10-25, 27-31, 33-48, 50-54, 56-69
    3    1 H      70-111

          program call               : xtb data2507/toluene/3DPA3CN/3DPA3CN_toluene_S0_finalOpt.xtbopt.xyz --gfn 2 --uhf 2 --gbsa toluene --ohess vtight --parallel 40 --molden --ceasefiles --namespace data2507/toluene/3DPA3CN/3DPA3CN_toluene_T1_preOpt
      * Solvation model:               GBSA
        Solvent                        toluene
        Solvent mass                       9.2140E+01 g/mol
          :  Hamiltonian                  GFN2-xTB          :
 * total energy  :  -173.7758072 Eh     change       -0.2633840E-09 Eh
 * total energy  :  -173.7772724 Eh     change       -0.1465117E-02 Eh
 * total energy  :  -173.7775545 Eh     change       -0.2820939E-03 Eh
 * total energy  :  -173.7776121 Eh     change       -0.5764842E-04 Eh
 * total energy  :  -173.7776972 Eh     change       -0.8505634E-04 Eh
 * total energy  :  -173.7777510 Eh     change       -0.5386528E-04 Eh
 * total energy  :  -173.7777997 Eh     change       -0.4871590E-04 Eh
 * total energy  :  -173.7778395 Eh     change       -0.3977381E-04 Eh
 * total energy  :  -173.7778772 Eh     change       -0.3772100E-04 Eh
 * total energy  :  -173.7779192 Eh     change       -0.4193733E-04 Eh
 * total energy  :  -173.7785627 Eh     change       -0.5647698E-06 Eh
 * total energy  :  -173.7785632 Eh     change       -0.5323456E-06 Eh
 * total energy  :  -173.7785637 Eh     change       -0.4485574E-06 Eh
 * total energy  :  -173.7785640 Eh     change       -0.3606709E-06 Eh
 * total energy  :  -173.7785643 Eh     change       -0.2250283E-06 Eh
 * total energy  :  -173.7785644 Eh     change       -0.1793275E-06 Eh
 * total energy  :  -173.7785647 Eh     change       -0.2240375E-06 Eh
 * total energy  :  -173.7785649 Eh     change       -0.2841869E-06 Eh
 * total energy  :  -173.7785650 Eh     change       -0.2669964E-07 Eh
   *** GEOMETRY OPTIMIZATION CONVERGED AFTER 92 ITERATIONS ***

 final structure:
================
111
 xtb: 6.7.1 (edcfbbe)
N            0.12194119603625        4.00526937960327       -0.07229200915427
C            0.09937377207064        2.84823466084851       -0.04847590023847
C            0.05656015857540        1.45585055828230       -0.02955162354015
C            1.26521900965052        0.69029395895717       -0.03194958147733
C            2.56214077624876        1.35306816756928        0.00411106211234
C            2.82243096447956        2.38897349958630        0.90893172937948
C            4.05231645586311        3.00228330320358        0.95010954878413
C            5.07173658677570        2.60981108646216        0.07555610881918
N            6.31875652882203        3.23318047034614        0.11247004326039
C            6.40832163930570        4.60268541110984        0.38010147764480
C            7.46625458570593        5.10648373220207        1.14048559773340
C            7.55267514448100        6.46060754460500        1.39749642740891
C            6.59009806435836        7.33087497335478        0.90882434171958
C            5.53502938835564        6.83504592074769        0.15803832957675
C            5.44075697576438        5.48340796799283       -0.10929290525412
C            7.47890343265489        2.48729173721832       -0.11869316405042
C            8.55064929260453        3.04702115527454       -0.81819064629878
C            9.69556405910203        2.30765305755399       -1.04103973043436
C            9.79074418955322        1.00433610204226       -0.57736429870319
C            8.72775341327097        0.44270600160688        0.11363944024247
C            7.57936036984472        1.17388218786246        0.34625478116950
C            4.81642695658187        1.58074279555360       -0.83721458500561
C            3.58736042815085        0.96541940683297       -0.86765637699380
C            1.17749428146755       -0.70544751618198       -0.04171970719509
C            2.36260577284894       -1.43577250084407        0.16899073757294
N            3.32694119383567       -2.01523947253645        0.41718525375644
C           -0.06141524300198       -1.39196651505396       -0.04455645596981
C           -0.12593391021162       -2.83253608373034       -0.04510442070257
C           -1.07978804011659       -3.52437253374623        0.72475396129886
C           -1.13677865658273       -4.89505712249523        0.72808205502687
C           -0.24499246239493       -5.64806806816547       -0.04769677621931
N           -0.30033012433648       -7.04231127095134       -0.04562377484968
C           -1.53640602024064       -7.68837398969533        0.02181168356303
C           -2.65230087785669       -7.14659690895270       -0.62236209394973
C           -3.87367454975514       -7.78631089302487       -0.54917528735500
C           -4.00491531350525       -8.97182709863251        0.15860068458241
C           -2.90112704685273       -9.51317490777012        0.80059883585181
C           -1.67552513901631       -8.88054632140030        0.73815472332706
C            0.88185673100942       -7.78289259486112       -0.10866662872796
C            2.03657342129547       -7.32513312981339        0.53236615108215
C            3.20468356486312       -8.05793427275463        0.46348955037898
C            3.24348008629287       -9.25446529810777       -0.23682719893321
C            2.10089742544550       -9.71281991933954       -0.87557401172768
C            0.92799154694104       -8.98667087014439       -0.81755661500106
C            0.70403593673790       -4.97183480342604       -0.82622726479282
C            0.76155459422348       -3.60135461020367       -0.82181385104822
C           -1.25449382073456       -0.59334588385405       -0.03619902284597
C           -2.50976551193641       -1.18841615294214       -0.20146168804721
N           -3.55207960107145       -1.65114167898426       -0.38720620033150
C           -1.19098604856846        0.80106504208334       -0.02704252020866
C           -2.43456902332836        1.58298738120592       -0.03367825270101
C           -2.68544432672605        2.52269082680709       -1.03269688072916
C           -3.86236168754973        3.23767266890042       -1.04827158829501
C           -4.82311490524870        3.04081784402649       -0.05267153341641
N           -6.01621909245033        3.76291793863777       -0.06624965108570
C           -7.20714094519492        3.15185831482450        0.34162383472321
C           -7.44853741859272        1.80805228558474        0.04753582788290
C           -8.62663791329106        1.21119489689621        0.45221703366703
C           -9.58037990178260        1.93889864916028        1.14735683875217
C           -9.34547254638022        3.27345496365771        1.44061877204946
C           -8.16885710762124        3.87948497552430        1.04559079458626
C           -6.02182187580017        5.09541926088852       -0.49335498931837
C           -4.95165646037460        5.93895986325287       -0.18750953648248
C           -4.96263863712989        7.25366245141172       -0.61095054411107
C           -6.03564759842200        7.74919958405265       -1.33580182966144
C           -7.10052187191360        6.91564260245255       -1.64136094181329
C           -7.09778104250465        5.59773899843116       -1.22807397331071
C           -4.56979627048935        2.10678688306435        0.95544186689255
C           -3.39588480675441        1.38702106720194        0.95774561815798
H            2.05678467267498        2.68762599415312        1.60983577320659
H            4.24143163320267        3.77958353826289        1.67540122132969
H            8.20716266289736        4.42743320003732        1.53551692335150
H            8.37218119885469        6.83775153078690        1.99091222409040
H            6.66037486406486        8.38836921710529        1.11292349304308
H            4.78245961298747        7.50537564822196       -0.22965018741307
H            4.62436741476794        5.10091257393988       -0.70418609077700
H            8.46985503111032        4.05624390584299       -1.19389288367116
H           10.51538887014364        2.74890319281040       -1.58805771379955
H           10.68665192785264        0.42917961073540       -0.75474114602435
H            8.79486096494085       -0.57003130077974        0.48224477425727
H            6.75706357975709        0.73873228926234        0.89515734910178
H            5.58556466239741        1.28283952172234       -1.53420124146602
H            3.39964135781161        0.19079187261420       -1.59724994941790
H           -1.75396944979422       -2.96723026108298        1.35823510741328
H           -1.85649617522163       -5.40279492085743        1.35327577561255
H           -2.54871139247412       -6.23061314670837       -1.18525632189851
H           -4.72666602670060       -7.35929980645203       -1.05518804186349
H           -4.96139664276342       -9.46895942698744        0.21121692554185
H           -2.99786428073760      -10.43037830555757        1.36212647932621
H           -0.82142318247094       -9.29254252394444        1.25470511795077
H            2.00432048787577       -6.40039468587206        1.08946419766000
H            4.08839540017975       -7.69501960234472        0.96681788513930
H            4.15859574005900       -9.82452100850283       -0.28570678248850
H            2.12627498809537      -10.63840155887529       -1.43112667988438
H            0.04419376756112       -9.33486989222154       -1.33115513791979
H            1.37647804764964       -5.53762841965568       -1.45422493877984
H            1.47623681841951       -3.10160861369710       -1.45910698756889
H           -1.95953289494698        2.67185390420622       -1.81868197991902
H           -4.05323285045373        3.94330394893381       -1.84295582495176
H           -6.71233688870723        1.24187776020836       -0.50418158646136
H           -8.80245950909005        0.17250350485797        0.21499012336013
H          -10.50034856166236        1.46836882958246        1.45917525694889
H          -10.07984918552598        3.84457397176682        1.98880947367840
H           -7.97952019590479        4.91456336943655        1.28829403444784
H           -4.12015324316220        5.55832748181015        0.38737576863317
H           -4.13068384097368        7.89650199729222       -0.36482462849991
H           -6.04065760808045        8.77819689764883       -1.66152052648339
H           -7.93550652747088        7.29176415649300       -2.21351145146262
H           -7.91986637597276        4.94455725631648       -1.48039445171793
H           -5.29513793702580        1.95846803193638        1.74141394118823
H           -3.20612536532742        0.67665911450508        1.74978105251015

          :  Hamiltonian                  GFN2-xTB          :
         :: gradient norm              0.000188759094 Eh/a0 ::
         :: HOMO-LUMO gap              0.101656040195 eV    ::
         :: SCC energy              -177.135127064618 Eh    ::
         :: -> dispersion             -0.162863098082 Eh    ::
         :: -> Gsolv                  -0.089111122117 Eh    ::
         :: repulsion energy           3.356562090703 Eh    ::

    * Orbital Energies and Occupations

         #    Occupation            Energy/Eh            Energy/eV
      -------------------------------------------------------------
         1        2.0000           -0.6802810             -18.5114
       ...           ...                  ...                  ...
       151        2.0000           -0.4136264             -11.2553
       152        2.0000           -0.4134466             -11.2505
       153        2.0000           -0.4132418             -11.2449
       154        2.0000           -0.4122579             -11.2181
       155        2.0000           -0.4117415             -11.2041
       156        2.0000           -0.4066967             -11.0668
       157        2.0000           -0.4056022             -11.0370
       158        2.0000           -0.3982869             -10.8379
       159        2.0000           -0.3909322             -10.6378
       160        1.8037           -0.3616547              -9.8411
       161        1.7461           -0.3613398              -9.8326
       162        1.4502           -0.3601260              -9.7995
       163        0.8772           -0.2800812              -7.6214 (HOMO)
       164        0.1228           -0.2763454              -7.5197 (LUMO)
       165                         -0.2486024              -6.7648
       166                         -0.2418207              -6.5803
       167                         -0.2408042              -6.5526
       168                         -0.2401094              -6.5337
       169                         -0.2371034              -6.4519
       170                         -0.2363069              -6.4302
       171                         -0.2359729              -6.4211
       172                         -0.2337921              -6.3618
       173                         -0.2315057              -6.2996
       174                         -0.2313195              -6.2945
       ...                                ...                  ...
       318                          1.1582878              31.5186
      -------------------------------------------------------------
                  HL-Gap            0.0037358 Eh            0.1017 eV

     #   Z          covCN         q      C6AA      α(0)
     1   7 N        0.911    -0.348    28.963     7.783
     2   6 C        1.911     0.106    28.466     8.616
     3   6 C        2.969    -0.029    28.722     8.791
     4   6 C        2.987    -0.003    28.093     8.694
     5   6 C        2.975     0.003    27.957     8.673
     6   6 C        2.922    -0.030    28.760     8.794
     7   6 C        2.919    -0.043    29.058     8.840
     8   6 C        2.925     0.061    26.632     8.463
     9   7 N        2.752    -0.041    22.032     6.971
    10   6 C        2.925     0.064    26.560     8.452
    11   6 C        2.921    -0.042    29.052     8.839
    12   6 C        2.919    -0.026    28.660     8.779
    13   6 C        2.919    -0.031    28.773     8.796
    14   6 C        2.919    -0.026    28.641     8.776
    15   6 C        2.921    -0.041    29.014     8.833
    16   6 C        2.925     0.064    26.561     8.452
    17   6 C        2.921    -0.042    29.051     8.839
    18   6 C        2.919    -0.026    28.660     8.779
    19   6 C        2.919    -0.031    28.774     8.796
    20   6 C        2.919    -0.026    28.641     8.776
    21   6 C        2.921    -0.041    29.013     8.833
    22   6 C        2.918    -0.043    29.064     8.841
    23   6 C        2.923    -0.031    28.780     8.798
    24   6 C        2.971    -0.010    28.271     8.722
    25   6 C        1.917     0.119    28.169     8.571
    26   7 N        0.911    -0.318    28.176     7.677
    27   6 C        2.979    -0.018    28.454     8.750
    28   6 C        2.971     0.002    27.986     8.678
    29   6 C        2.921    -0.035    28.881     8.813
    30   6 C        2.917    -0.042    29.049     8.838
    31   6 C        2.926     0.054    26.797     8.489
    32   7 N        2.752    -0.034    21.906     6.951
    33   6 C        2.925     0.064    26.561     8.452
    34   6 C        2.921    -0.040    28.992     8.830
    35   6 C        2.918    -0.025    28.635     8.775
    36   6 C        2.919    -0.030    28.759     8.794
    37   6 C        2.918    -0.026    28.654     8.778
    38   6 C        2.921    -0.042    29.044     8.838
    39   6 C        2.925     0.064    26.561     8.452
    40   6 C        2.921    -0.040    28.993     8.830
    41   6 C        2.918    -0.025    28.635     8.775
    42   6 C        2.919    -0.030    28.759     8.794
    43   6 C        2.918    -0.026    28.654     8.778
    44   6 C        2.921    -0.042    29.044     8.838
    45   6 C        2.917    -0.042    29.050     8.838
    46   6 C        2.921    -0.036    28.890     8.814
    47   6 C        2.971    -0.022    28.543     8.763
    48   6 C        1.916     0.111    28.348     8.599
    49   7 N        0.911    -0.338    28.695     7.747
    50   6 C        2.993     0.012    27.726     8.637
    51   6 C        2.978     0.005    27.914     8.666
    52   6 C        2.922    -0.027    28.686     8.783
    53   6 C        2.920    -0.042    29.053     8.839
    54   6 C        2.926     0.066    26.528     8.447
    55   7 N        2.753    -0.045    22.108     6.983
    56   6 C        2.925     0.064    26.560     8.451
    57   6 C        2.921    -0.041    29.028     8.835
    58   6 C        2.919    -0.026    28.644     8.776
    59   6 C        2.919    -0.031    28.783     8.798
    60   6 C        2.919    -0.027    28.665     8.780
    61   6 C        2.921    -0.043    29.059     8.840
    62   6 C        2.925     0.064    26.560     8.451
    63   6 C        2.921    -0.041    29.028     8.835
    64   6 C        2.919    -0.026    28.645     8.777
    65   6 C        2.919    -0.031    28.783     8.798
    66   6 C        2.919    -0.026    28.664     8.780
    67   6 C        2.921    -0.043    29.057     8.840
    68   6 C        2.920    -0.043    29.062     8.840
    69   6 C        2.923    -0.028    28.703     8.786
    70   1 H        0.926     0.031     2.575     2.509
    71   1 H        0.926     0.042     2.416     2.431
    72   1 H        0.926     0.043     2.404     2.425
    73   1 H        0.926     0.045     2.378     2.411
    74   1 H        0.926     0.044     2.401     2.423
    75   1 H        0.926     0.043     2.409     2.427
    76   1 H        0.926     0.038     2.475     2.460
    77   1 H        0.926     0.043     2.406     2.426
    78   1 H        0.926     0.045     2.379     2.412
    79   1 H        0.926     0.044     2.400     2.423
    80   1 H        0.926     0.043     2.403     2.424
    81   1 H        0.926     0.039     2.466     2.456
    82   1 H        0.926     0.043     2.410     2.427
    83   1 H        0.926     0.029     2.596     2.519
    84   1 H        0.926     0.027     2.622     2.532
    85   1 H        0.926     0.039     2.461     2.453
    86   1 H        0.926     0.039     2.462     2.454
    87   1 H        0.926     0.044     2.401     2.423
    88   1 H        0.926     0.044     2.392     2.418
    89   1 H        0.926     0.046     2.369     2.407
    90   1 H        0.926     0.044     2.393     2.419
    91   1 H        0.926     0.039     2.458     2.452
    92   1 H        0.926     0.044     2.398     2.422
    93   1 H        0.926     0.044     2.391     2.418
    94   1 H        0.926     0.046     2.370     2.407
    95   1 H        0.926     0.044     2.394     2.420
    96   1 H        0.926     0.039     2.457     2.451
    97   1 H        0.926     0.027     2.635     2.539
    98   1 H        0.926     0.032     2.551     2.498
    99   1 H        0.926     0.045     2.380     2.412
   100   1 H        0.926     0.038     2.474     2.460
   101   1 H        0.926     0.043     2.410     2.428
   102   1 H        0.926     0.043     2.406     2.426
   103   1 H        0.926     0.045     2.383     2.414
   104   1 H        0.926     0.043     2.409     2.427
   105   1 H        0.926     0.038     2.481     2.463
   106   1 H        0.926     0.043     2.411     2.428
   107   1 H        0.926     0.043     2.406     2.426
   108   1 H        0.926     0.045     2.383     2.414
   109   1 H        0.926     0.043     2.409     2.427
   110   1 H        0.926     0.046     2.377     2.411
   111   1 H        0.926     0.032     2.562     2.503

molecular dipole:
                 x           y           z       tot (Debye)
 q only:        0.192      -0.404       0.049
   full:        0.214      -0.445       0.039       1.258

 projected vibrational frequencies (cm⁻¹)
eigval :       -0.00    -0.00    -0.00     0.00     0.00     0.00
eigval :       -9.57     7.99     8.95    11.08    12.17    14.12
eigval :       21.95    23.29    29.15    36.16    41.68    43.77
eigval :       44.87    48.10    52.70    56.10    60.27    61.08
eigval :       63.44    65.93    73.24    74.94    82.68    83.69
eigval :       90.42    96.60    98.97   113.80   124.06   128.28
eigval :      134.34   142.41   150.91   168.80   171.16   172.77
eigval :      185.31   197.48   208.16   216.81   220.85   228.90
eigval :      233.10   233.58   234.02   282.71   283.74   288.77
eigval :      303.84   305.69   308.59   315.18   318.63   331.54
eigval :      346.15   349.02   361.63   368.69   374.18   375.78
eigval :      376.34   377.38   378.66   378.99   381.76   385.54
eigval :      387.28   390.57   392.97   406.76   410.23   421.70
eigval :      444.30   460.70   464.90   468.41   471.91   478.63
eigval :      480.41   482.76   488.02   490.00   501.39   508.60
eigval :      514.02   517.25   525.89   567.42   568.45   575.46
eigval :      580.74   581.57   582.11   583.78   588.15   588.43
eigval :      590.81   591.87   592.34   594.76   605.72   610.95
eigval :      620.31   622.20   650.03   658.03   658.40   659.88
eigval :      660.91   661.25   664.30   664.64   677.62   679.36
eigval :      689.49   691.56   717.30   729.79   754.92   756.63
eigval :      758.04   758.34   759.74   760.95   789.06   792.49
eigval :      808.13   813.92   817.67   843.83   853.09   861.06
eigval :      867.61   868.59   869.71   870.97   872.48   874.72
eigval :      894.27   896.83   897.39   898.12   898.44   900.12
eigval :      907.59   907.81   908.54   908.86   910.61   911.24
eigval :      911.71   913.37   916.80   918.01   921.13   922.78
eigval :      924.63   925.65   927.08   927.18   927.49   928.24
eigval :      929.07   929.82   930.51   931.36   931.60   932.58
eigval :      970.32   974.72   976.30   981.85   993.08   997.49
eigval :      999.92  1001.39  1001.51  1009.90  1021.27  1043.33
eigval :     1050.71  1078.37  1079.26  1079.81  1080.10  1080.69
eigval :     1080.97  1120.36  1120.96  1121.47  1123.29  1123.50
eigval :     1123.91  1135.11  1141.40  1143.52  1145.70  1173.98
eigval :     1176.36  1176.85  1177.43  1178.30  1178.40  1178.93
eigval :     1179.55  1182.63  1189.63  1191.14  1191.99  1192.37
eigval :     1193.58  1198.92  1204.88  1212.23  1215.95  1224.15
eigval :     1226.28  1267.22  1268.49  1269.39  1273.00  1273.48
eigval :     1273.90  1275.65  1276.36  1277.51  1292.30  1296.69
eigval :     1298.10  1298.75  1303.29  1306.70  1309.94  1313.47
eigval :     1314.55  1315.89  1321.14  1323.46  1324.01  1324.59
eigval :     1324.87  1326.38  1329.02  1359.54  1371.68  1394.98
eigval :     1411.60  1416.10  1422.72  1430.61  1430.84  1430.94
eigval :     1437.09  1437.52  1437.63  1453.12  1455.43  1456.61
eigval :     1457.91  1458.28  1458.79  1461.57  1474.08  1481.11
eigval :     1491.64  1519.49  1541.56  1555.93  1561.45  1565.28
eigval :     1565.55  1567.40  1568.41  1570.58  1572.18  1575.28
eigval :     1578.63  1579.50  1580.20  1583.26  1585.90  1591.00
eigval :     2245.67  2272.65  2313.56  3074.21  3074.42  3076.18
eigval :     3078.45  3078.57  3079.79  3080.01  3080.03  3080.27
eigval :     3080.32  3080.38  3080.77  3080.85  3080.91  3081.33
eigval :     3081.42  3081.75  3082.25  3087.94  3088.01  3088.03
eigval :     3088.58  3089.03  3089.08  3089.68  3090.07  3091.02
eigval :     3091.17  3091.93  3092.05  3092.14  3092.37  3092.64
eigval :     3093.10  3093.47  3093.87  3099.40  3099.59  3099.72
eigval :     3099.88  3100.46  3100.73

   temp. (K)  partition function   enthalpy   heat capacity  entropy
                                   cal/mol     cal/K/mol   cal/K/mol   J/K/mol
 298.15  VIB  0.756E+30            34992.332    210.746    224.063
         ROT  0.367E+09              888.752      2.981     42.169
         INT  0.277E+39            35881.084    213.727    266.232
         TR   0.254E+29             1481.254      4.968     46.190
         TOT                       37362.3378   218.6954   312.4218  1307.1728

       T/K    H(0)-H(T)+PV         H(T)/Eh          T*S/Eh         G(T)/Eh
   ------------------------------------------------------------------------
    298.15    0.595407E-01    0.897990E+00    0.148442E+00    0.749548E+00
   ------------------------------------------------------------------------

         :::::::::::::::::::::::::::::::::::::::::::::::::::::
         ::                  THERMODYNAMIC                  ::
         :::::::::::::::::::::::::::::::::::::::::::::::::::::
         :: total free energy        -173.029016606501 Eh   ::
         ::.................................................::
         :: total energy             -173.778564976073 Eh   ::
         :: zero point energy           0.838449373427 Eh   ::
         :: G(RRHO) w/o ZPVE           -0.088901003855 Eh   ::
         :: G(RRHO) contrib.            0.749548369572 Eh   ::
         :::::::::::::::::::::::::::::::::::::::::::::::::::::

           -------------------------------------------------
          | TOTAL ENERGY             -173.778564976073 Eh   |
          | TOTAL ENTHALPY           -172.880574927467 Eh   |
          | TOTAL FREE ENERGY        -173.029016606501 Eh   |
          | GRADIENT NORM               0.000189672670 Eh/α |
          | HOMO-LUMO GAP               0.101656466606 eV   |
           -------------------------------------------------

 * finished run on 2025/08/30 at 16:00:18.155
