   * xtb version 6.7.1 (edcfbbe) compiled by 'albert@albert-system' on 2024-07-22

   ID    Z sym.   atoms
    1    7 N      1, 9, 26, 32, 49, 55
    2    6 C      2-8, 10-25, 27-31, 33-48, 50-54, 56-69
    3    1 H      70-111

          program call               : xtb data2507/toluene/3DPA3CN/3DPA3CN_toluene_S0_crest.xyz --gfn 2 --gbsa toluene --ohess vtight --parallel 40 --molden --ceasefiles --namespace data2507/toluene/3DPA3CN/3DPA3CN_toluene_S0_finalOpt
      * Solvation model:               GBSA
        Solvent                        toluene
        Solvent mass                       9.2140E+01 g/mol
          :  Hamiltonian                  GFN2-xTB          :
 * total energy  :  -173.8469504 Eh     change       -0.3494080E-08 Eh
 * total energy  :  -173.8470282 Eh     change       -0.7773518E-04 Eh
 * total energy  :  -173.8470796 Eh     change       -0.5143003E-04 Eh
 * total energy  :  -173.8470879 Eh     change       -0.8292457E-05 Eh
 * total energy  :  -173.8471000 Eh     change       -0.1208704E-04 Eh
 * total energy  :  -173.8471047 Eh     change       -0.4702514E-05 Eh
 * total energy  :  -173.8471077 Eh     change       -0.3028021E-05 Eh
 * total energy  :  -173.8471078 Eh     change       -0.4734184E-07 Eh
 * total energy  :  -173.8471104 Eh     change       -0.2640061E-05 Eh
 * total energy  :  -173.8471122 Eh     change       -0.1802634E-05 Eh
 * total energy  :  -173.8471418 Eh     change       -0.6186759E-06 Eh
 * total energy  :  -173.8471424 Eh     change       -0.6127885E-06 Eh
 * total energy  :  -173.8471434 Eh     change       -0.9873276E-06 Eh
 * total energy  :  -173.8471446 Eh     change       -0.1213660E-05 Eh
 * total energy  :  -173.8471455 Eh     change       -0.8416987E-06 Eh
 * total energy  :  -173.8471461 Eh     change       -0.5996854E-06 Eh
 * total energy  :  -173.8471467 Eh     change       -0.6003438E-06 Eh
 * total energy  :  -173.8471471 Eh     change       -0.4664722E-06 Eh
 * total energy  :  -173.8471471 Eh     change       -0.2249465E-08 Eh
   *** GEOMETRY OPTIMIZATION CONVERGED AFTER 44 ITERATIONS ***

 final structure:
================
111
 xtb: 6.7.1 (edcfbbe)
N            0.15346776941687        4.00177263559712       -0.01193688299231
C            0.10654483835050        2.85431368822719       -0.01202409352941
C            0.04813508301984        1.44239520666780       -0.01129440401467
C            1.24184299919164        0.70303666834817        0.01816039397566
C            2.54543862039489        1.36746758596487        0.05504949826209
C            2.82209278032269        2.35978068891373        0.99608767766060
C            4.05760333021745        2.96407854468777        1.04012997935215
C            5.05851658882051        2.61175146519060        0.12788859282498
N            6.30148544006565        3.22347421349519        0.16562220839570
C            6.42912439148939        4.55777839495390        0.58820654175382
C            7.50754922994106        4.94149793731108        1.38350480470473
C            7.64044219687835        6.25712850279815        1.78554988442378
C            6.70140985418284        7.20381995037575        1.40896727779767
C            5.62702286464597        6.82601082421332        0.61970974333235
C            5.48998581824597        5.51452665193883        0.20569492288714
C            7.45503342453061        2.51855731827213       -0.21951562865284
C            8.45140427691099        3.15488509059303       -0.95769690573852
C            9.59205142302187        2.46544157662146       -1.32361722149291
C            9.75276344220471        1.13633206074387       -0.96666801876492
C            8.76335817030793        0.49949833359112       -0.23484322612527
C            7.62301835703488        1.18287995894507        0.14305733123905
C            4.77526052394704        1.62520612437437       -0.82336264029506
C            3.54589841042559        1.00833269877297       -0.84954474441175
C            1.16463089370697       -0.69898318054559        0.02515142763172
C            2.34972568238453       -1.44822269484315        0.20348129848154
N            3.30541652538905       -2.05010725998461        0.41139873967445
C           -0.07022765941450       -1.36717034693630       -0.00828267116133
C           -0.12927535586163       -2.82740740613363       -0.00822999460023
C           -0.97127086078483       -3.50942196205545        0.87182864590621
C           -1.01614745361558       -4.88421496090214        0.88271537175159
C           -0.23489053636887       -5.63207332946405       -0.00618866302136
N           -0.28429812803646       -7.01566161361715       -0.00328312571031
C           -1.46034287168852       -7.69031609881517        0.36956396664685
C           -2.70659375872813       -7.23000082579155       -0.05254416529000
C           -3.85587605624175       -7.90372018458237        0.31581311340247
C           -3.77988714882711       -9.04438246547339        1.09889464360082
C           -2.54217435441113       -9.50964067106829        1.51299449700065
C           -1.38782585709594       -8.83871659141188        1.15581320417236
C            0.84104692446302       -7.77374393627721       -0.37239472839005
C            2.11715022535657       -7.39789760925788        0.04434369104621
C            3.21664125816771       -8.15098442170225       -0.32213908489418
C            3.06041532571229       -9.28907805796791       -1.09697333838837
C            1.79252450165795       -9.67110737010934       -1.50474837275830
C            0.68776652031325       -8.92002739167312       -1.15018299800468
C            0.59844416298347       -4.94634441419712       -0.89785312343223
C            0.65752845559203       -3.57225761294599       -0.88858573077829
C           -1.24480147677924       -0.59806378654720       -0.04244793978853
C           -2.48943151684896       -1.24488271407859       -0.21553188926896
N           -3.49350055560196       -1.76462318081636       -0.41690340794666
C           -1.20327719379701        0.80543126845761       -0.03880540530651
C           -2.44528442914560        1.57917047853404       -0.07508051057302
C           -2.63794461633704        2.58801363054528       -1.01944412784890
C           -3.81463773527447        3.30036167589754       -1.05876951735299
C           -4.83681460641946        3.04342940844343       -0.13835956785101
N           -6.01887159754632        3.76643309606665       -0.16982621284455
C           -7.22982683133610        3.17010293924764        0.22218855476479
C           -7.52041999872807        1.85473660263488       -0.13700680526336
C           -8.71662191923548        1.27875953221419        0.24716913546230
C           -9.64029092166594        2.00393970985827        0.98270008617806
C           -9.35751893187543        3.31343366250462        1.33635577602162
C           -8.16062374819264        3.89556171698916        0.96376479055870
C           -6.02609111764618        5.10597372373858       -0.59479887174256
C           -4.99972216243984        5.97286769399016       -0.22216920783423
C           -5.01836666643358        7.29046615110651       -0.63905120885995
C           -6.05939997193542        7.76417512425046       -1.42121898706083
C           -7.08454903528025        6.90729743417886       -1.78815682943763
C           -7.07049229599719        5.58591737395083       -1.38326854378844
C           -4.63794777307137        2.03813659974903        0.81457538950270
C           -3.46857930361087        1.31360564706165        0.83609622368036
H            2.07317254247172        2.63042702934458        1.72610768361750
H            4.26135975128990        3.71010013040629        1.79313722206304
H            8.23669759454473        4.20281166495033        1.68284553431155
H            8.47912039229145        6.54241409571269        2.40354305835961
H            6.80684888470381        8.23004240377263        1.72716751822868
H            4.89294814919240        7.55790989870643        0.31615544261667
H            4.65655002999399        5.22441503950653       -0.41768071565185
H            8.32382037865407        4.18920746705084       -1.24193987340850
H           10.35647089086389        2.96834172950382       -1.89760806433175
H           10.64366929097006        0.59989201839895       -1.25655201140660
H            8.88194595205080       -0.53479198942326        0.05303395651258
H            6.85736772490347        0.68651117322897        0.72172535583406
H            5.52715661339355        1.35196014699166       -1.54796410585299
H            3.34242810982588        0.26334386372622       -1.60538682452251
H           -1.56567763209268       -2.95421710643066        1.58302531281415
H           -1.65155893733724       -5.39315149640521        1.59143622139764
H           -2.76783502665023       -6.34554015711423       -0.67009934958594
H           -4.81572120241902       -7.53765889191303       -0.01792976634639
H           -4.67988844784697       -9.56874092064208        1.38270194778051
H           -2.47408799272039      -10.39688980731773        2.12519170337776
H           -0.42325654914556       -9.19764847762383        1.48387805928579
H            2.24076211544445       -6.51561193266705        0.65566185801310
H            4.20034132960763       -7.84869411134768        0.00612945898421
H            3.92146129750442       -9.87590219544401       -1.37932358573529
H            1.66232048046519      -10.55588600219621       -2.11042178822085
H           -0.29987388062487       -9.21485471047765       -1.47374220236803
H            1.19334810693221       -5.50254993140664       -1.60617351831058
H            1.29128870929072       -3.06434232408789       -1.60119043979110
H           -1.87205520571187        2.78798126301394       -1.75468479445995
H           -3.95598571554860        4.05860777420460       -1.81390827768810
H           -6.80592246528415        1.28987711418874       -0.71831026934906
H           -8.93027428088423        0.25918936583747       -0.03837512176596
H          -10.57492082569071        1.55141184553642        1.27800998656476
H          -10.07020390824765        3.88461831157500        1.91297503269605
H           -7.93810151630004        4.91450018602640        1.24498314239497
H           -4.19135650906119        5.60867121417486        0.39531683901400
H           -4.21744406498365        7.95201853875399       -0.34318323848028
H           -6.07212899398412        8.79508340309466       -1.74146187059634
H           -7.89812962770772        7.26734347328974       -2.40066484734469
H           -7.86686651167566        4.91703038012810       -1.67529411278795
H           -5.40718453265888        1.83602768478760        1.54433758419233
H           -3.32767806194425        0.55602146526026        1.59368918677143

          :  Hamiltonian                  GFN2-xTB          :
         :: gradient norm              0.000111743301 Eh/a0 ::
         :: HOMO-LUMO gap              1.562285853230 eV    ::
         :: SCC energy              -177.225848028382 Eh    ::
         :: -> dispersion             -0.162665291892 Eh    ::
         :: -> Gsolv                  -0.078317365885 Eh    ::
         :: repulsion energy           3.378700887624 Eh    ::

    * Orbital Energies and Occupations

         #    Occupation            Energy/Eh            Energy/eV
      -------------------------------------------------------------
         1        2.0000           -0.6939531             -18.8834
       ...           ...                  ...                  ...
       150        2.0000           -0.4115101             -11.1978
       151        2.0000           -0.4114455             -11.1960
       152        2.0000           -0.4110672             -11.1857
       153        2.0000           -0.4106885             -11.1754
       154        2.0000           -0.4094660             -11.1421
       155        2.0000           -0.4090042             -11.1296
       156        2.0000           -0.4089549             -11.1282
       157        2.0000           -0.4078141             -11.0972
       158        2.0000           -0.4072242             -11.0811
       159        2.0000           -0.4071731             -11.0797
       160        2.0000           -0.3579574              -9.7405
       161        2.0000           -0.3576563              -9.7323
       162        2.0000           -0.3569035              -9.7118 (HOMO)
       163                         -0.2994905              -8.1496 (LUMO)
       164                         -0.2990742              -8.1382
       165                         -0.2569123              -6.9909
       166                         -0.2394811              -6.5166
       167                         -0.2392416              -6.5101
       168                         -0.2367744              -6.4430
       169                         -0.2356180              -6.4115
       170                         -0.2343659              -6.3774
       171                         -0.2340674              -6.3693
       172                         -0.2339176              -6.3652
       173                         -0.2338582              -6.3636
       ...                                ...                  ...
       318                          1.1467199              31.2038
      -------------------------------------------------------------
                  HL-Gap            0.0574130 Eh            1.5623 eV

     #   Z          covCN         q      C6AA      α(0)
     1   7 N        0.911    -0.271    26.999     7.515
     2   6 C        1.912     0.124    28.054     8.554
     3   6 C        2.976    -0.002    28.061     8.689
     4   6 C        2.988     0.029    27.344     8.578
     5   6 C        2.977    -0.007    28.197     8.710
     6   6 C        2.922    -0.028    28.709     8.787
     7   6 C        2.921    -0.047    29.175     8.858
     8   6 C        2.922     0.072    26.392     8.425
     9   7 N        2.752    -0.068    22.567     7.055
    10   6 C        2.925     0.063    26.579     8.455
    11   6 C        2.922    -0.045    29.127     8.850
    12   6 C        2.919    -0.029    28.719     8.788
    13   6 C        2.919    -0.036    28.899     8.816
    14   6 C        2.919    -0.028    28.712     8.787
    15   6 C        2.922    -0.045    29.129     8.851
    16   6 C        2.925     0.063    26.579     8.455
    17   6 C        2.922    -0.045    29.127     8.850
    18   6 C        2.919    -0.029    28.720     8.788
    19   6 C        2.919    -0.036    28.898     8.815
    20   6 C        2.919    -0.028    28.711     8.787
    21   6 C        2.922    -0.045    29.125     8.850
    22   6 C        2.921    -0.048    29.184     8.859
    23   6 C        2.923    -0.028    28.707     8.786
    24   6 C        2.978    -0.002    28.062     8.689
    25   6 C        1.913     0.124    28.059     8.555
    26   7 N        0.911    -0.272    27.041     7.521
    27   6 C        2.987     0.029    27.350     8.579
    28   6 C        2.977    -0.007    28.200     8.711
    29   6 C        2.922    -0.028    28.700     8.785
    30   6 C        2.921    -0.048    29.190     8.860
    31   6 C        2.922     0.072    26.385     8.424
    32   7 N        2.752    -0.067    22.545     7.052
    33   6 C        2.925     0.063    26.582     8.455
    34   6 C        2.921    -0.045    29.119     8.849
    35   6 C        2.919    -0.028    28.709     8.787
    36   6 C        2.919    -0.036    28.890     8.814
    37   6 C        2.919    -0.029    28.715     8.787
    38   6 C        2.922    -0.045    29.118     8.849
    39   6 C        2.925     0.063    26.582     8.455
    40   6 C        2.922    -0.045    29.119     8.849
    41   6 C        2.919    -0.028    28.709     8.787
    42   6 C        2.919    -0.036    28.890     8.814
    43   6 C        2.919    -0.029    28.716     8.788
    44   6 C        2.922    -0.045    29.119     8.849
    45   6 C        2.921    -0.048    29.189     8.860
    46   6 C        2.922    -0.028    28.700     8.785
    47   6 C        2.977    -0.002    28.061     8.689
    48   6 C        1.913     0.124    28.060     8.555
    49   7 N        0.911    -0.272    27.035     7.520
    50   6 C        2.988     0.029    27.344     8.578
    51   6 C        2.977    -0.007    28.196     8.710
    52   6 C        2.922    -0.028    28.709     8.787
    53   6 C        2.921    -0.047    29.174     8.857
    54   6 C        2.922     0.072    26.393     8.425
    55   7 N        2.752    -0.069    22.568     7.056
    56   6 C        2.925     0.063    26.579     8.455
    57   6 C        2.922    -0.045    29.126     8.850
    58   6 C        2.919    -0.028    28.712     8.787
    59   6 C        2.919    -0.036    28.899     8.815
    60   6 C        2.919    -0.029    28.720     8.788
    61   6 C        2.922    -0.045    29.127     8.850
    62   6 C        2.925     0.063    26.579     8.455
    63   6 C        2.922    -0.045    29.129     8.851
    64   6 C        2.919    -0.028    28.712     8.787
    65   6 C        2.919    -0.036    28.900     8.816
    66   6 C        2.919    -0.029    28.720     8.788
    67   6 C        2.922    -0.045    29.129     8.851
    68   6 C        2.921    -0.048    29.183     8.859
    69   6 C        2.923    -0.028    28.707     8.786
    70   1 H        0.926     0.033     2.544     2.494
    71   1 H        0.926     0.043     2.404     2.425
    72   1 H        0.926     0.036     2.509     2.477
    73   1 H        0.926     0.038     2.476     2.461
    74   1 H        0.926     0.037     2.494     2.470
    75   1 H        0.926     0.038     2.481     2.463
    76   1 H        0.926     0.033     2.539     2.492
    77   1 H        0.926     0.036     2.509     2.477
    78   1 H        0.926     0.038     2.475     2.460
    79   1 H        0.926     0.037     2.493     2.469
    80   1 H        0.926     0.038     2.480     2.463
    81   1 H        0.926     0.034     2.535     2.490
    82   1 H        0.926     0.043     2.404     2.425
    83   1 H        0.926     0.032     2.552     2.498
    84   1 H        0.926     0.033     2.548     2.496
    85   1 H        0.926     0.043     2.403     2.424
    86   1 H        0.926     0.034     2.528     2.486
    87   1 H        0.926     0.038     2.475     2.460
    88   1 H        0.926     0.037     2.488     2.467
    89   1 H        0.926     0.038     2.470     2.458
    90   1 H        0.926     0.036     2.505     2.475
    91   1 H        0.926     0.034     2.528     2.487
    92   1 H        0.926     0.038     2.476     2.461
    93   1 H        0.926     0.037     2.488     2.467
    94   1 H        0.926     0.038     2.471     2.458
    95   1 H        0.926     0.036     2.505     2.475
    96   1 H        0.926     0.044     2.402     2.424
    97   1 H        0.926     0.033     2.549     2.497
    98   1 H        0.926     0.033     2.545     2.495
    99   1 H        0.926     0.043     2.404     2.425
   100   1 H        0.926     0.034     2.535     2.490
   101   1 H        0.926     0.038     2.480     2.463
   102   1 H        0.926     0.037     2.494     2.469
   103   1 H        0.926     0.038     2.476     2.461
   104   1 H        0.926     0.036     2.509     2.477
   105   1 H        0.926     0.033     2.539     2.492
   106   1 H        0.926     0.038     2.482     2.464
   107   1 H        0.926     0.037     2.495     2.470
   108   1 H        0.926     0.038     2.477     2.461
   109   1 H        0.926     0.035     2.509     2.477
   110   1 H        0.926     0.043     2.404     2.425
   111   1 H        0.926     0.032     2.552     2.498

molecular dipole:
                 x           y           z       tot (Debye)
 q only:        0.012      -0.178       0.002
   full:        0.012      -0.182      -0.001       0.464

 projected vibrational frequencies (cm⁻¹)
eigval :       -0.00    -0.00    -0.00     0.00     0.00     0.00
eigval :        8.30     8.65     9.33    11.00    13.26    13.68
eigval :       23.77    28.76    31.45    36.85    39.74    45.49
eigval :       47.85    49.96    50.88    58.48    58.82    60.80
eigval :       62.95    64.65    72.68    75.03    77.88    82.62
eigval :       92.15   101.26   102.50   115.01   123.09   124.49
eigval :      134.94   140.61   144.19   167.16   169.14   169.72
eigval :      188.13   196.12   207.43   217.96   222.80   232.21
eigval :      234.72   235.11   235.57   279.43   284.18   289.90
eigval :      304.21   304.62   306.06   320.16   329.20   336.56
eigval :      347.19   349.09   364.04   370.63   374.57   377.31
eigval :      378.14   378.39   380.03   380.65   381.55   390.92
eigval :      391.28   392.20   393.08   404.79   411.35   421.20
eigval :      464.54   470.96   473.08   475.08   483.39   484.84
eigval :      487.22   487.88   490.65   491.15   502.73   503.79
eigval :      512.09   541.01   541.34   570.86   571.06   582.99
eigval :      583.93   584.08   585.18   589.25   589.32   592.35
eigval :      593.45   593.66   605.25   605.62   608.74   620.22
eigval :      639.86   643.31   659.76   660.97   661.96   662.89
eigval :      664.48   667.71   669.52   677.87   682.51   692.12
eigval :      693.15   715.42   720.01   732.07   758.28   759.38
eigval :      759.78   760.45   761.45   763.64   793.15   794.58
eigval :      817.52   818.22   820.14   861.74   862.69   864.08
eigval :      872.73   876.01   876.15   876.69   877.09   878.73
eigval :      896.27   897.00   897.32   897.68   898.18   899.78
eigval :      909.24   909.35   909.51   912.12   914.70   914.89
eigval :      915.36   919.60   919.80   923.38   923.81   924.75
eigval :      925.28   928.41   928.51   928.67   930.24   930.29
eigval :      930.53   931.13   931.77   932.54   933.13   934.04
eigval :      977.31   977.95   978.18   995.80   995.95  1002.64
eigval :     1004.18  1004.37  1004.45  1028.97  1029.13  1065.05
eigval :     1081.04  1081.24  1081.46  1082.23  1082.41  1082.55
eigval :     1119.09  1120.67  1121.07  1121.50  1122.57  1122.94
eigval :     1147.56  1148.42  1149.08  1177.29  1178.30  1178.39
eigval :     1178.44  1179.48  1179.95  1184.06  1184.33  1184.93
eigval :     1192.13  1194.08  1194.11  1195.59  1197.04  1198.57
eigval :     1209.64  1210.89  1216.86  1229.67  1230.98  1271.01
eigval :     1272.08  1272.44  1275.64  1276.27  1276.45  1279.38
eigval :     1280.22  1280.56  1287.02  1295.76  1301.84  1302.98
eigval :     1303.98  1313.71  1313.87  1313.98  1322.46  1322.63
eigval :     1322.71  1324.99  1326.11  1326.16  1327.94  1330.03
eigval :     1330.42  1368.43  1394.98  1396.53  1416.80  1417.53
eigval :     1418.34  1433.82  1433.86  1434.02  1438.96  1439.40
eigval :     1439.48  1466.71  1466.94  1467.86  1470.11  1470.59
eigval :     1470.78  1481.73  1482.61  1494.73  1496.51  1496.90
eigval :     1544.56  1545.65  1546.36  1576.95  1576.98  1577.05
eigval :     1580.48  1580.50  1580.64  1586.61  1586.69  1587.73
eigval :     1590.25  1590.33  1590.37  1597.71  1597.80  1597.88
eigval :     2348.17  2348.80  2353.84  3073.92  3074.27  3074.62
eigval :     3074.83  3074.99  3075.03  3075.24  3075.26  3075.49
eigval :     3075.54  3075.59  3075.89  3075.90  3076.41  3076.42
eigval :     3078.22  3079.59  3080.51  3083.37  3083.49  3083.55
eigval :     3083.89  3084.14  3084.26  3086.31  3086.46  3086.64
eigval :     3087.59  3087.65  3087.73  3095.68  3095.94  3095.96
eigval :     3096.03  3096.18  3096.34  3096.42  3096.69  3096.76
eigval :     3098.02  3098.66  3098.98

   temp. (K)  partition function   enthalpy   heat capacity  entropy
                                   cal/mol     cal/K/mol   cal/K/mol   J/K/mol
 298.15  VIB  0.431E+30            34766.816    209.174    222.856
         ROT  0.369E+09              888.752      2.981     42.183
         INT  0.159E+39            35655.568    212.155    265.039
         TR   0.254E+29             1481.254      4.968     46.190
         TOT                       37136.8223   217.1232   311.2285  1302.1802

       T/K    H(0)-H(T)+PV         H(T)/Eh          T*S/Eh         G(T)/Eh
   ------------------------------------------------------------------------
    298.15    0.591813E-01    0.902485E+00    0.147875E+00    0.754611E+00
   ------------------------------------------------------------------------

         :::::::::::::::::::::::::::::::::::::::::::::::::::::
         ::                  THERMODYNAMIC                  ::
         :::::::::::::::::::::::::::::::::::::::::::::::::::::
         :: total free energy        -173.092536567534 Eh   ::
         ::.................................................::
         :: total energy             -173.847147141927 Eh   ::
         :: zero point energy           0.843304004607 Eh   ::
         :: G(RRHO) w/o ZPVE           -0.088693430213 Eh   ::
         :: G(RRHO) contrib.            0.754610574394 Eh   ::
         :::::::::::::::::::::::::::::::::::::::::::::::::::::

           -------------------------------------------------
          | TOTAL ENERGY             -173.847147141927 Eh   |
          | TOTAL ENTHALPY           -172.944661843962 Eh   |
          | TOTAL FREE ENERGY        -173.092536567534 Eh   |
          | GRADIENT NORM               0.000111652801 Eh/α |
          | HOMO-LUMO GAP               1.562286288439 eV   |
           -------------------------------------------------

 * finished run on 2025/08/30 at 15:59:51.520
