   * xtb version 6.7.1 (edcfbbe) compiled by 'albert@albert-system' on 2024-07-22

   ID    Z sym.   atoms
    1    7 N      1, 4, 10, 40, 69, 72
    2    6 C      2, 3, 5-9, 11-39, 41-68, 70, 71
    3    1 H      73-110

          program call               : xtb data2507/gas/DDPhCz-DCPP/DDPhCz-DCPP_gas_S0_crest.xyz --gfn 2 --ohess vtight --parallel 40 --molden --ceasefiles --namespace data2507/gas/DDPhCz-DCPP/DDPhCz-DCPP_gas_S0_finalOpt
          :  Hamiltonian                  GFN2-xTB          :
 * total energy  :  -178.2712794 Eh     change       -0.3019380E-08 Eh
 * total energy  :  -178.2712792 Eh     change        0.2478694E-06 Eh
 * total energy  :  -178.2712808 Eh     change       -0.1614474E-05 Eh
 * total energy  :  -178.2712818 Eh     change       -0.1042208E-05 Eh
 * total energy  :  -178.2712806 Eh     change        0.1165348E-05 Eh
 * total energy  :  -178.2712842 Eh     change       -0.3588063E-05 Eh
 * total energy  :  -178.2712842 Eh     change        0.8650827E-07 Eh
 * total energy  :  -178.2712851 Eh     change       -0.9603895E-06 Eh
 * total energy  :  -178.2712860 Eh     change       -0.9095291E-06 Eh
 * total energy  :  -178.2712871 Eh     change       -0.1116735E-05 Eh
 * total energy  :  -178.2712998 Eh     change       -0.3371024E-06 Eh
 * total energy  :  -178.2713001 Eh     change       -0.3343157E-06 Eh
 * total energy  :  -178.2713005 Eh     change       -0.3747913E-06 Eh
 * total energy  :  -178.2713009 Eh     change       -0.4120760E-06 Eh
 * total energy  :  -178.2713013 Eh     change       -0.3956061E-06 Eh
 * total energy  :  -178.2713016 Eh     change       -0.3644999E-06 Eh
 * total energy  :  -178.2713020 Eh     change       -0.3473886E-06 Eh
 * total energy  :  -178.2713023 Eh     change       -0.3115784E-06 Eh
 * total energy  :  -178.2713023 Eh     change       -0.3142873E-09 Eh
   *** GEOMETRY OPTIMIZATION CONVERGED AFTER 44 ITERATIONS ***

 final structure:
================
110
 xtb: 6.7.1 (edcfbbe)
N            1.43364946516586        9.89970120582113        1.72136612240766
C            0.93352828822328        8.88316149981610        1.55224857082057
C            0.27975919053607        7.64194248991560        1.34832043869951
N            1.01255752934157        6.56697626059960        1.11229627275236
C            0.38859148499398        5.40641342370660        0.91805147840187
C            1.16962082857576        4.22598573944151        0.67087233553477
C            2.56898176462548        4.29127484435336        0.68769077399203
C            3.33118480268240        3.16824937892723        0.49042095890070
C            2.70156341567620        1.94032798570393        0.24652265982531
N            3.44764032523900        0.77875175392171        0.06437568117130
C            3.17698838692036       -0.45051515469777        0.64423722522896
C            2.21339337165603       -0.80540486710241        1.57741280311562
C            2.19114064178660       -2.11110087704930        2.02459770310025
C            3.10424875349078       -3.07118290734382        1.57136470080598
C            3.04109932864293       -4.45209854507728        2.07374149297534
C            2.77958446386702       -4.71273940476931        3.41713823984651
C            2.74545342390353       -6.01123056442159        3.88975501843137
C            2.96841068317240       -7.07251830904688        3.02820279009219
C            3.22056474172340       -6.82619102673491        1.68835194037891
C            3.25674058842043       -5.52793130257991        1.21492438294168
C            4.08685464064031       -2.70182009406508        0.66059710398860
C            4.13078807294321       -1.39464618352119        0.20395766690413
C            5.01686450302298       -0.69686153482970       -0.68862481744689
C            6.11433678374713       -1.09627838046094       -1.43370805228533
C            6.75191890711465       -0.17118036336786       -2.25099759463116
C            7.92157862341179       -0.56745340427845       -3.04961333549407
C            8.90765502618592       -1.38513309863798       -2.50220442382065
C           10.00871458289487       -1.75813566888308       -3.25003462447253
C           10.14112376659049       -1.32503237955579       -4.55868070092966
C            9.16528420899660       -0.51473344728629       -5.11435312532492
C            8.06585442348465       -0.13686687069560       -4.36645234677437
C            6.26547103497968        1.14050506374341       -2.31926880844038
C            5.17694810981035        1.56006424595201       -1.58112177223651
C            4.56233461669750        0.63913562433097       -0.74589479186769
C            1.31697095480727        1.87323199344749        0.20201844699365
C            0.52186386920871        2.99618279160644        0.42811456613765
C           -0.92992256297328        2.92234399565457        0.45297375973002
C           -1.61346215866998        1.72944944469331        0.22628759788803
C           -2.99403424952590        1.64608500656750        0.33682926648247
N           -3.61124423965187        0.41146392128994        0.16103241959437
C           -4.73671517525817        0.14792980199114       -0.60235645673714
C           -5.52631064923939        1.00627927445036       -1.35274366959931
C           -6.58767202744127        0.46699688455602       -2.05163873637204
C           -6.87055019492597       -0.90471427914450       -2.03666804348012
C           -8.01624189293537       -1.42830971798686       -2.79558802557825
C           -9.23441869559998       -0.75270360722068       -2.80031328143237
C          -10.31146547987468       -1.24731134009848       -3.51176288272349
C          -10.18894266523025       -2.42237454808800       -4.23413892854082
C           -8.98212272394517       -3.10150033715523       -4.23820347671514
C           -7.90541131516044       -2.61075735508574       -3.52366698736366
C           -6.05269958601873       -1.76431079281840       -1.31386376806652
C           -4.98626880469538       -1.24262714599486       -0.59995514398963
C           -3.95957185014161       -1.84498777635120        0.20803088215965
C           -3.68491018876500       -3.15422586674900        0.57089154023498
C           -2.59138840561894       -3.41636485027312        1.38671151129806
C           -2.24504659535184       -4.79530064980197        1.76160226212536
C           -0.91542881215189       -5.21173434816586        1.77505663295884
C           -0.58814269174488       -6.50889929261485        2.12247694835523
C           -1.58217178510095       -7.40864176919580        2.46866237151379
C           -2.90700620954212       -7.00532508178500        2.46054435077832
C           -3.23673402359775       -5.71035792690864        2.10706789975403
C           -1.81656311973940       -2.35228061335098        1.86446684499918
C           -2.07767518957127       -1.04184321521865        1.52184718148818
C           -3.13381047466823       -0.79180132217110        0.65716319101445
C           -3.73685572411855        2.79423194966319        0.64193462886979
C           -3.08833758780094        3.98918590425187        0.82465240913956
C           -1.69222824943063        4.07400431150764        0.74300990353643
C           -1.02966122612688        5.32965951630207        0.96131366821096
N           -1.76189938045065        6.41561641776960        1.20412388212185
C           -1.13621083157933        7.56399293261773        1.39825028190255
C           -1.90587510377107        8.72590613625509        1.65770703164687
N           -2.50119983022661        9.68131373565662        1.86961390439713
H            3.02946946469751        5.24694771024507        0.88320265424666
H            4.40719315531114        3.21588823822411        0.54993543680928
H            1.50854562577583       -0.08506634154364        1.96435066006609
H            1.43898918704617       -2.40524809932590        2.74125736749987
H            2.62704513058675       -3.89024215962669        4.10081353938836
H            2.54691929673145       -6.19699257739173        4.93522039742851
H            2.94239197113467       -8.08690183683311        3.39838238120381
H            3.38606442312371       -7.65012540186639        1.00911790723797
H            3.43646050979498       -5.34383649663209        0.16555005256987
H            4.82704397271033       -3.41621026931248        0.33390903299552
H            6.45194225832094       -2.12096297442400       -1.39930170037807
H            8.81813092486207       -1.71204996657597       -1.47620856678482
H           10.76858438987967       -2.38755444724115       -2.80983006995456
H           11.00086491767799       -1.61777559475014       -5.14300718567544
H            9.26072220326603       -0.17752560422735       -6.13637127907705
H            7.29943748669391        0.48066659956199       -4.81220445231536
H            6.76930559594723        1.85025340752449       -2.95823230464027
H            4.81504023238651        2.57309493382069       -1.66869120152146
H            0.86991881725309        0.91994102621915       -0.02603684663375
H           -1.08047341772604        0.83749064634333       -0.05751566574109
H           -5.31522220615707        2.06306417100316       -1.41079008330500
H           -7.20543993559728        1.11924458445825       -2.65073593603149
H           -9.34182091911080        0.15549209460917       -2.22490231779882
H          -11.25164268387771       -0.71508556988550       -3.50147788765210
H          -11.03012967665407       -2.80701128946580       -4.79159717539122
H           -8.87918356631275       -4.01666250282410       -4.80325501033870
H           -6.96129752064043       -3.13574660096912       -3.54557800683536
H           -6.25301002694361       -2.82474361344802       -1.29442097300615
H           -4.30224194326933       -3.96084023362730        0.20593529074452
H           -0.13334905057478       -4.52257557490832        1.48974717248264
H            0.44675337721316       -6.81632686290598        2.12205369191879
H           -1.32503277104566       -8.42101310302856        2.74319332601237
H           -3.68630604925456       -7.70241255807917        2.73292982886599
H           -4.27043311669146       -5.39592717315798        2.11864282579790
H           -1.00382916055338       -2.56679552758611        2.54140544768237
H           -1.48364318523742       -0.24069445958206        1.93521531803905
H           -4.80723230458582        2.72621568157959        0.75595402118307
H           -3.63736258714093        4.88795030081146        1.05795922596297

          :  Hamiltonian                  GFN2-xTB          :
         :: gradient norm              0.000093030271 Eh/a0 ::
         :: HOMO-LUMO gap              1.323690401300 eV    ::
         :: SCC energy              -181.709946453699 Eh    ::
         :: -> dispersion             -0.165756795506 Eh    ::
         :: repulsion energy           3.438644159181 Eh    ::

    * Orbital Energies and Occupations

         #    Occupation            Energy/Eh            Energy/eV
      -------------------------------------------------------------
         1        2.0000           -0.7115860             -19.3632
       ...           ...                  ...                  ...
       154        2.0000           -0.4092553             -11.1364
       155        2.0000           -0.4069101             -11.0726
       156        2.0000           -0.4065295             -11.0622
       157        2.0000           -0.4063258             -11.0567
       158        2.0000           -0.4056578             -11.0385
       159        2.0000           -0.4047936             -11.0150
       160        2.0000           -0.3993028             -10.8656
       161        2.0000           -0.3976889             -10.8217
       162        2.0000           -0.3871393             -10.5346
       163        2.0000           -0.3861402             -10.5074
       164        2.0000           -0.3827034             -10.4139
       165        2.0000           -0.3719692             -10.1218
       166        2.0000           -0.3698808             -10.0650 (HOMO)
       167                         -0.3212360              -8.7413 (LUMO)
       168                         -0.3158415              -8.5945
       169                         -0.2778534              -7.5608
       170                         -0.2699602              -7.3460
       171                         -0.2573564              -7.0030
       172                         -0.2552612              -6.9460
       173                         -0.2523200              -6.8660
       174                         -0.2507297              -6.8227
       175                         -0.2464436              -6.7061
       176                         -0.2393912              -6.5142
       177                         -0.2316210              -6.3027
       ...                                ...                  ...
       326                          1.1649028              31.6986
      -------------------------------------------------------------
                  HL-Gap            0.0486448 Eh            1.3237 eV

     #   Z          covCN         q      C6AA      α(0)
     1   7 N        0.911    -0.192    25.175     7.257
     2   6 C        1.909     0.112    28.335     8.597
     3   6 C        2.953     0.100    25.781     8.328
     4   7 N        1.853    -0.219    26.611     7.646
     5   6 C        2.964     0.087    26.066     8.374
     6   6 C        2.988    -0.005    28.140     8.702
     7   6 C        2.921    -0.024    28.612     8.772
     8   6 C        2.918    -0.041    29.021     8.834
     9   6 C        2.910     0.071    26.403     8.426
    10   7 N        2.802    -0.039    21.989     6.964
    11   6 C        3.070     0.044    26.947     8.512
    12   6 C        2.909    -0.051    29.258     8.869
    13   6 C        2.929    -0.036    28.904     8.817
    14   6 C        2.976     0.001    27.990     8.678
    15   6 C        2.977     0.011    27.769     8.644
    16   6 C        2.925    -0.033    28.825     8.805
    17   6 C        2.918    -0.028    28.708     8.786
    18   6 C        2.920    -0.030    28.753     8.793
    19   6 C        2.918    -0.029    28.725     8.789
    20   6 C        2.925    -0.034    28.839     8.807
    21   6 C        2.919    -0.037    28.914     8.818
    22   6 C        3.064    -0.015    28.314     8.726
    23   6 C        3.064    -0.015    28.326     8.727
    24   6 C        2.918    -0.037    28.914     8.818
    25   6 C        2.977     0.002    27.968     8.675
    26   6 C        2.978     0.010    27.783     8.646
    27   6 C        2.925    -0.034    28.852     8.809
    28   6 C        2.918    -0.029    28.735     8.790
    29   6 C        2.920    -0.031    28.774     8.796
    30   6 C        2.919    -0.029    28.735     8.790
    31   6 C        2.925    -0.034    28.855     8.809
    32   6 C        2.929    -0.037    28.909     8.818
    33   6 C        2.908    -0.051    29.258     8.869
    34   6 C        3.069     0.045    26.930     8.509
    35   6 C        2.927    -0.050    29.248     8.869
    36   6 C        2.977     0.010    27.790     8.647
    37   6 C        2.977     0.010    27.794     8.648
    38   6 C        2.928    -0.051    29.257     8.870
    39   6 C        2.911     0.072    26.398     8.425
    40   7 N        2.802    -0.038    21.979     6.963
    41   6 C        3.068     0.045    26.933     8.510
    42   6 C        2.908    -0.051    29.260     8.870
    43   6 C        2.929    -0.037    28.913     8.818
    44   6 C        2.977     0.002    27.969     8.675
    45   6 C        2.977     0.010    27.783     8.646
    46   6 C        2.925    -0.034    28.854     8.809
    47   6 C        2.918    -0.029    28.736     8.791
    48   6 C        2.920    -0.031    28.775     8.797
    49   6 C        2.918    -0.029    28.736     8.791
    50   6 C        2.925    -0.034    28.854     8.809
    51   6 C        2.918    -0.037    28.914     8.818
    52   6 C        3.065    -0.015    28.319     8.726
    53   6 C        3.062    -0.015    28.317     8.726
    54   6 C        2.918    -0.037    28.913     8.818
    55   6 C        2.977     0.002    27.968     8.675
    56   6 C        2.978     0.010    27.789     8.647
    57   6 C        2.925    -0.034    28.838     8.807
    58   6 C        2.918    -0.030    28.761     8.794
    59   6 C        2.920    -0.031    28.769     8.796
    60   6 C        2.918    -0.030    28.743     8.792
    61   6 C        2.925    -0.035    28.863     8.810
    62   6 C        2.930    -0.037    28.910     8.818
    63   6 C        2.909    -0.051    29.259     8.870
    64   6 C        3.072     0.043    26.959     8.513
    65   6 C        2.918    -0.041    29.026     8.835
    66   6 C        2.921    -0.024    28.612     8.772
    67   6 C        2.988    -0.005    28.146     8.703
    68   6 C        2.964     0.087    26.065     8.374
    69   7 N        1.853    -0.219    26.612     7.646
    70   6 C        2.953     0.100    25.777     8.327
    71   6 C        1.909     0.112    28.334     8.597
    72   7 N        0.911    -0.192    25.173     7.256
    73   1 H        0.926     0.068     2.110     2.272
    74   1 H        0.926     0.052     2.290     2.366
    75   1 H        0.926     0.027     2.626     2.534
    76   1 H        0.926     0.033     2.539     2.492
    77   1 H        0.926     0.030     2.593     2.518
    78   1 H        0.926     0.030     2.592     2.517
    79   1 H        0.926     0.029     2.601     2.522
    80   1 H        0.926     0.029     2.598     2.521
    81   1 H        0.926     0.030     2.581     2.512
    82   1 H        0.926     0.037     2.493     2.469
    83   1 H        0.926     0.037     2.495     2.470
    84   1 H        0.926     0.031     2.578     2.511
    85   1 H        0.926     0.030     2.589     2.516
    86   1 H        0.926     0.030     2.589     2.516
    87   1 H        0.926     0.030     2.591     2.517
    88   1 H        0.926     0.030     2.585     2.514
    89   1 H        0.926     0.036     2.499     2.472
    90   1 H        0.926     0.031     2.575     2.509
    91   1 H        0.926     0.050     2.314     2.379
    92   1 H        0.926     0.051     2.310     2.377
    93   1 H        0.926     0.031     2.573     2.508
    94   1 H        0.926     0.036     2.502     2.474
    95   1 H        0.926     0.030     2.580     2.512
    96   1 H        0.926     0.030     2.588     2.516
    97   1 H        0.926     0.030     2.591     2.517
    98   1 H        0.926     0.030     2.593     2.518
    99   1 H        0.926     0.030     2.583     2.513
   100   1 H        0.926     0.037     2.491     2.468
   101   1 H        0.926     0.037     2.490     2.467
   102   1 H        0.926     0.028     2.610     2.526
   103   1 H        0.926     0.031     2.573     2.509
   104   1 H        0.926     0.029     2.600     2.521
   105   1 H        0.926     0.030     2.590     2.517
   106   1 H        0.926     0.031     2.579     2.511
   107   1 H        0.926     0.034     2.526     2.486
   108   1 H        0.926     0.027     2.626     2.534
   109   1 H        0.926     0.052     2.290     2.366
   110   1 H        0.926     0.068     2.112     2.273

molecular dipole:
                 x           y           z       tot (Debye)
 q only:        0.164      -2.868      -0.578
   full:        0.217      -3.443      -0.692       8.944

 projected vibrational frequencies (cm⁻¹)
eigval :       -0.00    -0.00     0.00     0.00     0.00     0.00
eigval :        7.76     9.97    14.29    17.09    18.42    24.70
eigval :       28.96    37.52    38.18    39.85    41.93    45.34
eigval :       48.88    54.01    58.27    59.90    66.24    67.39
eigval :       73.69    85.60    88.63    93.65    97.96   101.67
eigval :      114.97   117.30   129.22   132.88   135.43   140.28
eigval :      149.26   162.05   164.93   182.39   186.04   187.81
eigval :      218.99   220.80   240.53   241.58   250.75   253.44
eigval :      258.93   271.62   274.13   288.70   295.84   306.44
eigval :      319.21   321.90   327.99   345.36   355.48   368.90
eigval :      371.84   372.47   372.58   373.86   381.01   392.70
eigval :      394.60   397.71   397.97   399.89   400.89   408.14
eigval :      428.48   432.23   438.75   438.96   449.74   460.44
eigval :      463.29   475.45   478.64   482.80   486.36   493.38
eigval :      499.94   504.29   524.99   535.50   539.36   553.12
eigval :      554.53   560.85   567.99   572.62   574.26   587.01
eigval :      587.25   589.85   592.33   594.81   596.65   603.90
eigval :      614.55   623.94   624.56   626.07   626.88   637.92
eigval :      645.04   655.04   659.94   668.73   670.35   672.36
eigval :      673.23   685.73   686.50   687.02   691.54   706.02
eigval :      708.35   708.56   715.60   718.01   738.19   740.55
eigval :      743.05   755.33   758.53   758.75   758.92   760.04
eigval :      762.06   815.79   818.77   822.79   824.45   827.65
eigval :      842.25   843.51   860.29   866.32   868.65   872.19
eigval :      874.52   874.64   875.66   879.35   881.73   882.38
eigval :      883.32   892.39   902.10   902.44   902.91   904.46
eigval :      906.36   907.97   909.38   912.34   912.81   913.19
eigval :      925.52   930.45   930.64   930.70   931.59   932.40
eigval :      932.54   932.88   934.00   934.60   936.89   966.74
eigval :      972.23   972.38   981.72   982.52  1011.78  1027.42
eigval :     1029.32  1046.16  1066.61  1073.43  1073.65  1074.00
eigval :     1075.04  1086.57  1086.87  1087.18  1087.81  1122.20
eigval :     1122.25  1122.33  1122.78  1130.11  1138.62  1145.84
eigval :     1146.87  1157.65  1161.29  1164.52  1182.23  1182.43
eigval :     1182.62  1182.98  1186.00  1191.97  1201.60  1202.07
eigval :     1202.85  1203.89  1217.82  1219.38  1221.02  1221.95
eigval :     1228.34  1230.46  1245.76  1245.94  1257.61  1272.92
eigval :     1278.48  1279.66  1282.01  1282.17  1282.36  1282.64
eigval :     1286.49  1303.60  1304.51  1305.85  1306.34  1318.73
eigval :     1319.24  1320.00  1320.51  1328.93  1336.93  1343.99
eigval :     1346.20  1348.87  1353.81  1358.27  1360.16  1364.46
eigval :     1397.68  1404.57  1408.00  1411.27  1417.67  1426.20
eigval :     1430.49  1430.66  1430.94  1433.30  1433.57  1445.05
eigval :     1459.40  1460.53  1462.74  1466.94  1469.20  1474.15
eigval :     1490.45  1493.59  1493.91  1494.63  1496.84  1497.34
eigval :     1536.41  1546.37  1565.06  1565.48  1574.18  1574.71
eigval :     1578.75  1582.26  1583.06  1583.97  1584.34  1588.30
eigval :     1593.89  1594.13  1598.12  1598.33  1603.12  1603.35
eigval :     1613.26  1613.82  2368.02  2369.51  3070.88  3071.08
eigval :     3071.12  3071.28  3072.00  3072.08  3073.38  3075.07
eigval :     3079.19  3079.80  3080.07  3080.22  3080.72  3081.62
eigval :     3083.35  3083.39  3085.09  3085.16  3085.27  3087.44
eigval :     3090.44  3090.88  3092.12  3092.52  3092.58  3092.99
eigval :     3094.13  3094.15  3095.95  3096.00  3097.91  3099.85
eigval :     3101.48  3102.22  3112.33  3112.52  3113.83  3125.25

   temp. (K)  partition function   enthalpy   heat capacity  entropy
                                   cal/mol     cal/K/mol   cal/K/mol   J/K/mol
 298.15  VIB  0.652E+27            33482.643    207.875    210.432
         ROT  0.344E+09              888.752      2.981     42.040
         INT  0.224E+36            34371.395    210.856    252.473
         TR   0.268E+29             1481.254      4.968     46.296
         TOT                       35852.6492   215.8241   298.7684  1250.0471

       T/K    H(0)-H(T)+PV         H(T)/Eh          T*S/Eh         G(T)/Eh
   ------------------------------------------------------------------------
    298.15    0.571348E-01    0.880400E+00    0.141955E+00    0.738445E+00
   ------------------------------------------------------------------------

         :::::::::::::::::::::::::::::::::::::::::::::::::::::
         ::                  THERMODYNAMIC                  ::
         :::::::::::::::::::::::::::::::::::::::::::::::::::::
         :: total free energy        -177.532856950080 Eh   ::
         ::.................................................::
         :: total energy             -178.271302294474 Eh   ::
         :: zero point energy           0.823265029010 Eh   ::
         :: G(RRHO) w/o ZPVE           -0.084819684617 Eh   ::
         :: G(RRHO) contrib.            0.738445344394 Eh   ::
         :::::::::::::::::::::::::::::::::::::::::::::::::::::

           -------------------------------------------------
          | TOTAL ENERGY             -178.271302294474 Eh   |
          | TOTAL ENTHALPY           -177.390902432206 Eh   |
          | TOTAL FREE ENERGY        -177.532856950080 Eh   |
          | GRADIENT NORM               0.000093093148 Eh/α |
          | HOMO-LUMO GAP               1.323691471696 eV   |
           -------------------------------------------------

 * finished run on 2025/07/16 at 12:25:14.119
