   * xtb version 6.7.1 (edcfbbe) compiled by 'albert@albert-system' on 2024-07-22

   ID    Z sym.   atoms
    1    7 N      1, 4, 10, 40, 69, 72
    2    6 C      2, 3, 5-9, 11-39, 41-68, 70, 71
    3    1 H      73-110

          program call               : xtb data2507/gas/DDPhCz-DCPP/DDPhCz-DCPP_gas_S0_finalOpt.xtbopt.xyz --gfn 2 --spinpol --tblite --uhf 2 --ohess vtight --parallel 40 --molden --ceasefiles --namespace data2507/gas/DDPhCz-DCPP/DDPhCz-DCPP_gas_T1_preOpt
 * total energy  :  -178.2154501 Eh     change       -0.1045680E-07 Eh
 * total energy  :  -178.2174529 Eh     change       -0.2002808E-02 Eh
 * total energy  :  -178.2173181 Eh     change        0.1348181E-03 Eh
 * total energy  :  -178.2177465 Eh     change       -0.4284132E-03 Eh
 * total energy  :  -178.2178432 Eh     change       -0.9667849E-04 Eh
 * total energy  :  -178.2178563 Eh     change       -0.1318502E-04 Eh
 * total energy  :  -178.2178597 Eh     change       -0.3375292E-05 Eh
 * total energy  :  -178.2178724 Eh     change       -0.1269023E-04 Eh
 * total energy  :  -178.2178763 Eh     change       -0.3878050E-05 Eh
 * total energy  :  -178.2178795 Eh     change       -0.3218952E-05 Eh
 * total energy  :  -178.2178875 Eh     change       -0.1498746E-05 Eh
 * total energy  :  -178.2178885 Eh     change       -0.1024571E-05 Eh
 * total energy  :  -178.2178892 Eh     change       -0.7106105E-06 Eh
 * total energy  :  -178.2178896 Eh     change       -0.4184445E-06 Eh
 * total energy  :  -178.2178901 Eh     change       -0.4648305E-06 Eh
 * total energy  :  -178.2178905 Eh     change       -0.4323629E-06 Eh
 * total energy  :  -178.2178909 Eh     change       -0.3907387E-06 Eh
 * total energy  :  -178.2178909 Eh     change       -0.6971874E-08 Eh
 * total energy  :  -178.2178910 Eh     change       -0.1381125E-07 Eh
   *** GEOMETRY OPTIMIZATION CONVERGED AFTER 23 ITERATIONS ***

 final structure:
================
110
 xtb: 6.7.1 (edcfbbe)
N            1.43385381381563        9.89415522540564        1.78523099286915
C            0.91373471276413        8.88691694445861        1.60427993605536
C            0.27656291197404        7.65247987598318        1.37815463785595
N            0.99923054269163        6.55811009526755        1.14273856149829
C            0.38933551449967        5.38202886157599        0.92483836981355
C            1.15514286016082        4.21224701043064        0.66443926700976
C            2.56155914544233        4.27940998119699        0.68365151353137
C            3.32616168418128        3.16365906247924        0.48746492482836
C            2.70040034165831        1.93110124937219        0.22834028312532
N            3.45800295228857        0.76931488364126        0.04948602556476
C            3.19784797043261       -0.45162374580715        0.64204458431841
C            2.23477490756302       -0.80213031058065        1.57904698618632
C            2.21232058092680       -2.10559417653705        2.03073856760059
C            3.12402435267622       -3.06844821939388        1.57831761593423
C            3.05757256732228       -4.44751444417491        2.08261785070079
C            2.78693613251636       -4.70583241431237        3.42516101229322
C            2.74661849837120       -6.00345269526655        3.89925049642480
C            2.97121688737609       -7.06671156049678        3.04024403814948
C            3.23257769953521       -6.82297931040614        1.70154735122703
C            3.27612483618821       -5.52564338408524        1.22666214906925
C            4.10628787717976       -2.70337554481060        0.66300241713242
C            4.15072078344988       -1.39886437341850        0.20164559261609
C            5.02870978090406       -0.70327090235130       -0.70152250019204
C            6.12739503109464       -1.09724222050531       -1.44558370329015
C            6.75566535733543       -0.17057227606851       -2.27131980206988
C            7.92702616788055       -0.56198593034879       -3.06780807896100
C            8.91553797882458       -1.37677839125058       -2.51906493456210
C           10.01978606510147       -1.74409761037995       -3.26466075313299
C           10.15306315267632       -1.30948173316980       -4.57288897139056
C            9.17499104304308       -0.50266850608277       -5.13014798898989
C            8.07279866089370       -0.12933819166391       -4.38435953104975
C            6.25796847291524        1.13731505219899       -2.34718207649495
C            5.16814209955802        1.55229885721045       -1.60964308101005
C            4.56211486795522        0.63007277798553       -0.76739869446312
C            1.32349855714271        1.85586956102218        0.16950580260233
C            0.51612005227852        2.97406607562462        0.40524380288094
C           -0.91995849885337        2.90129277487280        0.43037581077458
C           -1.61699338680520        1.71123848973566        0.19953872067647
C           -2.99019489600585        1.63776107152170        0.32296774965831
N           -3.61920203694638        0.40126867092476        0.15237773160989
C           -4.73440285715024        0.13937340855443       -0.61806970920965
C           -5.51550677883429        0.99995737998294       -1.37729738883035
C           -6.58020133086274        0.46486122494801       -2.07297103837473
C           -6.87489129620091       -0.90503677324376       -2.04779257136300
C           -8.02434926398595       -1.42441311294968       -2.80159374436800
C           -9.23358170126705       -0.73193813289263       -2.82037171909803
C          -10.31568287220689       -1.22333193006509       -3.52594535209380
C          -10.20752908957015       -2.41130035873892       -4.22964037671940
C           -9.00993849773115       -3.10690124103151       -4.22038364392839
C           -7.92840968402512       -2.62030662697140       -3.51063957787358
C           -6.06505161518991       -1.76777614120146       -1.31598158414125
C           -4.99685799709301       -1.25061445999882       -0.60383374090480
C           -3.97874966682258       -1.85146624791757        0.21727649501650
C           -3.70407458226728       -3.15758598658570        0.58695297543988
C           -2.61032133715164       -3.41513241271889        1.40717543106554
C           -2.26084527159492       -4.79180510381254        1.78282493924176
C           -0.92847273331180       -5.20098047856997        1.80856298505153
C           -0.59724888214265       -6.49736532448866        2.15429935365330
C           -1.58963894854986       -7.40412528164074        2.48748211813266
C           -2.91683058149855       -7.00837266694774        2.46769410312579
C           -3.25078961379845       -5.71445092956223        2.11508350762837
C           -1.83735427169733       -2.34778388386591        1.88319787869551
C           -2.09905990105813       -1.03971104426106        1.53486465271087
C           -3.15399807610701       -0.79472402608592        0.66521841272491
C           -3.72875436888743        2.79191275045804        0.63842156687719
C           -3.07675715565537        3.98030540620015        0.81604325942818
C           -1.67356103501656        4.06325657676470        0.73167967613801
C           -1.02388265890761        5.30688261574537        0.96307564693394
N           -1.74262125505264        6.41146341321770        1.21938011400179
C           -1.12866417174824        7.57730179734711        1.41802486537100
C           -1.88011475237371        8.73724961817680        1.68379987597242
N           -2.49388665858251        9.68364412215411        1.89696044367993
H            3.01769038635205        5.23606671705214        0.88747329846621
H            4.40176489953771        3.21195847015384        0.55624317855225
H            1.53085041567235       -0.07822039655737        1.96042791788515
H            1.46047727373031       -2.39733746929637        2.74868972357807
H            2.63339323442308       -3.88214922912737        4.10702775379110
H            2.54171928438900       -6.18722229124980        4.94377318442785
H            2.93994253921443       -8.08046623770053        3.41160750929486
H            3.39965094588186       -7.64833008895653        1.02453119270022
H            3.46238178815449       -5.34392197300586        0.17807712561537
H            4.84359359384474       -3.42095148939944        0.33672918900000
H            6.47547813422374       -2.11820636004522       -1.40520763601014
H            8.82621028044471       -1.70399931695788       -1.49321880145175
H           10.78158641115376       -2.37014878464390       -2.82314926844328
H           11.01521007616601       -1.59822844652240       -5.15554698054048
H            9.27114476503735       -0.16458486083595       -6.15171760745698
H            7.30476528321110        0.48488881139494       -4.83164840739656
H            6.75558924450702        1.84699431872640       -2.99090355409559
H            4.79698311111461        2.56169952849980       -1.69851279959238
H            0.87996296885135        0.90353568026593       -0.07138267621663
H           -1.08825451398667        0.81877046711563       -0.09241169361356
H           -5.29329891999490        2.05402601085202       -1.44004928161315
H           -7.19147107286983        1.11719809613169       -2.67838616995876
H           -9.33030713813823        0.18600238153923       -2.25892074003850
H          -11.24862786208017       -0.67862446875769       -3.52579965540218
H          -11.05265714552519       -2.79316384508751       -4.78288978888645
H           -8.91825364453730       -4.03177415318423       -4.77122664961591
H           -6.99148435398211       -3.15820550308189       -3.52304139825684
H           -6.27715303074784       -2.82571508580796       -1.28771054576278
H           -4.31715179078936       -3.96749278458120        0.22210760187636
H           -0.14768640560470       -4.50690119221700        1.53204577389484
H            0.43934372319934       -6.79906815249202        2.16260183337231
H           -1.32946288410494       -8.41594787321526        2.76084975566294
H           -3.69453627873149       -7.71084684427024        2.73027691150410
H           -4.28631278984213       -5.40618530718325        2.11857045256291
H           -1.02615198668347       -2.55904317498089        2.56296297863783
H           -1.50731182707073       -0.23421254383038        1.94242410207777
H           -4.79837732422041        2.72518169651215        0.76161237357312
H           -3.62087085467549        4.88135167464339        1.05456504167693

 projected vibrational frequencies (cm⁻¹)
eigval :       -0.00    -0.00    -0.00     0.00     0.00     0.00
eigval :        7.67    10.26    14.69    17.13    18.54    28.58
eigval :       33.12    37.70    38.17    40.33    41.95    45.35
eigval :       48.35    53.13    58.54    58.78    65.65    67.00
eigval :       73.99    86.40    87.54    96.11   100.20   101.72
eigval :      113.67   117.72   125.66   131.46   134.66   139.17
eigval :      148.36   159.79   161.47   182.21   186.06   187.36
eigval :      215.08   221.47   237.13   239.22   249.91   253.09
eigval :      259.59   268.44   273.75   288.21   295.38   305.56
eigval :      318.07   321.02   327.17   336.78   353.69   367.26
eigval :      371.28   371.80   371.94   373.34   374.10   381.55
eigval :      390.05   394.32   396.19   396.67   398.67   407.15
eigval :      426.73   429.44   436.15   438.17   443.49   451.52
eigval :      464.94   475.40   478.29   481.96   486.55   493.40
eigval :      498.64   502.78   509.69   527.68   532.44   539.77
eigval :      553.41   557.08   564.32   572.31   575.05   586.77
eigval :      586.97   587.94   589.93   592.36   594.12   601.57
eigval :      604.85   610.68   621.01   623.84   624.41   625.67
eigval :      636.43   636.84   637.01   650.04   668.31   669.50
eigval :      671.91   672.55   678.54   680.14   687.31   687.84
eigval :      697.42   707.96   708.64   714.80   720.01   734.41
eigval :      739.17   741.19   756.34   758.20   758.41   759.34
eigval :      761.17   817.73   818.73   821.59   823.71   827.92
eigval :      835.08   837.15   859.38   863.15   867.48   870.32
eigval :      872.45   872.80   873.73   877.98   879.97   880.61
eigval :      881.70   889.56   899.44   902.42   902.66   903.58
eigval :      904.61   906.62   907.93   911.53   911.65   912.13
eigval :      924.16   925.57   926.18   930.55   930.65   930.74
eigval :      931.42   932.25   932.27   932.84   936.52   946.97
eigval :      971.70   971.91   981.12   981.41   994.96  1009.23
eigval :     1026.65  1028.53  1043.62  1064.03  1071.63  1071.94
eigval :     1072.26  1073.26  1086.22  1086.56  1086.94  1087.45
eigval :     1122.21  1122.43  1122.55  1122.97  1128.17  1129.47
eigval :     1134.80  1144.94  1149.01  1155.22  1159.47  1181.66
eigval :     1181.87  1182.16  1182.48  1183.49  1189.63  1200.72
eigval :     1201.29  1201.73  1203.08  1213.61  1216.49  1219.81
eigval :     1220.90  1226.03  1226.96  1243.90  1245.45  1247.85
eigval :     1257.10  1277.68  1278.86  1281.57  1281.78  1281.80
eigval :     1282.24  1289.13  1297.82  1298.95  1301.07  1301.85
eigval :     1318.72  1319.32  1319.90  1320.15  1323.10  1329.71
eigval :     1337.80  1344.45  1348.14  1348.97  1351.21  1355.79
eigval :     1364.54  1385.95  1392.08  1406.87  1408.38  1415.10
eigval :     1415.96  1429.10  1430.02  1430.60  1431.79  1431.81
eigval :     1432.63  1454.21  1454.77  1455.60  1465.80  1466.70
eigval :     1469.86  1470.92  1490.40  1490.65  1493.94  1494.75
eigval :     1506.89  1526.46  1558.84  1559.24  1567.66  1569.53
eigval :     1572.06  1578.56  1579.25  1579.69  1581.17  1581.41
eigval :     1581.84  1582.02  1593.33  1595.02  1600.28  1600.44
eigval :     1606.81  1609.93  2317.16  2343.28  3072.00  3072.06
eigval :     3072.09  3072.12  3073.12  3073.39  3074.40  3075.62
eigval :     3080.43  3081.05  3081.23  3081.26  3082.41  3084.35
eigval :     3084.50  3084.71  3086.11  3087.04  3087.29  3088.26
eigval :     3090.36  3090.97  3092.97  3093.25  3093.45  3093.55
eigval :     3093.91  3094.14  3094.34  3094.42  3097.70  3098.02
eigval :     3098.37  3099.54  3104.52  3105.14  3106.17  3117.74

   temp. (K)  partition function   enthalpy   heat capacity  entropy
                                   cal/mol     cal/K/mol   cal/K/mol   J/K/mol
 298.15  VIB  0.611E+27            33677.702    209.357    211.411
         ROT  0.344E+09              888.752      2.981     42.045
         INT  0.211E+36            34566.454    212.338    253.456
         TR   0.268E+29             1481.254      4.968     46.296
         TOT                       36047.7080   217.3065   299.7518  1254.1617

       T/K    H(0)-H(T)+PV         H(T)/Eh          T*S/Eh         G(T)/Eh
   ------------------------------------------------------------------------
    298.15    0.574457E-01    0.877256E+00    0.142422E+00    0.734834E+00
   ------------------------------------------------------------------------

         :::::::::::::::::::::::::::::::::::::::::::::::::::::
         ::                  THERMODYNAMIC                  ::
         :::::::::::::::::::::::::::::::::::::::::::::::::::::
         :: total free energy        -177.483056861150 Eh   ::
         ::.................................................::
         :: total energy             -178.217890953423 Eh   ::
         :: zero point energy           0.819810184955 Eh   ::
         :: G(RRHO) w/o ZPVE           -0.084976092682 Eh   ::
         :: G(RRHO) contrib.            0.734834092273 Eh   ::
         :::::::::::::::::::::::::::::::::::::::::::::::::::::

           -------------------------------------------------
          | TOTAL ENERGY             -178.217890953423 Eh   |
          | TOTAL ENTHALPY           -177.340635089137 Eh   |
          | TOTAL FREE ENERGY        -177.483056861150 Eh   |
          | GRADIENT NORM               0.000099010836 Eh/α |
           -------------------------------------------------

 * finished run on 2025/07/16 at 12:25:36.303
