   * xtb version 6.7.1 (edcfbbe) compiled by 'albert@albert-system' on 2024-07-22

   ID    Z sym.   atoms
    1    7 N      1, 4, 10, 40, 69, 72
    2    6 C      2, 3, 5-9, 11-39, 41-68, 70, 71
    3    1 H      73-110

          program call               : xtb data2507/gas/DDPhCz-DCPP/DDPhCz-DCPP_gas_T1_crest.xyz --gfn 2 --spinpol --tblite --uhf 2 --ohess vtight --parallel 40 --molden --ceasefiles --namespace data2507/gas/DDPhCz-DCPP/DDPhCz-DCPP_gas_T1_finalOpt
 * total energy  :  -178.2178066 Eh     change        0.1888472E-07 Eh
 * total energy  :  -178.2178593 Eh     change       -0.5270335E-04 Eh
 * total energy  :  -178.2178687 Eh     change       -0.9359965E-05 Eh
 * total energy  :  -178.2178719 Eh     change       -0.3206440E-05 Eh
 * total energy  :  -178.2178741 Eh     change       -0.2227913E-05 Eh
 * total energy  :  -178.2178749 Eh     change       -0.7723551E-06 Eh
 * total energy  :  -178.2178760 Eh     change       -0.1146631E-05 Eh
 * total energy  :  -178.2178775 Eh     change       -0.1492722E-05 Eh
 * total energy  :  -178.2178791 Eh     change       -0.1514414E-05 Eh
 * total energy  :  -178.2178802 Eh     change       -0.1175534E-05 Eh
 * total energy  :  -178.2178874 Eh     change       -0.2642498E-06 Eh
 * total energy  :  -178.2178875 Eh     change       -0.1111949E-06 Eh
 * total energy  :  -178.2178878 Eh     change       -0.3250121E-06 Eh
 * total energy  :  -178.2178881 Eh     change       -0.2732639E-06 Eh
 * total energy  :  -178.2178880 Eh     change        0.1326686E-06 Eh
 * total energy  :  -178.2178882 Eh     change       -0.2524877E-06 Eh
 * total energy  :  -178.2178881 Eh     change        0.1145799E-06 Eh
 * total energy  :  -178.2178883 Eh     change       -0.2136561E-06 Eh
 * total energy  :  -178.2178884 Eh     change       -0.8556958E-07 Eh
   *** GEOMETRY OPTIMIZATION CONVERGED AFTER 29 ITERATIONS ***

 final structure:
================
110
 xtb: 6.7.1 (edcfbbe)
N            1.57566295266384        9.85727083867489        1.85464541049694
C            1.04155442661706        8.85973927974106        1.66127219665636
C            0.38721177524532        7.63737358742034        1.41921493791137
N            1.09477397754562        6.53334632501321        1.18294193050471
C            0.46846211096896        5.36888927141887        0.94952650387697
C            1.21804275031509        4.18887718774588        0.68819717118596
C            2.62500802998509        4.23314469509473        0.72432028405786
C            3.37380106105190        3.10688261014051        0.52755198810627
C            2.73155087848456        1.88704201045596        0.24911451684216
N            3.47307381885835        0.71532564949973        0.06817555440592
C            3.18636284500672       -0.50744963324707        0.64465244052448
C            2.20445243258933       -0.85314872277452        1.56372696316780
C            2.15627599808532       -2.16061964971153        2.00164064769692
C            3.05998160614467       -3.13232309700324        1.55233114944103
C            2.96423889074091       -4.51573872095837        2.03977845484837
C            2.67403516928574       -4.78475819324032        3.37607961133913
C            2.60562954396548       -6.08693855482835        3.83417823580146
C            2.82041872562278       -7.14387053851429        2.96480887789247
C            3.10087226124934       -6.88920871679381        1.63205570189623
C            3.17322427973340       -5.58735343894405        1.17338425524605
C            4.06155125578186       -2.77253213719753        0.65612966907062
C            4.13243062167387       -1.46400078635136        0.20968565618873
C            5.03531579869355       -0.77205362589313       -0.67142196764445
C            6.14230229695633       -1.17382816325072       -1.39880512179622
C            6.79873342672359       -0.24771351758694       -2.20294364195846
C            7.98164787529253       -0.64630339009042       -2.97852910169157
C            8.94923707960844       -1.47649598333219       -2.41575036722389
C           10.06521922200012       -1.84970140989063       -3.14065384859741
C           10.23120009853257       -1.40571309346058       -4.44197710743360
C            9.27400377120916       -0.58374497373747       -5.01317089992050
C            8.16017490245837       -0.20445501580027       -4.28793699342809
C            6.31948554980429        1.06717612802471       -2.27596960077850
C            5.22175047851607        1.48985329287282       -1.55468338378999
C            4.58853502955406        0.56830937539425       -0.73187599866648
C            1.35433558692494        1.83460573063982        0.17369743516284
C            0.56219520785411        2.96326545935763        0.41161676265380
C           -0.87508715551280        2.91287751120822        0.42328793418748
C           -1.58884084619527        1.73511558792051        0.18018710924029
C           -2.96389218843671        1.68235658135676        0.29358657771824
N           -3.61137238304502        0.45655332946669        0.11537730063726
C           -4.72992127631430        0.21568919916991       -0.65702031421571
C           -5.49198006859046        1.09024704828563       -1.41970484610951
C           -6.56610331772504        0.57532313139836       -2.11614173761895
C           -6.88847521614519       -0.78827980667158       -2.08862533448151
C           -8.04728119684318       -1.28619946801880       -2.84260255425771
C           -9.24288811661881       -0.57052574508698       -2.86292721926624
C          -10.33413314616646       -1.04227329631957       -3.56784000888665
C          -10.24873328809469       -2.23334659093113       -4.26941521673137
C           -9.06472115710888       -2.95180178490670       -4.25879747511996
C           -7.97418559327665       -2.48490801368264       -3.54960519517963
C           -6.09747032746209       -1.66568670337175       -1.35369452407311
C           -5.02048228486611       -1.16865210302945       -0.64051218108254
C           -4.01704453277777       -1.78812775625407        0.18469015860495
C           -3.77166504971060       -3.09851413305748        0.55976652264698
C           -2.68630514390068       -3.37641620766155        1.38436094775286
C           -2.36885248792333       -4.75880569751958        1.76750870334502
C           -1.04659502991163       -5.19933082531294        1.79389854114367
C           -0.74589908297068       -6.50116389594200        2.14705972532986
C           -1.75910552535993       -7.38171502617289        2.48780829816256
C           -3.07651389937009       -6.95453000637592        2.46758709673706
C           -3.38007716446863       -5.65535374712444        2.10690229784734
C           -1.89168944675990       -2.32434762164003        1.85849888830285
C           -2.12449005962335       -1.01210390142677        1.50525005572405
C           -3.17180816431443       -0.74746292320379        0.63217553585326
C           -3.68686345032441        2.84637893936694        0.60901674027681
C           -3.01788883591633        4.02343203380029        0.79811496968600
C           -1.61291207108938        4.08459756340282        0.72600623477752
C           -0.94602418748686        5.31614211556290        0.97239486557438
N           -1.64976366489679        6.43015267167404        1.22963511028419
C           -1.01939122833546        7.58445895029739        1.44376323405478
C           -1.75522995920549        8.75409921857700        1.71077041509820
N           -2.35599096972637        9.70862738647327        1.92487310616946
H            3.09400674139714        5.18052481769201        0.94180937463193
H            4.44907049445231        3.13712202387039        0.61022049727369
H            1.50565669754768       -0.12289924164462        1.94239344867720
H            1.38991293736321       -2.44854405757636        2.70561106545724
H            2.52724098504474       -3.96640848823783        4.06581965131767
H            2.38587537537099       -6.27934391009052        4.87412229296608
H            2.76681937650424       -8.16123476463391        3.32361572621046
H            3.26040286368636       -7.70942306111820        0.94706000246552
H            3.37484062214419       -5.39639780216814        0.12927821983010
H            4.79286788989098       -3.49777915037713        0.33332090671633
H            6.47601559051420       -2.19971120196470       -1.36186949700028
H            8.83432734678565       -1.81113276763054       -1.39484997925898
H           10.81066048739798       -2.48755585201016       -2.68824586982169
H           11.10257542912227       -1.69892024003955       -5.00845573069755
H            9.39568522527092       -0.23837631164400       -6.02956664495579
H            7.40862311832502        0.42197950008441       -4.74616693250491
H            6.83832749481746        1.77606824821266       -2.90360954986397
H            4.86571045051106        2.50489780015570       -1.64098921170802
H            0.89830814214836        0.89211149963422       -0.08207017982465
H           -1.07184349866086        0.83603347171941       -0.11251884566075
H           -5.24834669851069        2.13947475930493       -1.48426271794527
H           -7.16313652476880        1.23859229506969       -2.72389396902548
H           -9.32198866830068        0.35005899937187       -2.30304196629752
H          -11.25648772653500       -0.47982032206567       -3.56869838641532
H          -11.10100464555114       -2.59992674314192       -4.82204751875112
H           -8.99072017579355       -3.87917121144686       -4.80810220424730
H           -7.04775781573022       -3.04072303208951       -3.56083395980736
H           -6.33096669904803       -2.71906042451149       -1.32364083205479
H           -4.40111082925469       -3.89642583850451        0.19634205729600
H           -0.25002032480959       -4.52567326884017        1.51193153080259
H            0.28318741626200       -6.82760208682098        2.15526400798253
H           -1.52271541415381       -8.39767083971020        2.76739224101066
H           -3.87029135455593       -7.63645386657071        2.73617859212012
H           -4.40790091367910       -5.32227178210010        2.10968642179118
H           -1.08714915552908       -2.55072255223095        2.54131883071832
H           -1.51694081194414       -0.21818621471282        1.91223099043621
H           -4.75829399952513        2.79564544824723        0.72380580660630
H           -3.54968222867588        4.93156901577751        1.03752094796124

 projected vibrational frequencies (cm⁻¹)
eigval :       -0.00    -0.00    -0.00     0.00     0.00     0.00
eigval :        7.83    10.11    14.51    17.11    18.47    28.49
eigval :       33.07    37.74    38.24    40.26    42.37    45.18
eigval :       48.54    53.10    58.48    58.78    66.02    66.53
eigval :       74.32    86.36    87.46    95.98   100.17   101.50
eigval :      113.81   117.35   125.82   131.54   134.86   138.99
eigval :      148.30   159.91   161.51   182.13   186.05   187.44
eigval :      215.12   221.52   237.21   239.81   249.95   252.79
eigval :      259.46   268.44   273.79   288.26   295.25   305.44
eigval :      317.99   320.92   326.86   336.71   353.74   367.40
eigval :      371.09   371.64   372.07   373.37   374.15   381.52
eigval :      390.05   394.32   396.25   396.60   398.65   407.19
eigval :      426.75   429.64   436.24   438.19   443.52   451.62
eigval :      465.04   475.42   478.31   482.03   486.50   493.35
eigval :      498.96   502.92   509.67   527.67   531.71   539.87
eigval :      553.46   557.10   564.34   572.34   575.02   586.77
eigval :      586.94   587.98   590.16   592.44   594.12   601.50
eigval :      604.87   610.58   621.02   623.82   624.45   625.76
eigval :      636.54   636.92   637.17   650.10   668.38   669.52
eigval :      671.89   672.58   678.59   680.14   687.34   687.84
eigval :      697.30   707.99   708.74   714.83   720.04   734.78
eigval :      739.25   741.18   756.39   758.26   758.54   759.47
eigval :      761.05   817.72   818.67   821.56   823.72   827.93
eigval :      835.20   837.30   859.44   863.29   867.55   870.40
eigval :      872.44   872.82   873.67   878.01   880.05   880.68
eigval :      881.77   889.72   899.52   902.37   902.70   903.69
eigval :      904.68   906.59   907.97   911.43   911.62   911.90
eigval :      924.25   925.82   926.37   930.46   930.63   930.77
eigval :      931.46   932.22   932.24   932.87   936.61   947.82
eigval :      971.72   971.91   981.18   981.40   995.48  1009.21
eigval :     1026.65  1028.60  1043.19  1063.75  1071.76  1071.98
eigval :     1072.38  1073.44  1086.22  1086.53  1086.97  1087.45
eigval :     1122.28  1122.39  1122.59  1122.98  1126.70  1129.42
eigval :     1134.71  1145.17  1149.09  1155.32  1159.52  1181.72
eigval :     1181.98  1182.18  1182.38  1183.45  1189.69  1200.54
eigval :     1201.20  1201.30  1202.94  1213.72  1216.98  1219.70
eigval :     1220.70  1226.03  1226.78  1243.78  1245.30  1248.56
eigval :     1256.71  1277.55  1278.74  1281.50  1281.71  1281.83
eigval :     1282.20  1288.96  1297.64  1298.93  1299.87  1301.94
eigval :     1318.69  1319.30  1319.86  1320.13  1323.42  1329.38
eigval :     1337.69  1344.69  1348.14  1348.97  1351.24  1355.70
eigval :     1364.59  1385.96  1392.09  1406.79  1408.32  1415.04
eigval :     1416.20  1429.13  1429.94  1430.63  1431.70  1431.77
eigval :     1432.55  1454.21  1454.74  1455.45  1465.73  1466.63
eigval :     1469.76  1470.76  1490.40  1490.66  1494.23  1494.82
eigval :     1506.82  1526.41  1558.87  1559.23  1567.68  1569.27
eigval :     1572.09  1578.56  1579.31  1579.66  1581.21  1581.42
eigval :     1581.85  1582.08  1593.90  1595.15  1600.27  1600.44
eigval :     1607.14  1609.97  2317.15  2343.33  3071.89  3071.96
eigval :     3072.08  3072.26  3073.15  3073.19  3074.38  3075.36
eigval :     3080.31  3080.96  3080.98  3081.21  3082.55  3084.35
eigval :     3084.46  3084.49  3086.25  3086.90  3087.01  3088.20
eigval :     3090.42  3090.71  3092.35  3093.04  3093.29  3093.48
eigval :     3093.57  3094.00  3094.13  3094.35  3097.19  3097.70
eigval :     3098.17  3099.20  3104.61  3105.22  3106.04  3117.80

   temp. (K)  partition function   enthalpy   heat capacity  entropy
                                   cal/mol     cal/K/mol   cal/K/mol   J/K/mol
 298.15  VIB  0.616E+27            33677.181    209.359    211.422
         ROT  0.345E+09              888.752      2.981     42.049
         INT  0.212E+36            34565.934    212.340    253.471
         TR   0.268E+29             1481.254      4.968     46.296
         TOT                       36047.1875   217.3077   299.7668  1254.2244

       T/K    H(0)-H(T)+PV         H(T)/Eh          T*S/Eh         G(T)/Eh
   ------------------------------------------------------------------------
    298.15    0.574448E-01    0.877247E+00    0.142429E+00    0.734818E+00
   ------------------------------------------------------------------------

         :::::::::::::::::::::::::::::::::::::::::::::::::::::
         ::                  THERMODYNAMIC                  ::
         :::::::::::::::::::::::::::::::::::::::::::::::::::::
         :: total free energy        -177.483070314686 Eh   ::
         ::.................................................::
         :: total energy             -178.217888391084 Eh   ::
         :: zero point energy           0.819802122154 Eh   ::
         :: G(RRHO) w/o ZPVE           -0.084984045756 Eh   ::
         :: G(RRHO) contrib.            0.734818076398 Eh   ::
         :::::::::::::::::::::::::::::::::::::::::::::::::::::

           -------------------------------------------------
          | TOTAL ENERGY             -178.217888391084 Eh   |
          | TOTAL ENTHALPY           -177.340641419075 Eh   |
          | TOTAL FREE ENERGY        -177.483070314686 Eh   |
          | GRADIENT NORM               0.000143881618 Eh/α |
           -------------------------------------------------

 * finished run on 2025/07/16 at 12:38:00.914
