   * xtb version 6.7.1 (edcfbbe) compiled by 'albert@albert-system' on 2024-07-22

   ID    Z sym.   atoms
    1    7 N      1, 4, 10, 40, 69, 72
    2    6 C      2, 3, 5-9, 11-39, 41-68, 70, 71
    3    1 H      73-110

          program call               : xtb data2507/gas/DDPhCz-DCPP/DDPhCz-DCPP.xyz --gfn 2 --ohess vtight --parallel 40 --molden --ceasefiles --namespace data2507/gas/DDPhCz-DCPP/DDPhCz-DCPP_gas_S0_preOpt
          :  Hamiltonian                  GFN2-xTB          :
 * total energy  :  -178.2355917 Eh     change       -0.5064862E-08 Eh
 * total energy  :  -178.2585160 Eh     change       -0.2292425E-01 Eh
 * total energy  :  -178.2648124 Eh     change       -0.6296402E-02 Eh
 * total energy  :  -178.2668098 Eh     change       -0.1997407E-02 Eh
 * total energy  :  -178.2678009 Eh     change       -0.9911664E-03 Eh
 * total energy  :  -178.2675899 Eh     change        0.2110587E-03 Eh
 * total energy  :  -178.2685158 Eh     change       -0.9258736E-03 Eh
 * total energy  :  -178.2687352 Eh     change       -0.2194357E-03 Eh
 * total energy  :  -178.2691371 Eh     change       -0.4018660E-03 Eh
 * total energy  :  -178.2696207 Eh     change       -0.4836407E-03 Eh
 * total energy  :  -178.2711819 Eh     change       -0.1430799E-05 Eh
 * total energy  :  -178.2711835 Eh     change       -0.1550937E-05 Eh
 * total energy  :  -178.2711852 Eh     change       -0.1757128E-05 Eh
 * total energy  :  -178.2711871 Eh     change       -0.1873322E-05 Eh
 * total energy  :  -178.2711891 Eh     change       -0.1978837E-05 Eh
 * total energy  :  -178.2711911 Eh     change       -0.1990319E-05 Eh
 * total energy  :  -178.2711930 Eh     change       -0.1894992E-05 Eh
 * total energy  :  -178.2711947 Eh     change       -0.1737150E-05 Eh
 * total energy  :  -178.2711947 Eh     change       -0.5399130E-08 Eh
   *** GEOMETRY OPTIMIZATION CONVERGED AFTER 94 ITERATIONS ***

 final structure:
================
110
 xtb: 6.7.1 (edcfbbe)
N            2.10830124486535       10.17117976842874        2.93896334566101
C            1.54183225354201        9.22082636163798        2.64229542845756
C            0.80737315421805        8.06368196508578        2.28003057988987
N            1.46770821584863        6.95962657694001        1.97475231803677
C            0.76849570155648        5.87814858075868        1.63475444851674
C            1.46958507942404        4.66970962424034        1.29958371358297
C            2.86792024081111        4.62406138004788        1.37218569338291
C            3.55356933408705        3.47342150881999        1.07750813836284
C            2.84714605816911        2.33292102792768        0.67258411273454
N            3.51426600370279        1.14761050165854        0.37535629328394
C            3.12797870456212       -0.11859320436391        0.78567785348540
C            2.10347303555474       -0.50757547997922        1.63681005476222
C            1.96234115119671       -1.85285104265049        1.91180709162335
C            2.81479913427094       -2.81908281228029        1.36420561428917
C            2.62135809338277       -4.24288184430112        1.67897615436372
C            2.31991095377664       -4.65267713002818        2.97574357598780
C            2.16352251811503       -5.99382362760834        3.27179894502803
C            2.29716075218250       -6.94745688045266        2.27579480862798
C            2.58584949919522       -6.55055551371235        0.98047685450526
C            2.74904240260338       -5.21018903903466        0.68466681742338
C            3.85947889990960       -2.42071034684335        0.53915064752209
C            4.02469971994299       -1.07409510891877        0.25845058099628
C            4.99708621586380       -0.34396396218271       -0.50980955273681
C            6.09231499621698       -0.73422861064726       -1.26329377658002
C            6.84036758334527        0.23272600472427       -1.92309642713436
C            8.01755076505926       -0.14882452277975       -2.71774874012114
C            7.98977561965990       -1.27806487567042       -3.53283929146683
C            9.09677022615805       -1.63490274876918       -4.27982092998325
C           10.25167676159509       -0.87304547168941       -4.22167616404422
C           10.29164377282517        0.25012110096618       -3.41265750329913
C            9.18392045938011        0.61116925540203       -2.66876588451452
C            6.45848213909660        1.57778128290695       -1.83836296015854
C            5.36651521135938        1.98656003066745       -1.09954332932678
C            4.64803921535769        1.02091129186649       -0.41030442644083
C            1.46400563590217        2.37699412708421        0.57875882040894
C            0.74391890663659        3.52500037636042        0.90691981039946
C           -0.70943144421158        3.55904959406339        0.88235314098870
C           -1.46983449113840        2.44282331141081        0.53865051570281
C           -2.85610556040977        2.45938519973885        0.59154857212917
N           -3.55804922225019        1.29360527601666        0.30021313893615
C           -4.66826635072374        1.17851487750368       -0.51990836633462
C           -5.34541363770186        2.14770236910294       -1.24488592335217
C           -6.41637602168254        1.74830071302892       -2.01908637808946
C           -6.81717904749228        0.40882637331186       -2.10334584837854
C           -7.96527612708895        0.03485043140686       -2.94288371454314
C           -9.12092732312537        0.81238527276528       -2.95532179344399
C          -10.20008310822871        0.45751702315098       -3.74297649214015
C          -10.14154558071687       -0.67686672524022       -4.53504029315688
C           -8.99689073110521       -1.45623283635757       -4.53225148962680
C           -7.91866961180081       -1.10553078803221       -3.74161303573869
C           -6.11250657921279       -0.56200845924446       -1.40263064053797
C           -5.03895140055575       -0.18136816435049       -0.61421509926686
C           -4.10702405794567       -0.92005408882050        0.19514712209625
C           -3.97124253874868       -2.26671418786638        0.49314481461065
C           -2.94373647887050       -2.67440042327931        1.33435468036619
C           -2.75237483903588       -4.09818531703969        1.64859371881201
C           -1.47540600482356       -4.65458812401882        1.66937666800056
C           -1.29706288961319       -5.99426688362014        1.95974985333267
C           -2.38961288206725       -6.79680162099034        2.24216645105169
C           -3.66349079217886       -6.25365211750854        2.22669687837535
C           -3.84442184034103       -4.91613081553635        1.92874414586482
C           -2.09179818299621       -1.71671209327796        1.89775010168187
C           -2.21614189592474       -0.37054813524748        1.62205475982680
C           -3.20965821880974        0.02517368503940        0.73780630729979
C           -3.52376948648827        3.63581682891561        0.95673285714319
C           -2.79627120397405        4.75735687576343        1.26396641574500
C           -1.39548914300510        4.73806558565241        1.24412271620327
C           -0.65164533138088        5.91286782035694        1.60464463761201
N           -1.31086278185660        7.02853775055307        1.91308842578868
C           -0.61080902593581        8.09914417411167        2.24726033083327
C           -1.30219073529310        9.29279076025204        2.57427529802226
N           -1.83316234810391       10.27134747311476        2.84369892351378
H            3.38838096052733        5.51501412978681        1.68668127821512
H            4.62657287487270        3.43071878533651        1.17920774316097
H            1.44159094991195        0.21361569836269        2.09194602669841
H            1.16174289275661       -2.17291022022189        2.56174280467192
H            2.23243683635350       -3.91620848573329        3.76138372293212
H            1.93653138050235       -6.29745211180785        4.28344135031958
H            2.17448654782597       -7.99535520607901        2.50780189339281
H            2.68248775014246       -7.28916649560919        0.19790063377249
H            2.96063350277775       -4.90486592750257       -0.32996952911250
H            4.55307634642605       -3.14785571555064        0.14509284303186
H            6.36969870576075       -1.77575792124979       -1.32094452504719
H            7.08579817036188       -1.86650666452509       -3.59615848736408
H            9.05828016598733       -2.50991255769605       -4.91249174698631
H           11.11668771423349       -1.15323371303759       -4.80437508485982
H           11.19122113905888        0.84616169012271       -3.35990954365269
H            9.22735120242949        1.47889261254778       -2.02640454675935
H            7.02300452670962        2.31461151977582       -2.39006447588476
H            5.07854688859157        3.02654468912423       -1.07965497518316
H            0.95838485764556        1.49358454107023        0.22596318834049
H           -0.99379020396841        1.53443162342425        0.20918833730042
H           -5.04069783632899        3.18291685413813       -1.22643446904260
H           -6.94708342508926        2.48771973487543       -2.60013343586262
H           -9.17941909499773        1.68930388537714       -2.32678603724488
H          -11.09196345159767        1.06728869253219       -3.73789087793223
H          -10.98412085879408       -0.95216912932399       -5.15195434713514
H           -8.94362899990153       -2.34012307273209       -5.15137689842113
H           -7.02173814658910       -1.70780322513759       -3.75743891545360
H           -6.40514259107117       -1.59943918059635       -1.45856243593846
H           -4.64515890248640       -2.99073721551977        0.06116732128899
H           -0.61770379135158       -4.04083942385442        1.43340301451062
H           -0.30088790223894       -6.41076750445983        1.96402872431892
H           -2.24885600598811       -7.84244273120581        2.47291133435795
H           -4.51912950071851       -6.87463615694101        2.44960064821172
H           -4.83861699513370       -4.49284073752264        1.93320189260555
H           -1.33122253442428       -2.04376433017566        2.59046256068898
H           -1.56754924947560        0.34717074436727        2.10145290572208
H           -4.60043220386460        3.64337100185207        1.02123638558717
H           -3.28597946334518        5.67451036534006        1.55142660794076

          :  Hamiltonian                  GFN2-xTB          :
         :: gradient norm              0.000099698686 Eh/a0 ::
         :: HOMO-LUMO gap              1.324108259464 eV    ::
         :: SCC energy              -181.709999368395 Eh    ::
         :: -> dispersion             -0.165485969204 Eh    ::
         :: repulsion energy           3.438804672082 Eh    ::

    * Orbital Energies and Occupations

         #    Occupation            Energy/Eh            Energy/eV
      -------------------------------------------------------------
         1        2.0000           -0.7116112             -19.3639
       ...           ...                  ...                  ...
       154        2.0000           -0.4093335             -11.1385
       155        2.0000           -0.4069009             -11.0723
       156        2.0000           -0.4065271             -11.0622
       157        2.0000           -0.4058966             -11.0450
       158        2.0000           -0.4058216             -11.0430
       159        2.0000           -0.4045197             -11.0075
       160        2.0000           -0.3993406             -10.8666
       161        2.0000           -0.3977544             -10.8234
       162        2.0000           -0.3873270             -10.5397
       163        2.0000           -0.3862370             -10.5100
       164        2.0000           -0.3827326             -10.4147
       165        2.0000           -0.3720187             -10.1231
       166        2.0000           -0.3699296             -10.0663 (HOMO)
       167                         -0.3212695              -8.7422 (LUMO)
       168                         -0.3158563              -8.5949
       169                         -0.2778711              -7.5613
       170                         -0.2699706              -7.3463
       171                         -0.2573495              -7.0028
       172                         -0.2552732              -6.9463
       173                         -0.2520727              -6.8592
       174                         -0.2505175              -6.8169
       175                         -0.2462987              -6.7021
       176                         -0.2391201              -6.5068
       177                         -0.2315208              -6.3000
       ...                                ...                  ...
       326                          1.1649015              31.6986
      -------------------------------------------------------------
                  HL-Gap            0.0486601 Eh            1.3241 eV

     #   Z          covCN         q      C6AA      α(0)
     1   7 N        0.911    -0.192    25.175     7.257
     2   6 C        1.909     0.112    28.335     8.597
     3   6 C        2.953     0.100    25.780     8.328
     4   7 N        1.854    -0.219    26.612     7.646
     5   6 C        2.964     0.087    26.066     8.374
     6   6 C        2.988    -0.005    28.141     8.702
     7   6 C        2.921    -0.024    28.612     8.772
     8   6 C        2.918    -0.041    29.023     8.834
     9   6 C        2.910     0.071    26.402     8.426
    10   7 N        2.802    -0.039    21.985     6.964
    11   6 C        3.070     0.044    26.949     8.512
    12   6 C        2.909    -0.051    29.259     8.870
    13   6 C        2.929    -0.036    28.906     8.817
    14   6 C        2.977     0.002    27.988     8.678
    15   6 C        2.977     0.011    27.769     8.644
    16   6 C        2.925    -0.033    28.824     8.804
    17   6 C        2.918    -0.028    28.704     8.786
    18   6 C        2.920    -0.030    28.758     8.794
    19   6 C        2.918    -0.029    28.725     8.789
    20   6 C        2.925    -0.034    28.837     8.806
    21   6 C        2.918    -0.037    28.913     8.818
    22   6 C        3.064    -0.015    28.313     8.725
    23   6 C        3.064    -0.015    28.325     8.727
    24   6 C        2.918    -0.037    28.913     8.818
    25   6 C        2.977     0.002    27.968     8.675
    26   6 C        2.977     0.010    27.783     8.646
    27   6 C        2.925    -0.034    28.853     8.809
    28   6 C        2.919    -0.029    28.736     8.791
    29   6 C        2.920    -0.031    28.774     8.796
    30   6 C        2.918    -0.029    28.734     8.790
    31   6 C        2.925    -0.034    28.853     8.809
    32   6 C        2.929    -0.037    28.910     8.818
    33   6 C        2.908    -0.051    29.258     8.869
    34   6 C        3.069     0.045    26.930     8.509
    35   6 C        2.927    -0.050    29.250     8.869
    36   6 C        2.977     0.010    27.790     8.647
    37   6 C        2.977     0.010    27.793     8.648
    38   6 C        2.928    -0.050    29.253     8.870
    39   6 C        2.911     0.072    26.399     8.425
    40   7 N        2.802    -0.038    21.982     6.963
    41   6 C        3.068     0.045    26.933     8.510
    42   6 C        2.908    -0.051    29.259     8.870
    43   6 C        2.929    -0.037    28.912     8.818
    44   6 C        2.977     0.002    27.970     8.675
    45   6 C        2.977     0.010    27.783     8.646
    46   6 C        2.925    -0.034    28.854     8.809
    47   6 C        2.919    -0.029    28.736     8.791
    48   6 C        2.920    -0.031    28.775     8.797
    49   6 C        2.918    -0.029    28.736     8.791
    50   6 C        2.925    -0.034    28.854     8.809
    51   6 C        2.918    -0.037    28.914     8.818
    52   6 C        3.065    -0.015    28.320     8.726
    53   6 C        3.063    -0.015    28.316     8.726
    54   6 C        2.918    -0.037    28.913     8.818
    55   6 C        2.977     0.002    27.968     8.675
    56   6 C        2.978     0.010    27.787     8.647
    57   6 C        2.925    -0.034    28.838     8.807
    58   6 C        2.918    -0.031    28.762     8.795
    59   6 C        2.920    -0.031    28.769     8.796
    60   6 C        2.918    -0.030    28.743     8.792
    61   6 C        2.925    -0.035    28.862     8.810
    62   6 C        2.929    -0.036    28.902     8.816
    63   6 C        2.909    -0.051    29.258     8.869
    64   6 C        3.071     0.043    26.958     8.513
    65   6 C        2.918    -0.041    29.023     8.834
    66   6 C        2.921    -0.024    28.611     8.772
    67   6 C        2.988    -0.005    28.145     8.702
    68   6 C        2.964     0.087    26.066     8.374
    69   7 N        1.853    -0.219    26.612     7.646
    70   6 C        2.953     0.100    25.777     8.327
    71   6 C        1.909     0.112    28.334     8.597
    72   7 N        0.911    -0.192    25.172     7.256
    73   1 H        0.926     0.068     2.111     2.272
    74   1 H        0.926     0.052     2.290     2.366
    75   1 H        0.926     0.027     2.624     2.533
    76   1 H        0.926     0.033     2.537     2.491
    77   1 H        0.926     0.030     2.593     2.518
    78   1 H        0.926     0.030     2.590     2.517
    79   1 H        0.926     0.029     2.603     2.523
    80   1 H        0.926     0.030     2.593     2.518
    81   1 H        0.926     0.030     2.584     2.514
    82   1 H        0.926     0.037     2.494     2.470
    83   1 H        0.926     0.037     2.492     2.469
    84   1 H        0.926     0.030     2.585     2.514
    85   1 H        0.926     0.030     2.592     2.518
    86   1 H        0.926     0.030     2.590     2.516
    87   1 H        0.926     0.030     2.587     2.515
    88   1 H        0.926     0.030     2.580     2.512
    89   1 H        0.926     0.036     2.501     2.473
    90   1 H        0.926     0.031     2.573     2.509
    91   1 H        0.926     0.050     2.314     2.379
    92   1 H        0.926     0.051     2.312     2.378
    93   1 H        0.926     0.031     2.575     2.509
    94   1 H        0.926     0.036     2.502     2.474
    95   1 H        0.926     0.030     2.580     2.512
    96   1 H        0.926     0.030     2.589     2.516
    97   1 H        0.926     0.030     2.591     2.517
    98   1 H        0.926     0.030     2.593     2.518
    99   1 H        0.926     0.030     2.583     2.513
   100   1 H        0.926     0.037     2.492     2.468
   101   1 H        0.926     0.037     2.490     2.468
   102   1 H        0.926     0.028     2.613     2.528
   103   1 H        0.926     0.031     2.572     2.508
   104   1 H        0.926     0.029     2.599     2.521
   105   1 H        0.926     0.030     2.590     2.517
   106   1 H        0.926     0.030     2.580     2.512
   107   1 H        0.926     0.034     2.536     2.490
   108   1 H        0.926     0.027     2.627     2.534
   109   1 H        0.926     0.052     2.290     2.366
   110   1 H        0.926     0.068     2.111     2.272

molecular dipole:
                 x           y           z       tot (Debye)
 q only:       -0.021      -2.800      -0.849
   full:       -0.007      -3.365      -1.019       8.938

 projected vibrational frequencies (cm⁻¹)
eigval :       -0.00    -0.00    -0.00    -0.00     0.00     0.00
eigval :        7.70     8.63    14.90    17.59    18.78    25.09
eigval :       28.26    37.37    38.43    39.71    40.70    44.16
eigval :       49.52    53.52    57.46    59.34    65.21    68.97
eigval :       72.80    86.25    87.24    93.57    96.99   100.98
eigval :      114.58   115.47   131.49   133.76   135.30   142.76
eigval :      149.20   162.48   165.02   176.04   182.96   190.25
eigval :      220.05   221.84   240.22   243.40   246.56   251.67
eigval :      262.56   273.24   274.32   285.32   297.87   305.34
eigval :      311.78   323.24   327.29   342.81   367.77   370.41
eigval :      371.54   372.48   372.73   373.79   382.73   386.46
eigval :      393.51   395.55   398.18   398.34   400.93   412.79
eigval :      427.71   430.09   434.54   439.44   448.81   462.14
eigval :      464.90   475.25   478.97   482.02   484.71   493.63
eigval :      502.83   504.94   524.57   535.52   539.35   553.13
eigval :      554.58   560.84   568.03   572.42   574.01   586.37
eigval :      587.10   591.27   592.11   594.26   596.46   603.89
eigval :      614.25   622.82   624.52   626.37   628.41   637.83
eigval :      645.31   655.13   659.75   667.53   670.42   673.18
eigval :      673.98   685.19   686.84   687.21   691.56   706.00
eigval :      708.34   708.53   715.68   718.02   738.13   740.63
eigval :      743.03   755.24   758.54   758.95   759.57   760.13
eigval :      762.05   815.83   818.91   822.86   824.31   827.15
eigval :      842.07   843.29   860.50   866.96   868.27   872.18
eigval :      874.61   874.73   875.63   879.35   881.69   882.18
eigval :      883.40   892.32   902.08   902.18   903.32   904.50
eigval :      906.45   907.99   909.30   912.18   913.02   913.52
eigval :      924.88   930.44   930.58   930.64   931.70   932.39
eigval :      932.43   933.36   934.00   935.10   936.76   966.73
eigval :      972.23   972.35   981.77   982.61  1011.75  1027.39
eigval :     1029.25  1046.03  1066.58  1073.42  1073.72  1073.93
eigval :     1075.02  1086.43  1086.83  1087.09  1087.58  1121.77
eigval :     1122.26  1122.28  1122.45  1129.82  1138.32  1146.06
eigval :     1146.86  1157.54  1161.29  1164.16  1182.23  1182.51
eigval :     1182.61  1183.02  1186.02  1191.93  1201.05  1201.64
eigval :     1202.42  1203.06  1217.74  1219.17  1220.73  1221.90
eigval :     1228.24  1230.22  1245.52  1245.72  1257.49  1272.98
eigval :     1278.18  1279.58  1281.64  1281.95  1282.07  1282.23
eigval :     1286.28  1303.73  1304.70  1305.95  1306.29  1318.69
eigval :     1319.12  1320.01  1320.40  1328.88  1336.90  1343.95
eigval :     1346.12  1348.85  1353.78  1358.38  1360.25  1364.51
eigval :     1397.82  1404.55  1407.96  1411.36  1417.70  1426.20
eigval :     1430.65  1430.81  1430.96  1433.27  1433.61  1445.02
eigval :     1459.48  1460.51  1462.83  1466.87  1469.20  1474.19
eigval :     1490.52  1493.61  1494.01  1494.63  1497.06  1497.46
eigval :     1536.41  1546.37  1565.11  1565.53  1574.21  1574.76
eigval :     1578.83  1582.40  1583.08  1584.01  1584.35  1588.40
eigval :     1594.09  1594.37  1598.28  1598.45  1603.08  1603.33
eigval :     1613.41  1613.71  2368.00  2369.54  3070.79  3071.00
eigval :     3071.08  3071.35  3072.00  3072.06  3073.06  3074.67
eigval :     3078.91  3079.66  3080.08  3080.11  3080.16  3081.57
eigval :     3083.18  3083.23  3084.94  3084.96  3085.16  3087.02
eigval :     3090.42  3090.70  3091.85  3092.48  3092.57  3092.76
eigval :     3093.86  3094.03  3095.49  3095.66  3095.94  3097.87
eigval :     3101.79  3101.99  3112.41  3112.49  3113.81  3125.11

   temp. (K)  partition function   enthalpy   heat capacity  entropy
                                   cal/mol     cal/K/mol   cal/K/mol   J/K/mol
 298.15  VIB  0.775E+27            33496.406    207.812    210.609
         ROT  0.345E+09              888.752      2.981     42.047
         INT  0.267E+36            34385.159    210.793    252.656
         TR   0.268E+29             1481.254      4.968     46.296
         TOT                       35866.4127   215.7610   298.9516  1250.8136

       T/K    H(0)-H(T)+PV         H(T)/Eh          T*S/Eh         G(T)/Eh
   ------------------------------------------------------------------------
    298.15    0.571568E-01    0.880363E+00    0.142042E+00    0.738321E+00
   ------------------------------------------------------------------------

         :::::::::::::::::::::::::::::::::::::::::::::::::::::
         ::                  THERMODYNAMIC                  ::
         :::::::::::::::::::::::::::::::::::::::::::::::::::::
         :: total free energy        -177.532873347302 Eh   ::
         ::.................................................::
         :: total energy             -178.271194696309 Eh   ::
         :: zero point energy           0.823206143257 Eh   ::
         :: G(RRHO) w/o ZPVE           -0.084884794250 Eh   ::
         :: G(RRHO) contrib.            0.738321349007 Eh   ::
         :::::::::::::::::::::::::::::::::::::::::::::::::::::

           -------------------------------------------------
          | TOTAL ENERGY             -178.271194696309 Eh   |
          | TOTAL ENTHALPY           -177.390831786256 Eh   |
          | TOTAL FREE ENERGY        -177.532873347302 Eh   |
          | GRADIENT NORM               0.000099776152 Eh/α |
          | HOMO-LUMO GAP               1.324109110938 eV   |
           -------------------------------------------------

 * finished run on 2025/07/16 at 12:15:44.208
