   * xtb version 6.7.1 (edcfbbe) compiled by 'albert@albert-system' on 2024-07-22

   ID    Z sym.   atoms
    1    6 C      1-5, 7, 8, 10-24, 26-38
    2    7 N      6, 9, 25
    3    1 H      39-61

          program call               : xtb data2507/gas/CPPyC/CPPyC_gas_T1_crest.xyz --gfn 2 --spinpol --tblite --uhf 2 --ohess vtight --parallel 40 --molden --ceasefiles --namespace data2507/gas/CPPyC/CPPyC_gas_T1_finalOpt
 * total energy  :   -95.4135363 Eh     change       -0.3837799E-07 Eh
 * total energy  :   -95.4135865 Eh     change       -0.5024372E-04 Eh
 * total energy  :   -95.4136051 Eh     change       -0.1860552E-04 Eh
 * total energy  :   -95.4136077 Eh     change       -0.2591525E-05 Eh
 * total energy  :   -95.4136101 Eh     change       -0.2363827E-05 Eh
 * total energy  :   -95.4136122 Eh     change       -0.2152413E-05 Eh
 * total energy  :   -95.4136143 Eh     change       -0.2063692E-05 Eh
 * total energy  :   -95.4136154 Eh     change       -0.1149538E-05 Eh
 * total energy  :   -95.4136162 Eh     change       -0.8129907E-06 Eh
 * total energy  :   -95.4136170 Eh     change       -0.7453041E-06 Eh
 * total energy  :   -95.4136241 Eh     change       -0.1899522E-06 Eh
 * total energy  :   -95.4136244 Eh     change       -0.2366255E-06 Eh
 * total energy  :   -95.4136245 Eh     change       -0.1650692E-06 Eh
 * total energy  :   -95.4136245 Eh     change        0.1114078E-07 Eh
 * total energy  :   -95.4136247 Eh     change       -0.1907192E-06 Eh
 * total energy  :   -95.4136249 Eh     change       -0.1802179E-06 Eh
 * total energy  :   -95.4136249 Eh     change        0.5134794E-08 Eh
 * total energy  :   -95.4136250 Eh     change       -0.1392106E-06 Eh
 * total energy  :   -95.4136251 Eh     change       -0.8513265E-07 Eh
   *** GEOMETRY OPTIMIZATION CONVERGED AFTER 35 ITERATIONS ***

 final structure:
================
61
 xtb: 6.7.1 (edcfbbe)
C            2.86626270567322       -3.53039251833871        1.37912207861011
C            1.50847365934008       -3.58889805701931        1.20249644864059
C            0.77941338559512       -2.49410677163153        0.64973565311065
C           -0.63149193008399       -2.49529022970720        0.57100408894550
C           -1.41851588166055       -3.69928880200589        0.70218842417965
N           -2.70810075457760       -3.70256011273908        0.71473981378991
C           -3.43806151035373       -2.60923278355081        0.55516424368603
C           -2.77728194262168       -1.38106792910677        0.21418786342815
N           -3.54671273421319       -0.24614411302686       -0.00772575928034
C           -3.34714148438018        0.99562685440148        0.56644001332345
C           -2.38550382371478        1.40494895661244        1.47959133852605
C           -2.41627132003572        2.72097052247131        1.90308710223009
C           -3.38292090751460        3.61009318956065        1.44159911051501
C           -4.36240593699650        3.19992114133589        0.55527980526638
C           -4.35256260614744        1.88440836603290        0.11765114636062
C           -5.20418558756656        1.12799950012205       -0.76187645481593
C           -6.33244231804728        1.44286069647123       -1.50335364201050
C           -6.91128186731609        0.45392403036189       -2.27836709940945
C           -6.37034078659720       -0.82811360336803       -2.32911268704815
C           -5.24288898958023       -1.16437710066481       -1.60233289555677
C           -4.67277156769974       -0.18214649674917       -0.80497653744444
C           -1.41193950987978       -1.34309687789694        0.23438751229785
C            1.54960279184539       -1.37474857080686        0.23871195023784
C            2.90959580388395       -1.32435538310179        0.43234577145708
N            3.61771353326617       -0.16732996047143        0.06567034857013
C            4.77964091517325       -0.12695232236964       -0.67269579856668
C            5.48668983891351       -1.16488309421304       -1.26573331678298
C            6.62419676421825       -0.84387131577945       -1.98149608214657
C            7.04861028162182        0.47571510101322       -2.11969716577701
C            6.33387620401312        1.51595077110983       -1.55576993372975
C            5.18950898398775        1.21878830364534       -0.83053838140255
C            4.21436835963475        2.02269295688394       -0.14593673173414
C            4.07397132256466        3.38766266455286        0.05759671535459
C            2.99597355323050        3.83985767888985        0.79522838376281
C            2.07761325016345        2.94725981495461        1.34318009699967
C            2.19838340447323        1.58357879452190        1.15742932272804
C            3.26210137995072        1.12369024014269        0.39135550848498
C            3.59643674079046       -2.40174195787078        1.01524036752731
H            3.38448975978565       -4.37058041319887        1.81903509676491
H            0.97764586255243       -4.47534426282531        1.51153138818224
H           -0.93964021831673       -4.66690246962537        0.69683447453304
H           -4.49041068011920       -2.65052594659183        0.77529726927241
H           -1.64843110942158        0.71725034036207        1.86418617319444
H           -1.67806183619536        3.06364705931197        2.61254304989104
H           -3.37227078927956        4.63108382903481        1.79244821929436
H           -5.12242599892992        3.88543136934213        0.21259792231248
H           -6.74558377010182        2.43969601420034       -1.47700496753425
H           -7.79163382473774        0.67862574859763       -2.86159255669889
H           -6.83738968717050       -1.57453499618855       -2.95385427874561
H           -4.81739672384780       -2.15446557946709       -1.65887394243496
H           -0.92019432325417       -0.41902229492354       -0.02560047990582
H            1.07326725695548       -0.54284355978823       -0.25541860766797
H            5.15280256234364       -2.18753339915017       -1.18022844483174
H            7.19423303170153       -1.63326677208694       -2.44864259830723
H            7.94402842537421        0.68568042159771       -2.68552672857621
H            6.65405990733617        2.53964005615549       -1.67867972629636
H            4.79535527103676        4.07906215838790       -0.35112001578442
H            2.86568756056177        4.89905748947377        0.95999677536245
H            1.25426312345027        3.32962392454310        1.92816822850589
H            1.49584011429199        0.89756762020438        1.60538744951171
H            4.65612987743282       -2.33661911253124        1.20095642083044

 projected vibrational frequencies (cm⁻¹)
eigval :       -0.00     0.00     0.00     0.00     0.00     0.00
eigval :       10.96    15.02    18.65    35.40    41.78    59.04
eigval :       75.19    86.27   102.48   105.03   114.70   138.22
eigval :      145.12   165.51   181.24   198.17   213.33   216.83
eigval :      241.72   260.65   271.21   271.54   291.48   297.21
eigval :      343.69   354.04   369.88   390.90   393.87   400.57
eigval :      414.64   421.68   422.56   435.90   436.89   452.64
eigval :      477.22   512.07   516.45   517.97   537.18   537.86
eigval :      538.50   544.69   561.45   573.13   584.21   587.09
eigval :      600.74   602.53   612.27   622.33   636.78   645.63
eigval :      665.77   674.97   675.52   708.41   709.51   715.87
eigval :      743.72   753.67   755.92   765.21   769.08   771.31
eigval :      777.87   779.57   796.24   804.56   817.42   832.02
eigval :      872.09   872.79   873.26   876.69   893.40   896.31
eigval :      902.22   902.88   903.79   904.78   905.61   908.02
eigval :      919.01   921.38   921.86   922.64   941.60   953.78
eigval :     1000.25  1010.33  1013.26  1038.78  1068.25  1068.70
eigval :     1070.72  1072.55  1080.28  1105.40  1114.45  1129.07
eigval :     1144.24  1147.24  1156.33  1170.90  1173.85  1178.08
eigval :     1179.66  1180.88  1184.67  1187.40  1224.06  1230.29
eigval :     1232.74  1234.10  1236.57  1271.70  1278.89  1282.14
eigval :     1290.72  1294.89  1296.66  1304.69  1331.16  1344.91
eigval :     1349.89  1352.53  1353.93  1360.17  1362.27  1368.09
eigval :     1398.18  1415.89  1417.66  1421.41  1435.32  1452.07
eigval :     1464.27  1467.75  1481.96  1482.28  1485.53  1507.43
eigval :     1528.90  1566.34  1568.99  1570.59  1582.55  1583.63
eigval :     1584.55  1586.00  1600.13  1607.55  3070.52  3072.42
eigval :     3077.82  3078.48  3081.58  3082.24  3083.19  3084.76
eigval :     3086.59  3087.45  3088.45  3091.05  3092.92  3094.22
eigval :     3095.86  3096.45  3097.72  3098.88  3099.70  3100.25
eigval :     3101.01  3106.78  3111.07

   temp. (K)  partition function   enthalpy   heat capacity  entropy
                                   cal/mol     cal/K/mol   cal/K/mol   J/K/mol
 298.15  VIB  0.121E+13            16544.810    110.113    100.413
         ROT  0.411E+08              888.752      2.981     37.821
         INT  0.496E+20            17433.563    113.094    138.234
         TR   0.104E+29             1481.254      4.968     44.408
         TOT                       18914.8164   118.0618   182.6417   764.1727

       T/K    H(0)-H(T)+PV         H(T)/Eh          T*S/Eh         G(T)/Eh
   ------------------------------------------------------------------------
    298.15    0.301427E-01    0.493009E+00    0.867789E-01    0.406230E+00
   ------------------------------------------------------------------------

         :::::::::::::::::::::::::::::::::::::::::::::::::::::
         ::                  THERMODYNAMIC                  ::
         :::::::::::::::::::::::::::::::::::::::::::::::::::::
         :: total free energy         -95.007395025809 Eh   ::
         ::.................................................::
         :: total energy              -95.413625166431 Eh   ::
         :: zero point energy           0.462866406682 Eh   ::
         :: G(RRHO) w/o ZPVE           -0.056636266060 Eh   ::
         :: G(RRHO) contrib.            0.406230140622 Eh   ::
         :::::::::::::::::::::::::::::::::::::::::::::::::::::

           -------------------------------------------------
          | TOTAL ENERGY              -95.413625166431 Eh   |
          | TOTAL ENTHALPY            -94.920616081094 Eh   |
          | TOTAL FREE ENERGY         -95.007395025809 Eh   |
          | GRADIENT NORM               0.000105288847 Eh/α |
           -------------------------------------------------

 * finished run on 2025/09/07 at 22:19:14.793
