   * xtb version 6.7.1 (edcfbbe) compiled by 'albert@albert-system' on 2024-07-22

   ID    Z sym.   atoms
    1    6 C      1-5, 7, 8, 10-24, 26-38
    2    7 N      6, 9, 25
    3    1 H      39-61

          program call               : xtb data2507/gas/CPPyC/CPPyC.xyz --gfn 2 --ohess vtight --parallel 40 --molden --ceasefiles --namespace data2507/gas/CPPyC/CPPyC_gas_S0_preOpt
          :  Hamiltonian                  GFN2-xTB          :
 * total energy  :   -95.4908583 Eh     change       -0.1648061E-08 Eh
 * total energy  :   -95.5041765 Eh     change       -0.1331816E-01 Eh
 * total energy  :   -95.5068435 Eh     change       -0.2667033E-02 Eh
 * total energy  :   -95.5072724 Eh     change       -0.4289308E-03 Eh
 * total energy  :   -95.5076312 Eh     change       -0.3587275E-03 Eh
 * total energy  :   -95.5077619 Eh     change       -0.1306908E-03 Eh
 * total energy  :   -95.5078722 Eh     change       -0.1103632E-03 Eh
 * total energy  :   -95.5079416 Eh     change       -0.6937610E-04 Eh
 * total energy  :   -95.5079954 Eh     change       -0.5379158E-04 Eh
 * total energy  :   -95.5080390 Eh     change       -0.4359688E-04 Eh
 * total energy  :   -95.5084620 Eh     change       -0.6003536E-06 Eh
 * total energy  :   -95.5084626 Eh     change       -0.6455374E-06 Eh
 * total energy  :   -95.5084632 Eh     change       -0.6264928E-06 Eh
 * total energy  :   -95.5084638 Eh     change       -0.5507361E-06 Eh
 * total energy  :   -95.5084642 Eh     change       -0.4459429E-06 Eh
 * total energy  :   -95.5084646 Eh     change       -0.3414564E-06 Eh
 * total energy  :   -95.5084648 Eh     change       -0.2469132E-06 Eh
 * total energy  :   -95.5084650 Eh     change       -0.1936142E-06 Eh
 * total energy  :   -95.5084650 Eh     change       -0.1624088E-08 Eh
   *** GEOMETRY OPTIMIZATION CONVERGED AFTER 68 ITERATIONS ***

 final structure:
================
61
 xtb: 6.7.1 (edcfbbe)
C            1.53639944724915        0.78071531586686        2.88505532960647
C            0.41603322424814        0.26114622864180        2.26276259916656
C            0.52930992254984       -0.36811406916497        1.02488583124817
C           -0.65190059017307       -0.92882083357861        0.35653968320640
C           -0.59895613295339       -2.15997635854965       -0.30042780527342
N           -1.63291158807541       -2.70573465847907       -0.91099613797177
C           -2.78267412527895       -2.06146094407096       -0.91740775606291
C           -2.96424904358893       -0.82702794774197       -0.28933423339093
N           -4.19785412129826       -0.17499744840806       -0.32096066576004
C           -5.42474914680670       -0.74830513545376       -0.03876630143511
C           -5.72295149970271       -2.03414681542331        0.38757058733833
C           -7.04818607497235       -2.34069825107126        0.63201817620187
C           -8.05665299266143       -1.39396253572341        0.46795169655831
C           -7.76242723202124       -0.10571418773210        0.06856916941490
C           -6.43781139087185        0.22618593047653       -0.18316221934323
C           -5.78420773452686        1.44174246104467       -0.58176713130071
C           -6.24486820451581        2.71451940510164       -0.89111643532058
C           -5.32944157469688        3.67469362596242       -1.27317778903633
C           -3.97280574674735        3.37353414319638       -1.36477343364740
C           -3.49058011667301        2.11417376900031       -1.06199792489182
C           -4.40257441403155        1.15273404147185       -0.65178590363468
C           -1.87247380242897       -0.26154846610646        0.36284784547213
C            1.77846095429474       -0.45775997539578        0.42114366591392
C            2.90418498185841        0.06425651368958        1.04768485186544
N            4.15607012236276       -0.03600684150395        0.42945798085012
C            4.70344598735096       -1.18847889188067       -0.10115855113819
C            4.20584869785628       -2.48351943283332       -0.10454381509358
C            4.97871494544841       -3.47038420414205       -0.68589888942797
C            6.22267016640067       -3.18548939277117       -1.24442529696284
C            6.73458516534663       -1.90369207432281       -1.22070046018994
C            5.97587201403508       -0.89478457215109       -0.64207719135669
C            6.19678727975883        0.50825541979281       -0.42844462156886
C            7.23673108137444        1.37068558576990       -0.74919482870496
C            7.11846896636025        2.70402162541855       -0.41163234987597
C            5.97492650508995        3.18317281869204        0.22331686763305
C            4.92712461567193        2.34466095786227        0.55262037934460
C            5.05111514427683        0.99900569224791        0.23863104452250
C            2.78015593137009        0.68326751967963        2.28900159265525
H            1.44206601227115        1.25724807750243        3.84951028713124
H           -0.54686342549202        0.32246571420915        2.74721209477604
H            0.31340323337019       -2.74035222674044       -0.32150915826871
H           -3.59200795212574       -2.53514948577317       -1.45603819886683
H           -4.94840403300056       -2.77162381382212        0.53461770683670
H           -7.30648718311563       -3.33635626821860        0.96083369140890
H           -9.08046290263548       -1.67396408972663        0.66610597364742
H           -8.54125644805438        0.63338960893801       -0.04294424699659
H           -7.29882373753143        2.94154678942558       -0.83783950846970
H           -5.66615218966306        4.67146772734137       -1.51590935393827
H           -3.28134446054351        4.13939942917102       -1.68369370965037
H           -2.43895302046357        1.88917594390296       -1.15874095241689
H           -1.97515112425185        0.69049422808388        0.86302303236794
H            1.87486726554906       -0.90516233752053       -0.55680109356542
H            3.25259984472227       -2.71906389934954        0.34448909574681
H            4.61136520604944       -4.48583974370701       -0.70424957074510
H            6.79505371574471       -3.98408565135639       -1.69228813502859
H            7.70606813639453       -1.68557538004306       -1.63792378865628
H            8.11544200078682        1.00191113764928       -1.25642952931895
H            7.91672190380878        3.39114611850762       -0.64969689526247
H            5.90362274351767        4.23451745731687        0.46039289629657
H            4.03743101317215        2.73007308188967        1.02764671518697
H            3.65863578060214        1.06818956490946        2.78392308819621

          :  Hamiltonian                  GFN2-xTB          :
         :: gradient norm              0.000032337587 Eh/a0 ::
         :: HOMO-LUMO gap              2.594283259533 eV    ::
         :: SCC energy               -97.302523191970 Eh    ::
         :: -> dispersion             -0.082468002703 Eh    ::
         :: repulsion energy           1.794058187989 Eh    ::

    * Orbital Energies and Occupations

         #    Occupation            Energy/Eh            Energy/eV
      -------------------------------------------------------------
         1        2.0000           -0.6821822             -18.5631
       ...           ...                  ...                  ...
        77        2.0000           -0.4221847             -11.4882
        78        2.0000           -0.4209377             -11.4543
        79        2.0000           -0.4199193             -11.4266
        80        2.0000           -0.4184336             -11.3862
        81        2.0000           -0.4166632             -11.3380
        82        2.0000           -0.4085561             -11.1174
        83        2.0000           -0.4068647             -11.0714
        84        2.0000           -0.4051503             -11.0247
        85        2.0000           -0.3818683             -10.3912
        86        2.0000           -0.3811032             -10.3703
        87        2.0000           -0.3787082             -10.3052
        88        2.0000           -0.3650516              -9.9336
        89        2.0000           -0.3634510              -9.8900 (HOMO)
        90                         -0.2681128              -7.2957 (LUMO)
        91                         -0.2569138              -6.9910
        92                         -0.2471353              -6.7249
        93                         -0.2463573              -6.7037
        94                         -0.2388716              -6.5000
        95                         -0.2250912              -6.1250
        96                         -0.2226663              -6.0591
        97                         -0.2219285              -6.0390
        98                         -0.1953731              -5.3164
        99                         -0.1898567              -5.1663
       100                         -0.1890862              -5.1453
       ...                                ...                  ...
       175                          0.7459024              20.2970
      -------------------------------------------------------------
                  HL-Gap            0.0953381 Eh            2.5943 eV

     #   Z          covCN         q      C6AA      α(0)
     1   6 C        2.918    -0.028    28.701     8.785
     2   6 C        2.924    -0.038    28.941     8.822
     3   6 C        2.976     0.010    27.788     8.647
     4   6 C        2.972     0.002    27.978     8.676
     5   6 C        2.915     0.049    26.896     8.504
     6   7 N        1.835    -0.215    26.509     7.630
     7   6 C        2.912     0.044    27.023     8.524
     8   6 C        2.905     0.056    26.745     8.480
     9   7 N        2.801    -0.047    22.143     6.989
    10   6 C        3.072     0.046    26.891     8.503
    11   6 C        2.910    -0.051    29.262     8.870
    12   6 C        2.924    -0.032    28.802     8.801
    13   6 C        2.920    -0.040    28.986     8.829
    14   6 C        2.913    -0.032    28.805     8.801
    15   6 C        3.067    -0.016    28.333     8.728
    16   6 C        3.067    -0.016    28.334     8.728
    17   6 C        2.913    -0.032    28.803     8.800
    18   6 C        2.920    -0.040    28.990     8.829
    19   6 C        2.924    -0.033    28.820     8.804
    20   6 C        2.910    -0.051    29.256     8.869
    21   6 C        3.071     0.047    26.875     8.500
    22   6 C        2.935    -0.033    28.826     8.805
    23   6 C        2.928    -0.048    29.196     8.861
    24   6 C        2.911     0.067    26.503     8.442
    25   7 N        2.803    -0.045    22.104     6.983
    26   6 C        3.075     0.046    26.880     8.501
    27   6 C        2.910    -0.050    29.252     8.869
    28   6 C        2.924    -0.033    28.821     8.804
    29   6 C        2.920    -0.040    29.003     8.831
    30   6 C        2.913    -0.033    28.810     8.802
    31   6 C        3.068    -0.017    28.353     8.731
    32   6 C        3.068    -0.017    28.352     8.731
    33   6 C        2.913    -0.033    28.812     8.802
    34   6 C        2.920    -0.041    29.009     8.832
    35   6 C        2.924    -0.033    28.831     8.805
    36   6 C        2.910    -0.051    29.270     8.871
    37   6 C        3.074     0.047    26.879     8.500
    38   6 C        2.922    -0.043    29.080     8.843
    39   1 H        0.926     0.039     2.463     2.454
    40   1 H        0.926     0.037     2.494     2.469
    41   1 H        0.925     0.043     2.411     2.428
    42   1 H        0.925     0.048     2.344     2.394
    43   1 H        0.926     0.029     2.604     2.524
    44   1 H        0.926     0.032     2.562     2.503
    45   1 H        0.926     0.030     2.584     2.514
    46   1 H        0.926     0.033     2.550     2.497
    47   1 H        0.926     0.033     2.548     2.496
    48   1 H        0.926     0.030     2.589     2.516
    49   1 H        0.926     0.030     2.582     2.513
    50   1 H        0.926     0.026     2.647     2.544
    51   1 H        0.926     0.045     2.386     2.416
    52   1 H        0.926     0.044     2.396     2.420
    53   1 H        0.926     0.025     2.654     2.548
    54   1 H        0.926     0.030     2.582     2.513
    55   1 H        0.926     0.029     2.602     2.523
    56   1 H        0.926     0.031     2.566     2.505
    57   1 H        0.926     0.031     2.566     2.505
    58   1 H        0.926     0.028     2.609     2.526
    59   1 H        0.926     0.029     2.599     2.521
    60   1 H        0.926     0.026     2.638     2.540
    61   1 H        0.926     0.044     2.399     2.422

molecular dipole:
                 x           y           z       tot (Debye)
 q only:       -0.063       0.275       0.436
   full:       -0.096       0.576       0.646       2.213

 projected vibrational frequencies (cm⁻¹)
eigval :       -0.00     0.00     0.00     0.00     0.00     0.00
eigval :       11.52    16.28    21.10    36.30    38.87    62.79
eigval :       73.32    90.69    92.32   107.45   112.06   136.01
eigval :      143.43   149.02   190.85   208.33   223.48   231.18
eigval :      244.81   270.90   271.72   277.72   285.02   320.89
eigval :      329.78   345.70   385.31   390.70   396.49   398.27
eigval :      422.73   423.24   435.25   437.39   444.56   455.72
eigval :      514.10   518.02   520.09   529.22   540.90   541.14
eigval :      541.62   569.44   585.72   590.58   595.91   609.21
eigval :      614.91   621.93   647.14   671.79   672.98   675.87
eigval :      684.70   694.67   707.66   708.88   727.14   755.26
eigval :      757.70   769.46   769.92   780.86   781.32   798.08
eigval :      816.09   836.51   868.89   870.29   872.24   874.92
eigval :      892.16   895.73   897.45   900.12   901.16   902.25
eigval :      905.80   906.33   910.03   916.59   922.08   923.60
eigval :      923.98   926.78   930.26   932.64   994.47  1003.23
eigval :     1011.74  1012.11  1015.32  1070.44  1071.38  1074.03
eigval :     1074.98  1098.54  1118.29  1120.19  1130.33  1152.49
eigval :     1152.96  1170.86  1175.52  1178.06  1181.14  1181.34
eigval :     1184.67  1186.34  1195.46  1229.96  1236.33  1236.54
eigval :     1243.75  1247.43  1259.17  1279.97  1282.41  1299.58
eigval :     1300.92  1303.37  1305.20  1319.15  1349.64  1357.63
eigval :     1358.48  1361.02  1362.01  1369.91  1405.95  1415.34
eigval :     1424.55  1428.07  1428.59  1451.15  1463.02  1476.22
eigval :     1476.28  1483.14  1487.71  1488.21  1547.36  1565.68
eigval :     1572.38  1575.57  1576.63  1588.71  1589.55  1589.86
eigval :     1599.40  1599.82  1614.33  1615.34  3066.13  3069.72
eigval :     3076.28  3076.89  3077.13  3078.78  3080.90  3081.25
eigval :     3082.05  3082.27  3083.52  3084.01  3087.98  3089.25
eigval :     3089.66  3091.26  3092.62  3094.22  3095.65  3096.91
eigval :     3097.30  3098.43  3100.87

   temp. (K)  partition function   enthalpy   heat capacity  entropy
                                   cal/mol     cal/K/mol   cal/K/mol   J/K/mol
 298.15  VIB  0.737E+12            16186.654    107.394     98.472
         ROT  0.468E+08              888.752      2.981     38.080
         INT  0.345E+20            17075.406    110.375    136.552
         TR   0.104E+29             1481.254      4.968     44.408
         TOT                       18556.6600   115.3432   180.9597   757.1355

       T/K    H(0)-H(T)+PV         H(T)/Eh          T*S/Eh         G(T)/Eh
   ------------------------------------------------------------------------
    298.15    0.295719E-01    0.497497E+00    0.859798E-01    0.411518E+00
   ------------------------------------------------------------------------

         :::::::::::::::::::::::::::::::::::::::::::::::::::::
         ::                  THERMODYNAMIC                  ::
         :::::::::::::::::::::::::::::::::::::::::::::::::::::
         :: total free energy         -95.096947337604 Eh   ::
         ::.................................................::
         :: total energy              -95.508465003980 Eh   ::
         :: zero point energy           0.467925554891 Eh   ::
         :: G(RRHO) w/o ZPVE           -0.056407888515 Eh   ::
         :: G(RRHO) contrib.            0.411517666376 Eh   ::
         :::::::::::::::::::::::::::::::::::::::::::::::::::::

           -------------------------------------------------
          | TOTAL ENERGY              -95.508465003980 Eh   |
          | TOTAL ENTHALPY            -95.010967529073 Eh   |
          | TOTAL FREE ENERGY         -95.096947337604 Eh   |
          | GRADIENT NORM               0.000032336991 Eh/α |
          | HOMO-LUMO GAP               2.594283076100 eV   |
           -------------------------------------------------

 * finished run on 2025/09/07 at 22:12:32.442
