   * xtb version 6.7.1 (edcfbbe) compiled by 'albert@albert-system' on 2024-07-22

   ID    Z sym.   atoms
    1    6 C      1-5, 7, 8, 10-24, 26-38
    2    7 N      6, 9, 25
    3    1 H      39-61

          program call               : xtb data2507/gas/CPPyC/CPPyC_gas_S0_finalOpt.xtbopt.xyz --gfn 2 --spinpol --tblite --uhf 2 --ohess vtight --parallel 40 --molden --ceasefiles --namespace data2507/gas/CPPyC/CPPyC_gas_T1_preOpt
 * total energy  :   -95.4040749 Eh     change        0.1577024E-07 Eh
 * total energy  :   -95.4066481 Eh     change       -0.2573135E-02 Eh
 * total energy  :   -95.4081641 Eh     change       -0.1516025E-02 Eh
 * total energy  :   -95.4086778 Eh     change       -0.5137197E-03 Eh
 * total energy  :   -95.4094842 Eh     change       -0.8064103E-03 Eh
 * total energy  :   -95.4100150 Eh     change       -0.5307258E-03 Eh
 * total energy  :   -95.4105213 Eh     change       -0.5063041E-03 Eh
 * total energy  :   -95.4108154 Eh     change       -0.2941705E-03 Eh
 * total energy  :   -95.4109665 Eh     change       -0.1511036E-03 Eh
 * total energy  :   -95.4110234 Eh     change       -0.5683240E-04 Eh
 * total energy  :   -95.4129083 Eh     change       -0.2872229E-05 Eh
 * total energy  :   -95.4129107 Eh     change       -0.2470865E-05 Eh
 * total energy  :   -95.4129128 Eh     change       -0.2105237E-05 Eh
 * total energy  :   -95.4129146 Eh     change       -0.1730757E-05 Eh
 * total energy  :   -95.4129161 Eh     change       -0.1518962E-05 Eh
 * total energy  :   -95.4129173 Eh     change       -0.1229566E-05 Eh
 * total energy  :   -95.4129185 Eh     change       -0.1171977E-05 Eh
 * total energy  :   -95.4129196 Eh     change       -0.1144546E-05 Eh
 * total energy  :   -95.4129197 Eh     change       -0.6861413E-08 Eh
   *** GEOMETRY OPTIMIZATION CONVERGED AFTER 94 ITERATIONS ***

 final structure:
================
61
 xtb: 6.7.1 (edcfbbe)
C            2.79872112162109       -3.80186273293596        0.74562055789311
C            1.44240935909924       -3.79391929033430        0.54522776296582
C            0.72628328248899       -2.58375282894217        0.30620954117318
C           -0.66447621353532       -2.55257847174794        0.04571643073756
C           -1.46996321940023       -3.74537574803008       -0.06109772069306
N           -2.72111708358970       -3.72550381998959       -0.37332362804989
C           -3.40747387752897       -2.60765772333078       -0.55183441635051
C           -2.77805421219083       -1.35521562550511       -0.24230999229913
N           -3.53347790727501       -0.19222606026963       -0.31204731843320
C           -4.79944786657960       -0.02838215089569        0.21697891910275
C           -5.55764814306424       -0.90933143332077        0.97518329127673
C           -6.80222277510526       -0.48386855573204        1.40244687424853
C           -7.27810635037718        0.78902872846841        1.09927221789975
C           -6.51534023719018        1.67990495476978        0.36566563168646
C           -5.26626880200585        1.27382364051705       -0.07793375811981
C           -4.22346480989883        1.91981904143833       -0.83019915952276
C           -4.09670172689274        3.17960259376338       -1.39491081618107
C           -2.93842973703055        3.48028211010547       -2.08854962274176
C           -1.92630143910436        2.53604248914351       -2.23723594781780
C           -2.03044883207682        1.27357870128969       -1.68228117206128
C           -3.17637687301879        0.97666574448538       -0.95814044231096
C           -1.43762738953763       -1.34616702546881        0.02360054740563
C            1.50220866865504       -1.39615652264172        0.28450693884126
C            2.86359098883617       -1.41954098697298        0.48030012161032
N            3.58860084276796       -0.21750318410606        0.42969461416704
C            4.72811563598346        0.00089253493296       -0.31267719396535
C            5.39327017811357       -0.85406676090723       -1.18179203533070
C            6.51958793798143       -0.37371825194421       -1.82228605178582
C            6.97253576105188        0.92779052891174       -1.61882775604159
C            6.29915767376747        1.79258769623641       -0.77610810752518
C            5.16679705948258        1.33291279133216       -0.12037624678827
C            4.23131245102788        1.94044370197520        0.78639750422902
C            4.13234498220951        3.20236204961121        1.35357411942093
C            3.08853975877727        3.45699233153953        2.22337000629159
C            2.16279996717855        2.46611339906362        2.54210769224055
C            2.24146231393129        1.20128088015956        1.99118437781694
C            3.27224187813260        0.94641964556043        1.09608654759788
C            3.53982763517942       -2.62432058426211        0.72772251481569
H            3.30396018012489       -4.73799334729757        0.93613590155015
H            0.90833466737291       -4.72887059273578        0.59468463584749
H           -1.05881810736952       -4.71374372403354        0.17926243900280
H           -4.38297513463856       -2.66278322765541       -1.00248033125792
H           -5.18676694276627       -1.89053371409636        1.22857045415176
H           -7.41536211265002       -1.15169677925933        1.98866999725883
H           -8.25478014009926        1.08514830319922        1.45153296549192
H           -6.88037968713119        2.67123260966383        0.14415216715028
H           -4.88865673928205        3.90627318526092       -1.29611789083710
H           -2.81879643804581        4.45693737775903       -2.53285962843063
H           -1.04200252697869        2.79239906486872       -2.80111708447883
H           -1.25213807745711        0.54032329033518       -1.82647609990959
H           -0.97474906975146       -0.40982502233971        0.29386984254123
H            1.03978921414389       -0.45099010069820        0.04772210144383
H            5.03583275644368       -1.85675934647365       -1.35943953244231
H            7.05761229185552       -1.01994516203706       -2.49991052529406
H            7.85769408603146        1.26561784590466       -2.13689288573625
H            6.64246812399861        2.80591818381938       -0.63178457238985
H            4.85955922020618        3.96567430615259        1.12120199028110
H            2.99119640102748        4.43425534463955        2.67225008911865
H            1.36761698881572        2.69042250283581        3.23765147583244
H            1.53187182094619        0.43291888220288        2.25801310399250
H            4.59811506725824       -2.62336387105024        0.93215026332567

 projected vibrational frequencies (cm⁻¹)
eigval :       -0.00    -0.00     0.00     0.00     0.00     0.00
eigval :        6.25    15.09    19.16    34.01    42.24    60.19
eigval :       67.34    86.21   102.20   104.33   114.97   137.28
eigval :      145.44   168.64   175.06   191.00   209.59   226.72
eigval :      232.50   264.98   270.98   273.26   293.76   298.08
eigval :      345.37   350.75   373.44   389.56   393.87   399.00
eigval :      418.79   421.88   423.26   435.53   436.95   453.38
eigval :      478.30   514.06   516.29   519.74   536.83   537.63
eigval :      538.31   549.21   554.28   579.68   584.92   586.95
eigval :      596.84   606.86   611.99   621.13   636.21   645.64
eigval :      666.14   674.89   675.57   708.39   709.49   716.06
eigval :      741.48   753.05   755.96   760.26   769.80   770.38
eigval :      778.68   779.07   794.09   807.41   813.60   833.98
eigval :      872.57   873.42   874.98   876.05   893.74   896.67
eigval :      902.90   903.79   904.33   905.35   905.90   907.65
eigval :      921.42   921.97   922.08   922.62   942.52   956.15
eigval :     1000.28  1010.86  1012.98  1039.66  1068.24  1068.35
eigval :     1070.82  1071.96  1085.52  1106.79  1115.13  1131.05
eigval :     1144.99  1146.44  1157.14  1171.79  1174.48  1179.25
eigval :     1179.93  1182.42  1184.91  1188.96  1227.61  1230.17
eigval :     1232.57  1234.10  1236.92  1277.31  1281.44  1286.40
eigval :     1291.59  1295.48  1297.13  1303.29  1330.99  1345.30
eigval :     1350.32  1353.34  1354.49  1360.39  1362.26  1372.65
eigval :     1400.14  1415.96  1417.72  1421.96  1436.23  1451.72
eigval :     1464.50  1467.63  1480.46  1482.24  1485.30  1506.22
eigval :     1531.12  1567.92  1569.44  1571.30  1582.77  1583.77
eigval :     1584.88  1585.77  1600.31  1607.38  3071.92  3075.81
eigval :     3078.17  3078.86  3082.01  3082.52  3083.21  3083.75
eigval :     3085.11  3087.22  3088.65  3090.99  3092.91  3094.11
eigval :     3095.88  3096.61  3097.88  3099.97  3100.43  3101.81
eigval :     3103.27  3106.84  3109.78

   temp. (K)  partition function   enthalpy   heat capacity  entropy
                                   cal/mol     cal/K/mol   cal/K/mol   J/K/mol
 298.15  VIB  0.231E+13            16560.379    109.999    101.111
         ROT  0.409E+08              888.752      2.981     37.810
         INT  0.943E+20            17449.131    112.980    138.921
         TR   0.104E+29             1481.254      4.968     44.408
         TOT                       18930.3848   117.9482   183.3294   767.0503

       T/K    H(0)-H(T)+PV         H(T)/Eh          T*S/Eh         G(T)/Eh
   ------------------------------------------------------------------------
    298.15    0.301675E-01    0.493152E+00    0.871057E-01    0.406046E+00
   ------------------------------------------------------------------------

         :::::::::::::::::::::::::::::::::::::::::::::::::::::
         ::                  THERMODYNAMIC                  ::
         :::::::::::::::::::::::::::::::::::::::::::::::::::::
         :: total free energy         -95.006873815943 Eh   ::
         ::.................................................::
         :: total energy              -95.412919655043 Eh   ::
         :: zero point energy           0.462984069301 Eh   ::
         :: G(RRHO) w/o ZPVE           -0.056938230201 Eh   ::
         :: G(RRHO) contrib.            0.406045839100 Eh   ::
         :::::::::::::::::::::::::::::::::::::::::::::::::::::

           -------------------------------------------------
          | TOTAL ENERGY              -95.412919655043 Eh   |
          | TOTAL ENTHALPY            -94.919768097274 Eh   |
          | TOTAL FREE ENERGY         -95.006873815943 Eh   |
          | GRADIENT NORM               0.000056307241 Eh/α |
           -------------------------------------------------

 * finished run on 2025/09/07 at 22:15:08.831
