   * xtb version 6.7.1 (edcfbbe) compiled by 'albert@albert-system' on 2024-07-22

   ID    Z sym.   atoms
    1    6 C      1-5, 7, 8, 10-24, 26-38
    2    7 N      6, 9, 25
    3    1 H      39-61

          program call               : xtb data2507/gas/CPPyC/CPPyC_gas_S0_crest.xyz --gfn 2 --ohess vtight --parallel 40 --molden --ceasefiles --namespace data2507/gas/CPPyC/CPPyC_gas_S0_finalOpt
          :  Hamiltonian                  GFN2-xTB          :
 * total energy  :   -95.5096817 Eh     change       -0.1312785E-08 Eh
 * total energy  :   -95.5096828 Eh     change       -0.1116235E-05 Eh
 * total energy  :   -95.5096827 Eh     change        0.5234133E-07 Eh
 * total energy  :   -95.5096844 Eh     change       -0.1705053E-05 Eh
 * total energy  :   -95.5096875 Eh     change       -0.3028010E-05 Eh
 * total energy  :   -95.5096895 Eh     change       -0.2066571E-05 Eh
 * total energy  :   -95.5096908 Eh     change       -0.1266492E-05 Eh
 * total energy  :   -95.5096915 Eh     change       -0.6797024E-06 Eh
 * total energy  :   -95.5096921 Eh     change       -0.6609270E-06 Eh
 * total energy  :   -95.5096930 Eh     change       -0.8605357E-06 Eh
 * total energy  :   -95.5096954 Eh     change       -0.4125628E-06 Eh
 * total energy  :   -95.5096957 Eh     change       -0.3616217E-06 Eh
 * total energy  :   -95.5096960 Eh     change       -0.2924581E-06 Eh
 * total energy  :   -95.5096963 Eh     change       -0.2779180E-06 Eh
 * total energy  :   -95.5096966 Eh     change       -0.3257183E-06 Eh
 * total energy  :   -95.5096970 Eh     change       -0.3544458E-06 Eh
 * total energy  :   -95.5096972 Eh     change       -0.2842311E-06 Eh
 * total energy  :   -95.5096975 Eh     change       -0.2188594E-06 Eh
 * total energy  :   -95.5096975 Eh     change       -0.2597460E-08 Eh
   *** GEOMETRY OPTIMIZATION CONVERGED AFTER 22 ITERATIONS ***

 final structure:
================
61
 xtb: 6.7.1 (edcfbbe)
C            2.52500685871128       -3.61771952203500        1.43672953194702
C            1.23186570843386       -3.66513207369948        0.94640016625312
C            0.70381241783609       -2.56583226714970        0.27630251623579
C           -0.67833864396800       -2.54172107317956       -0.21804029103201
C           -1.25866321851865       -3.60659651467178       -0.90700661857931
N           -2.48770905467914       -3.57356453931822       -1.38692976815654
C           -3.21349574272046       -2.48489986482452       -1.22356727343472
C           -2.74997170287670       -1.35969448417849       -0.53677530904151
N           -3.53144489540110       -0.21747587520817       -0.36737676221202
C           -4.85409138801093       -0.18076307728652        0.03939030092903
C           -5.71020364645103       -1.22115779355437        0.36905180914069
C           -6.99056535097903       -0.89875404732785        0.77795501750095
C           -7.41442370639635        0.42463884359301        0.86982554319003
C           -6.55741762462357        1.46513452984483        0.57241720696963
C           -5.26596101766216        1.16576759846237        0.15983358328195
C           -4.13258470051530        1.97624817535639       -0.19019292470592
C           -3.92873955198933        3.34788085233332       -0.26252743930513
C           -2.68906954071005        3.81364180947028       -0.65301956860537
C           -1.66882742179140        2.92985140157348       -0.99541676805327
C           -1.85182094205467        1.56129928625252       -0.93707469336280
C           -3.08236547168283        1.08570138449143       -0.50668036161333
C           -1.45945857071585       -1.40889630197612       -0.01927590581264
C            1.50019204491408       -1.44449171885274        0.07772110255289
C            2.79530810194593       -1.39190767134955        0.57808025546238
N            3.55811579734615       -0.23533525786934        0.38433397063943
C            4.86161531300901       -0.18152929871297       -0.07348997021081
C            5.71756876516130       -1.21119444738509       -0.43689969284902
C            6.97867253834681       -0.87375739277681       -0.89022053650802
C            7.38440799752896        0.45467307416669       -0.99311582589884
C            6.52704783188043        1.48469685772814       -0.66243645689130
C            5.25448844631389        1.17017881091757       -0.20468869170376
C            4.12547434322774        1.96565997473500        0.18935788647700
C            3.90551071357816        3.33444137915260        0.27055436756809
C            2.67505998988527        3.78291558242678        0.70722095059296
C            1.68020452605792        2.88489350139353        1.08656407278186
C            1.87958612526599        1.51927093776639        1.02036312157513
C            3.09981394934505        1.06026400524156        0.54397682223288
C            3.30465152032612       -2.48656278418206        1.27239885592616
H            2.92634867320803       -4.46662704624630        1.97011126542037
H            0.62087232817166       -4.54103796835638        1.10339966479435
H           -0.70356954489696       -4.51518307647889       -1.09685631692868
H           -4.19892575680904       -2.50131103453267       -1.66821618892716
H           -5.39001702477530       -2.25079443499904        0.32349108561896
H           -7.67613128527081       -1.69237089680936        1.03553084193457
H           -8.42421612643573        0.63479322767065        1.18914615832314
H           -6.87757955273976        2.49215299436179        0.66194138241131
H           -4.72774024032800        4.03164590408269       -0.01897889602123
H           -2.50709243068791        4.87654385640238       -0.70763726003249
H           -0.71341960116656        3.31895894747611       -1.31531016878961
H           -1.05971676785723        0.89210849334514       -1.23680656153001
H           -1.08012487590962       -0.58020602241550        0.56021515712155
H            1.12275551459307       -0.61226567466724       -0.49711805020229
H            5.40897907513977       -2.24417631851880       -0.38422238677965
H            7.66359800296219       -1.65879092499734       -1.17502504981015
H            8.37983469869141        0.67677966933078       -1.34770520718736
H            6.83275502063373        2.51541343867429       -0.76043151860200
H            4.68511242092350        4.02946911576586       -0.00252646134805
H            2.48049287538799        4.84324859389281        0.76932096818784
H            0.73233395086474        3.26177652534659        1.44200682557582
H            1.10998179377275        0.83670241393135        1.34745948987277
H            4.29766987545980       -2.44097729792739        1.69221249191671

          :  Hamiltonian                  GFN2-xTB          :
         :: gradient norm              0.000035610990 Eh/a0 ::
         :: HOMO-LUMO gap              2.676827797346 eV    ::
         :: SCC energy               -97.304009067064 Eh    ::
         :: -> dispersion             -0.085214629174 Eh    ::
         :: repulsion energy           1.794311597045 Eh    ::

    * Orbital Energies and Occupations

         #    Occupation            Energy/Eh            Energy/eV
      -------------------------------------------------------------
         1        2.0000           -0.6817698             -18.5519
       ...           ...                  ...                  ...
        77        2.0000           -0.4219761             -11.4826
        78        2.0000           -0.4207454             -11.4491
        79        2.0000           -0.4202695             -11.4361
        80        2.0000           -0.4196230             -11.4185
        81        2.0000           -0.4166395             -11.3373
        82        2.0000           -0.4084851             -11.1154
        83        2.0000           -0.4073007             -11.0832
        84        2.0000           -0.4061294             -11.0513
        85        2.0000           -0.3818258             -10.3900
        86        2.0000           -0.3798658             -10.3367
        87        2.0000           -0.3796046             -10.3296
        88        2.0000           -0.3650887              -9.9346
        89        2.0000           -0.3643197              -9.9136 (HOMO)
        90                         -0.2659480              -7.2368 (LUMO)
        91                         -0.2560841              -6.9684
        92                         -0.2480603              -6.7501
        93                         -0.2460571              -6.6956
        94                         -0.2385752              -6.4920
        95                         -0.2251475              -6.1266
        96                         -0.2232800              -6.0758
        97                         -0.2232154              -6.0740
        98                         -0.1952602              -5.3133
        99                         -0.1897481              -5.1633
       100                         -0.1890232              -5.1436
       ...                                ...                  ...
       175                          0.7443291              20.2542
      -------------------------------------------------------------
                  HL-Gap            0.0983716 Eh            2.6768 eV

     #   Z          covCN         q      C6AA      α(0)
     1   6 C        2.919    -0.028    28.692     8.784
     2   6 C        2.922    -0.038    28.956     8.824
     3   6 C        2.978     0.010    27.786     8.647
     4   6 C        2.973     0.002    27.981     8.677
     5   6 C        2.911     0.049    26.910     8.506
     6   7 N        1.835    -0.215    26.521     7.632
     7   6 C        2.910     0.042    27.048     8.528
     8   6 C        2.904     0.056    26.751     8.481
     9   7 N        2.801    -0.046    22.120     6.985
    10   6 C        3.069     0.046    26.890     8.503
    11   6 C        2.910    -0.051    29.265     8.871
    12   6 C        2.924    -0.032    28.802     8.801
    13   6 C        2.920    -0.039    28.982     8.828
    14   6 C        2.913    -0.032    28.804     8.801
    15   6 C        3.068    -0.015    28.327     8.727
    16   6 C        3.066    -0.015    28.329     8.728
    17   6 C        2.913    -0.032    28.804     8.801
    18   6 C        2.920    -0.039    28.979     8.828
    19   6 C        2.923    -0.032    28.805     8.801
    20   6 C        2.910    -0.049    29.220     8.864
    21   6 C        3.070     0.047    26.880     8.501
    22   6 C        2.939    -0.034    28.835     8.807
    23   6 C        2.932    -0.048    29.194     8.861
    24   6 C        2.911     0.066    26.523     8.445
    25   7 N        2.802    -0.044    22.086     6.980
    26   6 C        3.072     0.047    26.877     8.500
    27   6 C        2.910    -0.051    29.268     8.871
    28   6 C        2.924    -0.033    28.826     8.805
    29   6 C        2.920    -0.040    29.002     8.831
    30   6 C        2.913    -0.033    28.811     8.802
    31   6 C        3.068    -0.016    28.351     8.731
    32   6 C        3.067    -0.016    28.349     8.731
    33   6 C        2.913    -0.033    28.812     8.802
    34   6 C        2.920    -0.040    29.000     8.831
    35   6 C        2.923    -0.033    28.820     8.804
    36   6 C        2.910    -0.050    29.236     8.866
    37   6 C        3.073     0.046    26.886     8.502
    38   6 C        2.921    -0.045    29.109     8.848
    39   1 H        0.926     0.039     2.462     2.454
    40   1 H        0.926     0.038     2.480     2.463
    41   1 H        0.925     0.043     2.410     2.428
    42   1 H        0.925     0.048     2.347     2.396
    43   1 H        0.926     0.030     2.589     2.516
    44   1 H        0.926     0.032     2.561     2.502
    45   1 H        0.926     0.030     2.583     2.513
    46   1 H        0.926     0.033     2.548     2.496
    47   1 H        0.926     0.033     2.548     2.496
    48   1 H        0.926     0.030     2.586     2.515
    49   1 H        0.926     0.032     2.561     2.502
    50   1 H        0.926     0.024     2.667     2.554
    51   1 H        0.926     0.043     2.406     2.426
    52   1 H        0.926     0.041     2.438     2.442
    53   1 H        0.926     0.028     2.615     2.529
    54   1 H        0.926     0.030     2.592     2.518
    55   1 H        0.926     0.029     2.605     2.524
    56   1 H        0.926     0.032     2.565     2.504
    57   1 H        0.926     0.032     2.564     2.504
    58   1 H        0.926     0.029     2.605     2.524
    59   1 H        0.926     0.030     2.587     2.515
    60   1 H        0.926     0.024     2.675     2.558
    61   1 H        0.926     0.043     2.404     2.424

molecular dipole:
                 x           y           z       tot (Debye)
 q only:        0.183      -0.202       0.278
   full:        0.329      -0.048       0.463       1.449

 projected vibrational frequencies (cm⁻¹)
eigval :       -0.00    -0.00    -0.00    -0.00     0.00     0.00
eigval :       13.70    17.70    20.05    37.53    39.98    61.80
eigval :       76.45    81.51    98.39   107.43   112.81   142.54
eigval :      146.55   174.42   185.53   216.47   221.29   234.73
eigval :      239.03   269.64   272.38   278.36   299.55   301.18
eigval :      335.41   338.84   386.66   389.93   397.79   398.46
eigval :      423.14   423.58   436.79   438.66   448.90   464.11
eigval :      513.68   518.08   520.30   530.12   538.03   541.03
eigval :      541.59   572.16   586.18   591.18   594.79   610.66
eigval :      615.98   626.70   641.19   671.56   673.48   676.45
eigval :      683.97   695.29   707.91   709.24   727.80   755.26
eigval :      757.79   769.56   770.42   780.97   782.08   799.45
eigval :      815.20   836.07   868.19   869.81   871.91   875.22
eigval :      893.16   895.66   897.00   899.35   900.80   902.42
eigval :      905.91   907.20   909.63   918.75   922.20   923.73
eigval :      924.89   930.06   931.86   936.00   995.07  1002.84
eigval :     1011.36  1012.03  1015.63  1071.37  1072.25  1074.97
eigval :     1075.94  1104.07  1119.27  1122.56  1125.91  1153.25
eigval :     1153.51  1171.37  1173.64  1177.53  1180.64  1181.29
eigval :     1183.10  1187.78  1194.78  1231.80  1234.69  1235.89
eigval :     1243.47  1247.09  1260.44  1280.56  1282.75  1299.27
eigval :     1299.98  1301.81  1304.69  1321.22  1352.60  1356.35
eigval :     1358.16  1359.51  1360.90  1365.25  1410.33  1416.51
eigval :     1421.77  1427.54  1428.55  1452.07  1457.59  1475.12
eigval :     1475.93  1485.29  1487.37  1488.06  1547.30  1566.96
eigval :     1572.69  1575.76  1577.20  1588.06  1588.90  1589.76
eigval :     1599.07  1599.38  1613.87  1614.87  3066.74  3071.36
eigval :     3076.40  3077.40  3077.96  3079.22  3081.72  3082.53
eigval :     3082.73  3083.45  3084.83  3085.73  3088.74  3090.32
eigval :     3091.03  3092.83  3094.22  3095.05  3096.03  3097.35
eigval :     3097.62  3099.01  3102.40

   temp. (K)  partition function   enthalpy   heat capacity  entropy
                                   cal/mol     cal/K/mol   cal/K/mol   J/K/mol
 298.15  VIB  0.494E+12            16135.461    107.347     97.819
         ROT  0.384E+08              888.752      2.981     37.686
         INT  0.190E+20            17024.214    110.328    135.505
         TR   0.104E+29             1481.254      4.968     44.408
         TOT                       18505.4677   115.2960   179.9131   752.7563

       T/K    H(0)-H(T)+PV         H(T)/Eh          T*S/Eh         G(T)/Eh
   ------------------------------------------------------------------------
    298.15    0.294903E-01    0.497609E+00    0.854825E-01    0.412127E+00
   ------------------------------------------------------------------------

         :::::::::::::::::::::::::::::::::::::::::::::::::::::
         ::                  THERMODYNAMIC                  ::
         :::::::::::::::::::::::::::::::::::::::::::::::::::::
         :: total free energy         -95.097570955267 Eh   ::
         ::.................................................::
         :: total energy              -95.509697470019 Eh   ::
         :: zero point energy           0.468118685482 Eh   ::
         :: G(RRHO) w/o ZPVE           -0.055992170730 Eh   ::
         :: G(RRHO) contrib.            0.412126514752 Eh   ::
         :::::::::::::::::::::::::::::::::::::::::::::::::::::

           -------------------------------------------------
          | TOTAL ENERGY              -95.509697470019 Eh   |
          | TOTAL ENTHALPY            -95.012088444553 Eh   |
          | TOTAL FREE ENERGY         -95.097570955267 Eh   |
          | GRADIENT NORM               0.000035607538 Eh/α |
          | HOMO-LUMO GAP               2.676827881470 eV   |
           -------------------------------------------------

 * finished run on 2025/09/07 at 22:14:58.966
