   * xtb version 6.7.1 (edcfbbe) compiled by 'albert@albert-system' on 2024-07-22

   ID    Z sym.   atoms
    1    8 O      1
    2    6 C      2-6, 8-37, 39-66
    3    7 N      7, 38
    4    1 H      67-104

          program call               : xtb data2507/gas/SPAC-FO/SPAC-FO_gas_S0_finalOpt.xtbopt.xyz --gfn 2 --spinpol --tblite --uhf 2 --ohess vtight --parallel 40 --molden --ceasefiles --namespace data2507/gas/SPAC-FO/SPAC-FO_gas_T1_preOpt
 * total energy  :  -164.2215501 Eh     change       -0.4283874E-07 Eh
 * total energy  :  -164.2256185 Eh     change       -0.4068372E-02 Eh
 * total energy  :  -164.2265632 Eh     change       -0.9446989E-03 Eh
 * total energy  :  -164.2266274 Eh     change       -0.6420328E-04 Eh
 * total energy  :  -164.2266830 Eh     change       -0.5557985E-04 Eh
 * total energy  :  -164.2267156 Eh     change       -0.3266062E-04 Eh
 * total energy  :  -164.2267472 Eh     change       -0.3158099E-04 Eh
 * total energy  :  -164.2267652 Eh     change       -0.1800440E-04 Eh
 * total energy  :  -164.2267822 Eh     change       -0.1694845E-04 Eh
 * total energy  :  -164.2267959 Eh     change       -0.1377273E-04 Eh
 * total energy  :  -164.2270777 Eh     change       -0.1977010E-05 Eh
 * total energy  :  -164.2270793 Eh     change       -0.1645850E-05 Eh
 * total energy  :  -164.2270814 Eh     change       -0.2051692E-05 Eh
 * total energy  :  -164.2270836 Eh     change       -0.2188259E-05 Eh
 * total energy  :  -164.2270860 Eh     change       -0.2413001E-05 Eh
 * total energy  :  -164.2270885 Eh     change       -0.2488066E-05 Eh
 * total energy  :  -164.2270912 Eh     change       -0.2756179E-05 Eh
 * total energy  :  -164.2270912 Eh     change        0.1149107E-07 Eh
 * total energy  :  -164.2270912 Eh     change       -0.8511279E-08 Eh
   *** GEOMETRY OPTIMIZATION CONVERGED AFTER 95 ITERATIONS ***

 final structure:
================
104
 xtb: 6.7.1 (edcfbbe)
O           -0.03577849995727        6.24099426063199        0.49993496227570
C           -0.03196566868285        5.00081347085814        0.36506170368793
C            1.12212495899181        4.12541333786574        0.28122531021793
C            2.47661160061099        4.43630532469171        0.34401053822717
C            3.39617570087283        3.41505351846711        0.25261608166484
C            2.97406341448667        2.08468313575583        0.09936082488289
N            3.96456693046800        1.06137046023750        0.02872281284405
C            4.71483639282465        0.93942379909883       -1.12428929647625
C            4.41631559795889        1.72771873302295       -2.24335889604251
C            5.16246645682420        1.62387977258095       -3.39680880716003
C            6.21878819006843        0.72802724656915       -3.46861591894221
C            6.50670467903299       -0.06970626211260       -2.37709473155008
C            5.76695110097259        0.01852040179518       -1.20752630172199
C            6.12417542662288       -0.87743722584029       -0.05090728459188
C            6.22181658671539       -2.32406539567949       -0.49783665276446
C            5.22623948657403       -3.12189351048298       -1.01569069515299
C            5.53964343653008       -4.42986506401390       -1.36159303898478
C            6.82479549071395       -4.92087213233340       -1.18979208536432
C            7.82924140770772       -4.12043552386135       -0.66913203837092
C            7.52306835318035       -2.81507285890245       -0.32219899610528
C            8.34631326290405       -1.75357761647496        0.23734528386739
C            9.68440550455920       -1.72791828455706        0.59360881605168
C           10.20950390924387       -0.55572591580439        1.11389827610115
C            9.41641946039832        0.56983487888781        1.27638584278028
C            8.07408648665887        0.55059689869197        0.92120308478721
C            7.54996452809792       -0.61251979493061        0.40361952770342
C            5.17826322638320       -0.73048517380359        1.11220389533509
C            5.34575316927771       -1.55317116649488        2.21596496785139
C            4.53905010813886       -1.42951188710912        3.33139993434449
C            3.55596984594643       -0.45173353920515        3.35325776800520
C            3.37315343697737        0.37544331475054        2.26676534433762
C            4.16825311975034        0.24077228891751        1.12111048055992
C            1.62853123895788        1.75695768109746        0.03213111625961
C            0.69112457079307        2.77191250887563        0.12970091023567
C           -0.74124139660240        2.76785617177358        0.12654977509174
C           -1.67245663447471        1.74755970162710        0.02557533611674
C           -3.02006312640489        2.06767620768022        0.08676714224924
N           -4.00276926127381        1.03694154519817        0.01321126265476
C           -4.74607723326313        0.90522781893317       -1.14311995564645
C           -4.45844839293104        1.70308254035124       -2.25829503168362
C           -5.19916587119091        1.59042861167743       -3.41440453356694
C           -6.23927337802287        0.67632720680068       -3.49285983503363
C           -6.51554270767070       -0.13119542693036       -2.40556834948186
C           -5.78092707358160       -0.03443196892073       -1.23341240669504
C           -6.11942050886151       -0.94910393586119       -0.08580661397874
C           -6.14045283108361       -2.39645599401044       -0.54198736101255
C           -5.09895157413131       -3.14318634188141       -1.04536479854571
C           -5.34390952481615       -4.46222898140909       -1.40412594280372
C           -6.60747434483366       -5.01410916918262       -1.25910172930083
C           -7.65793631347599       -4.26509882359329       -0.75297822379161
C           -7.42008401406284       -2.94900361639635       -0.39326505268162
C           -8.30245206876487       -1.93078711341903        0.15653170219517
C           -9.64649929729217       -1.97041970319210        0.48824144577389
C          -10.23568884574930       -0.82748673092848        1.00500063600022
C           -9.49966049792457        0.33315819760796        1.18790984138203
C           -8.15168926011720        0.37939846647502        0.85732837003351
C           -7.56380184364205       -0.75451604151840        0.34339056279789
C           -5.19977459954602       -0.76827790830261        1.09342249193179
C           -5.36902836437353       -1.58444889857775        2.20177426458059
C           -4.58147394164389       -1.43680225745706        3.32789768610272
C           -3.61557784227273       -0.44213079386148        3.35526393471738
C           -3.43129607502708        0.37883586574780        2.26435891294964
C           -4.20747886971742        0.22084309894536        1.10869678899820
C           -3.45055164547034        3.39556714669320        0.23802956352277
C           -2.53715549633756        4.42204091012109        0.33301004776893
C           -1.18063891417644        4.11884892242133        0.27603737623932
H            2.79351801166784        5.46059946086160        0.46542726381262
H            4.45542459846992        3.62141935778181        0.30135335618779
H            3.59030128438165        2.41989213075204       -2.19836022178861
H            4.91719297470827        2.24382658563828       -4.24576223335704
H            6.80796064292804        0.64786336143795       -4.36885957353414
H            7.32097922899654       -0.77795890400171       -2.42547108507277
H            4.22479980785975       -2.73949861395005       -1.15020982731473
H            4.77298810508394       -5.07195251587483       -1.76938315552032
H            7.04548956055328       -5.94160453157166       -1.46599485307943
H            8.82879900957350       -4.50717781647753       -0.53726107650292
H           10.30597226702010       -2.60221499355737        0.46957753053988
H           11.25107877620608       -0.51767839848813        1.39765156873782
H            9.84714297160940        1.47213309218331        1.68443463827865
H            7.45647780209015        1.42769815745182        1.04959559270753
H            6.12769095158489       -2.29822451735755        2.19521904944028
H            4.68270193903920       -2.08070076174983        4.17951819508267
H            2.92935086039024       -0.33051109917728        4.22389246418402
H            2.61351809559866        1.14027188882904        2.29881623348351
H            1.32795807265869        0.72558141116192       -0.08634219350720
H           -1.36563957542502        0.71773303880520       -0.09028695426179
H           -3.64512321563058        2.40976225375515       -2.20822007649999
H           -4.96232035507876        2.21782317635594       -4.26027679190238
H           -6.82417150250288        0.58911652937179       -4.39522820768348
H           -7.31599351639279       -0.85465502759534       -2.45955100889222
H           -4.11434947796561       -2.71325375401036       -1.15916024852262
H           -4.54046189908407       -5.06496535913230       -1.80100077920360
H           -6.77470831667083       -6.04229826795119       -1.54500056565156
H           -8.64041097908625       -4.69926035858668       -0.64196786537321
H          -10.22372873727028       -2.87224385827258        0.34810769518889
H          -11.28287182306342       -0.84028562358612        1.26972013169159
H           -9.97983485596850        1.21162343286355        1.59274842710479
H           -7.57857425870681        1.28378966024580        1.00161016874734
H           -6.13667626913593       -2.34406373465714        2.17562576976778
H           -4.72612311478020       -2.08321930886132        4.17948801161442
H           -3.00363885361474       -0.30290166113828        4.23361344287042
H           -2.68527191887881        1.15679981393899        2.30032681212976
H           -4.51115566093068        3.59578117314396        0.28269625577423
H           -2.86032643362735        5.44454390991017        0.45303977664366

 projected vibrational frequencies (cm⁻¹)
eigval :       -0.00    -0.00    -0.00    -0.00     0.00     0.00
eigval :        3.42     4.85     6.63     6.95    18.37    24.45
eigval :       35.31    39.54    43.36    44.23    47.73    50.39
eigval :       64.91    70.17    84.40    84.49    93.68    96.60
eigval :      104.95   112.28   117.37   131.83   133.07   137.65
eigval :      139.83   139.97   162.07   172.11   172.90   203.27
eigval :      235.35   236.36   238.12   240.58   244.43   245.45
eigval :      246.75   251.39   274.13   282.93   284.39   293.31
eigval :      293.36   331.68   353.44   359.21   375.06   386.83
eigval :      387.12   388.34   390.77   400.26   401.19   403.90
eigval :      407.36   413.70   415.83   420.58   425.34   426.45
eigval :      437.71   442.24   449.19   460.36   460.48   463.63
eigval :      472.19   475.09   502.08   502.58   507.05   507.11
eigval :      511.72   521.02   539.37   539.37   552.47   559.38
eigval :      560.28   561.71   587.13   587.26   593.85   597.06
eigval :      597.75   601.64   601.86   615.59   617.54   619.52
eigval :      629.70   639.29   660.80   671.49   676.75   676.94
eigval :      681.46   681.73   689.52   689.68   691.89   695.37
eigval :      698.12   720.17   729.75   729.78   740.55   753.64
eigval :      754.22   769.08   769.17   771.36   771.83   776.71
eigval :      776.96   786.15   786.22   802.58   809.72   810.09
eigval :      860.50   863.34   865.68   868.75   868.94   870.28
eigval :      870.83   878.13   878.19   878.89   878.96   891.46
eigval :      891.50   897.24   897.32   901.00   901.34   909.93
eigval :      909.98   910.25   910.31   911.95   912.02   914.72
eigval :      914.78   919.47   919.53   922.42   922.65   922.82
eigval :      922.85   927.48   927.49   928.09   928.11   938.65
eigval :      946.68   946.83   982.58  1004.26  1004.27  1018.26
eigval :     1074.11  1074.12  1078.94  1078.95  1082.19  1086.26
eigval :     1088.80  1102.28  1103.24  1104.58  1104.68  1111.24
eigval :     1126.26  1126.33  1130.66  1139.10  1142.57  1142.62
eigval :     1173.63  1175.83  1175.87  1176.96  1177.97  1178.62
eigval :     1179.63  1182.31  1182.61  1184.15  1184.97  1186.18
eigval :     1186.70  1202.14  1202.51  1204.40  1224.56  1226.75
eigval :     1226.84  1232.36  1233.96  1234.34  1240.86  1242.53
eigval :     1256.42  1258.06  1258.59  1260.00  1264.73  1274.46
eigval :     1274.58  1284.05  1284.09  1304.62  1306.40  1314.22
eigval :     1318.04  1325.11  1326.12  1326.15  1332.20  1332.45
eigval :     1335.75  1335.88  1354.29  1367.25  1367.26  1400.94
eigval :     1403.67  1424.75  1425.07  1428.29  1428.60  1429.04
eigval :     1429.07  1432.63  1434.70  1437.85  1459.37  1459.49
eigval :     1460.26  1460.27  1461.11  1471.52  1471.59  1477.98
eigval :     1480.10  1507.12  1519.33  1544.64  1555.34  1558.12
eigval :     1558.47  1569.37  1571.19  1572.63  1579.53  1579.60
eigval :     1586.20  1586.22  1591.45  1592.68  1597.17  1597.21
eigval :     1601.83  1601.95  1603.99  1604.01  3071.42  3074.26
eigval :     3074.32  3074.82  3074.93  3074.97  3077.42  3077.45
eigval :     3078.42  3078.45  3079.33  3079.45  3083.09  3083.17
eigval :     3083.28  3083.37  3084.94  3084.99  3086.95  3087.01
eigval :     3087.53  3087.70  3088.16  3088.22  3093.17  3093.25
eigval :     3094.23  3094.45  3098.27  3098.62  3100.28  3100.32
eigval :     3100.35  3100.74  3108.12  3108.34  3109.25  3109.63

   temp. (K)  partition function   enthalpy   heat capacity  entropy
                                   cal/mol     cal/K/mol   cal/K/mol   J/K/mol
 298.15  VIB  0.227E+25            29692.940    190.949    186.627
         ROT  0.215E+09              888.752      2.981     41.109
         INT  0.487E+33            30581.693    193.930    227.736
         TR   0.235E+29             1481.254      4.968     46.037
         TOT                       32062.9465   198.8978   273.7734  1145.4680

       T/K    H(0)-H(T)+PV         H(T)/Eh          T*S/Eh         G(T)/Eh
   ------------------------------------------------------------------------
    298.15    0.510956E-01    0.841404E+00    0.130079E+00    0.711326E+00
   ------------------------------------------------------------------------

         :::::::::::::::::::::::::::::::::::::::::::::::::::::
         ::                  THERMODYNAMIC                  ::
         :::::::::::::::::::::::::::::::::::::::::::::::::::::
         :: total free energy        -163.515765600796 Eh   ::
         ::.................................................::
         :: total energy             -164.227091240779 Eh   ::
         :: zero point energy           0.790308664840 Eh   ::
         :: G(RRHO) w/o ZPVE           -0.078983024857 Eh   ::
         :: G(RRHO) contrib.            0.711325639983 Eh   ::
         :::::::::::::::::::::::::::::::::::::::::::::::::::::

           -------------------------------------------------
          | TOTAL ENERGY             -164.227091240779 Eh   |
          | TOTAL ENTHALPY           -163.385687018344 Eh   |
          | TOTAL FREE ENERGY        -163.515765600796 Eh   |
          | GRADIENT NORM               0.000108647309 Eh/α |
           -------------------------------------------------

 * finished run on 2025/08/24 at 02:25:37.244
