   * xtb version 6.7.1 (edcfbbe) compiled by 'albert@albert-system' on 2024-07-22

   ID    Z sym.   atoms
    1    8 O      1
    2    6 C      2-6, 8-37, 39-66
    3    7 N      7, 38
    4    1 H      67-104

          program call               : xtb data2507/gas/SPAC-FO/SPAC-FO_gas_T1_crest.xyz --gfn 2 --spinpol --tblite --uhf 2 --ohess vtight --parallel 40 --molden --ceasefiles --namespace data2507/gas/SPAC-FO/SPAC-FO_gas_T1_finalOpt
 * total energy  :  -164.2271213 Eh     change       -0.9124761E-08 Eh
 * total energy  :  -164.2271499 Eh     change       -0.2865632E-04 Eh
 * total energy  :  -164.2271586 Eh     change       -0.8701483E-05 Eh
 * total energy  :  -164.2271602 Eh     change       -0.1599888E-05 Eh
 * total energy  :  -164.2271630 Eh     change       -0.2815403E-05 Eh
 * total energy  :  -164.2271650 Eh     change       -0.1924061E-05 Eh
 * total energy  :  -164.2271668 Eh     change       -0.1854693E-05 Eh
 * total energy  :  -164.2271675 Eh     change       -0.7104547E-06 Eh
 * total energy  :  -164.2271682 Eh     change       -0.6386152E-06 Eh
 * total energy  :  -164.2271689 Eh     change       -0.6971447E-06 Eh
 * total energy  :  -164.2272443 Eh     change       -0.1453213E-05 Eh
 * total energy  :  -164.2272457 Eh     change       -0.1396603E-05 Eh
 * total energy  :  -164.2272461 Eh     change       -0.4018326E-06 Eh
 * total energy  :  -164.2272467 Eh     change       -0.5436831E-06 Eh
 * total energy  :  -164.2272473 Eh     change       -0.6215444E-06 Eh
 * total energy  :  -164.2272478 Eh     change       -0.4552018E-06 Eh
 * total energy  :  -164.2272484 Eh     change       -0.6493675E-06 Eh
 * total energy  :  -164.2272488 Eh     change       -0.4046406E-06 Eh
 * total energy  :  -164.2272488 Eh     change       -0.5438778E-08 Eh
   *** GEOMETRY OPTIMIZATION CONVERGED AFTER 53 ITERATIONS ***

 final structure:
================
104
 xtb: 6.7.1 (edcfbbe)
O           -0.02161333208871        6.24449553345097        0.42913076187233
C           -0.01897797912154        5.00064232092804        0.33115120069990
C            1.13433820684654        4.12254804862346        0.26850013459248
C            2.48891747867828        4.43628957263152        0.30493087171531
C            3.40831574094739        3.41315128361588        0.22919291794866
C            2.98453361529179        2.08015583368884        0.11961829627914
N            3.97530055255570        1.05518119651641        0.04913546179161
C            4.61602289226776        0.83135725498436       -1.15249074034868
C            4.21927844234603        1.52987974282941       -2.30017237850735
C            4.85064254455169        1.31729924476049       -3.50602046871009
C            5.88841915797648        0.40197168358376       -3.60052668740548
C            6.27863218682794       -0.30048529632663       -2.47567315715397
C            5.65540723782338       -0.10229728894654       -1.25296685745217
C            6.12595565869126       -0.88975684436509       -0.05813895407515
C            6.18789857524607       -2.37152060835105       -0.37787583072286
C            5.15110122988534       -3.21013219834424       -0.72078756527232
C            5.43697112625919       -4.54493560691726       -0.97604667600540
C            6.73576015032179       -5.02197148783257       -0.88779153961088
C            7.78162045602591       -4.18051332552679       -0.54310184408194
C            7.50308544155027       -2.84817510673370       -0.28748015938989
C            8.37079807878968       -1.74241311826819        0.08918200064817
C            9.73739629184279       -1.68796923479397        0.30712010538777
C           10.30385736637717       -0.47473584443755        0.66436569491889
C            9.52349889183897        0.66293732414094        0.80221864014614
C            8.15282939620566        0.61510178780784        0.58470800563525
C            7.58758109173423       -0.58880491282590        0.22902159163639
C            5.29446501272388       -0.63389481342675        1.17168818824252
C            5.56873572490140       -1.35123909093649        2.32623564860736
C            4.86218866075813       -1.12815334571557        3.49321335396073
C            3.86887431369212       -0.16046062426518        3.51279839291363
C            3.58110261415791        0.56359815991935        2.37659357990543
C            4.28042245979979        0.33297390260267        1.18487830961258
C            1.63894558900426        1.74854534101627        0.08305068464840
C            0.70213074265923        2.76567759118049        0.16046392238242
C           -0.73068360709328        2.76284535507825        0.15856447935229
C           -1.66327699228085        1.74186971611181        0.08085705893432
C           -3.01022009528813        2.06813353991276        0.11444905412002
N           -3.99568498847516        1.03767315774044        0.04729767433865
C           -4.62975569065141        0.79979532307854       -1.15501121505531
C           -4.23843114082491        1.49762585178699       -2.30496412080725
C           -4.86392097467847        1.27165219242487       -3.51143811078359
C           -5.89021505200976        0.34328902581713       -3.60430854759734
C           -6.27486209980074       -0.35852562047957       -2.47714382954428
C           -5.65757662921053       -0.14681875407283       -1.25367917228072
C           -6.12069448714385       -0.93598012049308       -0.05705506137439
C           -6.14594601017684       -2.42117334086485       -0.36683940449305
C           -5.08730030332919       -3.23813942439337       -0.69488671972017
C           -5.34019215341224       -4.58107348132263       -0.94221926245360
C           -6.62835223184537       -5.08727325759256       -0.86089435661343
C           -7.69614666008812       -4.26760359365236       -0.53128903256613
C           -7.45053787449311       -2.92731310296172       -0.28355570922893
C           -8.34656999502547       -1.83913271615907        0.07781066046911
C           -9.71588833231283       -1.81441736726076        0.28380280937619
C          -10.31298589709740       -0.61189636867362        0.62716108465075
C           -9.56006681306129        0.54435269196112        0.76311510543322
C           -8.18682167557956        0.52633215131175        0.55762014771895
C           -7.59115121319664       -0.66686469593984        0.21574180082975
C           -5.30482251297536       -0.65418101444053        1.17758216253285
C           -5.58044923637552       -1.36173161926978        2.33785768644881
C           -4.88646791196046       -1.11729770853582        3.50809438489618
C           -3.90430422588156       -0.13822745568776        3.52490805090034
C           -3.61516795592584        0.57614229539639        2.38295261809500
C           -4.30205406460859        0.32434730599388        1.18827483493161
C           -3.43970607663179        3.39956120389162        0.22032657823172
C           -2.52452250137321        4.42646095042699        0.29668647304386
C           -1.16860679892637        4.11800728998753        0.26466825306150
H            2.80634061960815        5.46398110905491        0.39105167700112
H            4.46800790960434        3.62118764877760        0.25380743274500
H            3.40881639753665        2.23866862796766       -2.23417343996882
H            4.53051216674644        1.86755747486955       -4.37777067076914
H            6.38654408808475        0.23539692333303       -4.54293595866946
H            7.08308857335050       -1.01865469729949       -2.53959355763932
H            4.13901726785991       -2.83857470883341       -0.79014444957002
H            4.63788640133164       -5.21914163917524       -1.24662397180214
H            6.93445635767603       -6.06415983549257       -1.09078791125329
H            8.79163788634668       -4.55650753591201       -0.47586159976004
H           10.34920896581844       -2.57149955281399        0.20156614007011
H           11.36818650640850       -0.41369595949932        0.83836582768832
H            9.98667394580869        1.59740563215578        1.08218550274571
H            7.54538420604986        1.50190312983742        0.69325243947504
H            6.35377598752107       -2.09300303873981        2.30375901959816
H            5.08919264964726       -1.69727052141564        4.38124316988548
H            3.31661402804901        0.03282808472926        4.41997084742145
H            2.81262550922023        1.32007345096790        2.40152512891722
H            1.33880205289922        0.71376177978598       -0.00123343668653
H           -1.35891193371701        0.70808566407887       -0.00042723417916
H           -3.43701651725433        2.21674006832873       -2.24004612985126
H           -4.54829498234425        1.82172339712741       -4.38494983117644
H           -6.38372268513447        0.16618902327101       -4.54722564254679
H           -7.07014729657283       -1.08696237294718       -2.53975711010446
H           -4.08345904149693       -2.84389360808515       -0.75876730844687
H           -4.52358432944251       -5.23866834611112       -1.20114232230445
H           -6.80130737713513       -6.13527199092960       -1.05751097380177
H           -8.69774173824078       -4.66639557937777       -0.46936850198984
H          -10.30652014556985       -2.71241920304014        0.17962662523652
H          -11.37989027461905       -0.57400637529756        0.79178149048032
H          -10.04688072216900        1.46997170574697        1.03218281516775
H           -7.60069453200106        1.42756871831171        0.66449824215295
H           -6.35638112333988       -2.11307240850563        2.31712913007183
H           -5.11436005829401       -1.67898221747169        4.40061569829830
H           -3.36188045381916        0.07155563247349        4.43434628933783
H           -2.85532503678119        1.34136329187295        2.40551480992030
H           -4.50027861090226        3.60334952808569        0.24220247889021
H           -2.84618322657159        5.45303076638480        0.38046808738375

 projected vibrational frequencies (cm⁻¹)
eigval :       -0.00    -0.00    -0.00    -0.00     0.00     0.00
eigval :        2.87     3.67     4.53     4.87    17.92    23.03
eigval :       33.86    39.48    42.96    43.52    47.21    49.45
eigval :       64.95    69.40    84.41    84.43    92.75    96.75
eigval :      104.84   110.18   113.80   131.45   133.04   136.90
eigval :      139.69   139.74   160.71   171.01   172.29   202.64
eigval :      235.48   236.00   238.77   241.42   243.52   244.34
eigval :      245.76   248.90   273.23   281.83   283.80   293.16
eigval :      293.18   331.14   353.48   359.28   377.17   387.05
eigval :      387.08   388.20   389.96   400.27   401.08   403.92
eigval :      407.23   413.77   415.93   420.56   424.52   425.21
eigval :      437.81   442.48   450.97   459.84   459.94   463.34
eigval :      474.15   475.81   502.03   502.56   506.90   506.95
eigval :      511.17   521.45   539.34   539.35   552.54   559.43
eigval :      560.27   562.20   587.16   587.28   593.83   596.98
eigval :      597.62   601.63   601.86   615.34   617.87   620.31
eigval :      629.66   639.80   660.84   671.43   676.59   676.68
eigval :      681.59   682.80   689.53   689.63   692.15   695.69
eigval :      698.24   720.14   729.72   729.75   741.58   753.67
eigval :      754.24   769.02   769.11   771.14   771.55   776.49
eigval :      776.73   786.09   786.16   802.84   808.85   808.98
eigval :      858.38   861.60   865.64   868.01   868.19   868.98
eigval :      869.27   878.03   878.10   878.86   878.91   891.43
eigval :      891.48   897.18   897.27   900.02   900.17   909.85
eigval :      909.91   910.25   910.27   911.88   911.91   914.66
eigval :      914.69   919.49   919.56   922.36   922.50   922.62
eigval :      922.66   927.43   927.46   928.05   928.08   939.14
eigval :      946.78   946.82   982.82  1004.27  1004.31  1018.14
eigval :     1074.08  1074.08  1078.82  1078.93  1082.23  1086.32
eigval :     1088.56  1101.33  1102.32  1103.38  1103.42  1110.63
eigval :     1126.30  1126.35  1130.66  1139.47  1142.59  1142.63
eigval :     1172.61  1175.87  1175.89  1176.82  1177.92  1178.66
eigval :     1179.55  1182.04  1182.30  1183.84  1184.64  1185.63
eigval :     1186.04  1202.16  1202.52  1204.79  1224.39  1226.38
eigval :     1226.87  1232.18  1232.97  1233.43  1240.95  1242.61
eigval :     1256.72  1258.05  1258.83  1260.28  1265.49  1274.23
eigval :     1274.28  1284.06  1284.12  1306.59  1310.13  1316.29
eigval :     1319.70  1323.08  1326.15  1326.19  1332.90  1333.13
eigval :     1335.94  1336.03  1355.57  1367.20  1367.25  1400.61
eigval :     1405.96  1425.37  1425.62  1428.46  1428.83  1429.47
eigval :     1429.52  1432.76  1435.28  1437.32  1459.52  1459.60
eigval :     1460.60  1460.67  1462.22  1471.71  1471.77  1477.65
eigval :     1480.48  1508.99  1521.13  1546.41  1555.31  1558.04
eigval :     1558.11  1569.50  1571.21  1572.98  1579.40  1579.45
eigval :     1586.33  1586.37  1590.94  1592.03  1597.37  1597.39
eigval :     1601.95  1602.09  1604.16  1604.20  3072.36  3074.60
eigval :     3074.71  3075.30  3075.34  3075.67  3077.79  3077.85
eigval :     3078.76  3078.84  3080.13  3080.20  3083.28  3083.31
eigval :     3083.49  3083.55  3085.42  3085.50  3087.36  3087.44
eigval :     3087.92  3088.06  3088.36  3088.44  3093.54  3093.67
eigval :     3094.50  3094.77  3098.72  3098.98  3100.30  3100.47
eigval :     3100.51  3100.73  3107.45  3107.83  3108.06  3108.31

   temp. (K)  partition function   enthalpy   heat capacity  entropy
                                   cal/mol     cal/K/mol   cal/K/mol   J/K/mol
 298.15  VIB  0.956E+25            29729.872    190.872    188.117
         ROT  0.215E+09              888.752      2.981     41.110
         INT  0.206E+34            30618.624    193.853    229.227
         TR   0.235E+29             1481.254      4.968     46.037
         TOT                       32099.8779   198.8210   275.2642  1151.7052

       T/K    H(0)-H(T)+PV         H(T)/Eh          T*S/Eh         G(T)/Eh
   ------------------------------------------------------------------------
    298.15    0.511544E-01    0.841423E+00    0.130787E+00    0.710636E+00
   ------------------------------------------------------------------------

         :::::::::::::::::::::::::::::::::::::::::::::::::::::
         ::                  THERMODYNAMIC                  ::
         :::::::::::::::::::::::::::::::::::::::::::::::::::::
         :: total free energy        -163.516612880153 Eh   ::
         ::.................................................::
         :: total energy             -164.227248892332 Eh   ::
         :: zero point energy           0.790268484984 Eh   ::
         :: G(RRHO) w/o ZPVE           -0.079632472805 Eh   ::
         :: G(RRHO) contrib.            0.710636012179 Eh   ::
         :::::::::::::::::::::::::::::::::::::::::::::::::::::

           -------------------------------------------------
          | TOTAL ENERGY             -164.227248892332 Eh   |
          | TOTAL ENTHALPY           -163.385825995720 Eh   |
          | TOTAL FREE ENERGY        -163.516612880153 Eh   |
          | GRADIENT NORM               0.000096179452 Eh/α |
           -------------------------------------------------

 * finished run on 2025/08/24 at 02:38:00.271
