   * xtb version 6.7.1 (edcfbbe) compiled by 'albert@albert-system' on 2024-07-22

   ID    Z sym.   atoms
    1    8 O      1
    2    6 C      2-6, 8-37, 39-66
    3    7 N      7, 38
    4    1 H      67-104

          program call               : xtb data2507/gas/SPAC-FO/SPAC-FO_gas_S0_crest.xyz --gfn 2 --ohess vtight --parallel 40 --molden --ceasefiles --namespace data2507/gas/SPAC-FO/SPAC-FO_gas_S0_finalOpt
          :  Hamiltonian                  GFN2-xTB          :
 * total energy  :  -164.2847855 Eh     change       -0.5065743E-08 Eh
 * total energy  :  -164.2847873 Eh     change       -0.1786790E-05 Eh
 * total energy  :  -164.2847908 Eh     change       -0.3532035E-05 Eh
 * total energy  :  -164.2847932 Eh     change       -0.2431484E-05 Eh
 * total energy  :  -164.2847954 Eh     change       -0.2154994E-05 Eh
 * total energy  :  -164.2847986 Eh     change       -0.3188448E-05 Eh
 * total energy  :  -164.2848036 Eh     change       -0.4981007E-05 Eh
 * total energy  :  -164.2848089 Eh     change       -0.5294351E-05 Eh
 * total energy  :  -164.2848132 Eh     change       -0.4346748E-05 Eh
 * total energy  :  -164.2848166 Eh     change       -0.3378731E-05 Eh
 * total energy  :  -164.2848606 Eh     change       -0.5252547E-06 Eh
 * total energy  :  -164.2848615 Eh     change       -0.8273416E-06 Eh
 * total energy  :  -164.2848620 Eh     change       -0.5282994E-06 Eh
 * total energy  :  -164.2848621 Eh     change       -0.1119171E-06 Eh
 * total energy  :  -164.2848624 Eh     change       -0.2742467E-06 Eh
 * total energy  :  -164.2848629 Eh     change       -0.4845255E-06 Eh
 * total energy  :  -164.2848633 Eh     change       -0.3862895E-06 Eh
 * total energy  :  -164.2848636 Eh     change       -0.3125924E-06 Eh
 * total energy  :  -164.2848636 Eh     change       -0.4003473E-07 Eh
   *** GEOMETRY OPTIMIZATION CONVERGED AFTER 55 ITERATIONS ***

 final structure:
================
104
 xtb: 6.7.1 (edcfbbe)
O            0.01409517191015        6.30042645729501        0.12834730091265
C            0.00128028194768        5.09133816574935        0.09129213775107
C            1.16502210410305        4.16907242203101        0.05935799334688
C            2.51530441250815        4.45609793154488        0.06886062037968
C            3.41649070415656        3.40128517228549        0.03410580290838
C            2.97046904763012        2.08329607866384       -0.01082221467737
N            3.91673596922923        1.03352684601869       -0.04590500889504
C            4.71633954474871        0.88996361352291       -1.17569885331833
C            4.46528424776041        1.65414901959219       -2.31853631626395
C            5.25063114774384        1.52204159368699       -3.44533418130145
C            6.29613747587128        0.61506667402700       -3.46484771976884
C            6.52963665835713       -0.16770699423681       -2.35028024821713
C            5.74977132504384       -0.04841611636049       -1.20933226415310
C            6.05485930357297       -0.93166324472034       -0.02545580622141
C            6.25777843892537       -2.36968260227407       -0.45643951349072
C            5.34665997456976       -3.21864938198072       -1.04437919970321
C            5.75121687179123       -4.50888764402450       -1.36047123812181
C            7.04334434615160       -4.93339934336439       -1.09111914020056
C            7.96353249930163       -4.08231169386411       -0.49971766891291
C            7.56556018073940       -2.79450310700045       -0.18174447136746
C            8.28903950098180       -1.69246779226031        0.43463884258624
C            9.59399682647141       -1.59833179686620        0.88855296263981
C           10.01843619421633       -0.40114902949267        1.44267339499917
C            9.15833903180935        0.68162669668469        1.54341169832320
C            7.84895649676969        0.59304488277456        1.09008368919447
C            7.42414587123067       -0.59457108089164        0.53788310776045
C            5.01279264465327       -0.82270338101990        1.06014573248903
C            5.09040992316345       -1.68876695705624        2.14082974525249
C            4.21517436823395       -1.59056234329694        3.20566219094722
C            3.26176194756607       -0.58760729724448        3.20248846006567
C            3.16976769075053        0.28290802612522        2.13549274177547
C            4.02369340624849        0.16448099134237        1.03566010046971
C            1.60199324974425        1.79091915858876       -0.02731214431751
C            0.70882802599700        2.83817590807961        0.00964530311094
C           -0.75399730997130        2.85357389985102        0.01311112638864
C           -1.66956279564527        1.82586621734021       -0.01848574016613
C           -3.03143602423195        2.14719017382978        0.00327230140430
N           -3.99406353269813        1.11196672654014       -0.02784024597469
C           -4.80957189060601        0.98122520647477       -1.14775131548881
C           -4.60001333432766        1.78359918635162       -2.27284740101027
C           -5.40602294306686        1.66731309319939       -3.38668440295302
C           -6.43256579064539        0.73907440080968       -3.41191259149436
C           -6.62265469858803       -0.08304880856928       -2.31785740662704
C           -5.82120221363403        0.01951406864809       -1.19012461389305
C           -6.06746440946298       -0.92941400402243       -0.04394722785263
C           -6.08416325443266       -2.36479005831161       -0.53212340237477
C           -5.06002148697585       -3.07792083209118       -1.11410570171795
C           -5.29817261191656       -4.39369711332134       -1.48861647822214
C           -6.53898285362730       -4.97669250371055       -1.28187727082789
C           -7.57241116671590       -4.26247449899894       -0.69653915554915
C           -7.34054823218342       -2.94990789853434       -0.32063350616097
C           -8.20967184385704       -1.96413636110376        0.30460031913630
C           -9.53108093086493       -2.04068310507888        0.71191112934638
C          -10.11274174288919       -0.92275379235594        1.28841398457852
C           -9.39104410207239        0.24916001773938        1.45631747364702
C           -8.06585866587362        0.33165958419981        1.05017366157153
C           -7.48463945062584       -0.77691129073749        0.47640639354030
C           -5.07699071460545       -0.75269060696132        1.07991078238426
C           -5.16658226959061       -1.59836059286396        2.17591719401477
C           -4.32515095248461       -1.45878987473000        3.26294159470741
C           -3.39169235720718       -0.43699823447266        3.26420222241939
C           -3.28899646798651        0.41401463114637        2.18273348518747
C           -4.11078362438148        0.25632019523468        1.06313056038707
C           -3.44957538450316        3.47398489654625        0.05342496487830
C           -2.52562619083500        4.50930765321057        0.08361565448834
C           -1.18187213763396        4.19384967297027        0.06483825404274
H            2.85605310081313        5.47911647154568        0.11060745483480
H            4.47945601831986        3.59163672584418        0.03958609366333
H            3.64314787299002        2.35343145204024       -2.32598734837555
H            5.03869297662468        2.12903445862325       -4.31278693119071
H            6.91695256645341        0.51183467592832       -4.34115786961669
H            7.33331467198763       -0.88950267015095       -2.35703873858014
H            4.34001680420450       -2.88759123658750       -1.25504652968326
H            5.05118074316212       -5.18986946750705       -1.82180472912324
H            7.33611864559574       -5.94159636013322       -1.34599980163896
H            8.96886657849913       -4.41755709405808       -0.29184422938982
H           10.26773050054604       -2.43899562038664        0.81302064257445
H           11.03317303821519       -0.30941824577564        1.80184901881627
H            9.51113977949666        1.60451465369783        1.97981897655431
H            7.17854067142166        1.43666956324047        1.17060147312173
H            5.85993633954431       -2.44690222623413        2.14392081242807
H            4.28876027181075       -2.27623958542929        4.03535399374605
H            2.58571109896522       -0.47482195135705        4.03688413431976
H            2.43383616837151        1.07148131498454        2.16407462945055
H            1.27228218714027        0.76386913917604       -0.07603139218310
H           -1.36307085955441        0.79149000881397       -0.06377547627707
H           -3.79329092011324        2.50041728290349       -2.27822041886788
H           -5.22514127130806        2.30409107449870       -4.23970511283835
H           -7.06975249231626        0.64835259453742       -4.27776653317704
H           -7.40720280511711       -0.82559005485726       -2.33079849554905
H           -4.09315335501189       -2.62365102764119       -1.27612155132191
H           -4.50755449012974       -4.96986302942756       -1.94645051014013
H           -6.70173359856250       -6.00179462647839       -1.58160030809960
H           -8.53728332452586       -4.72089561649679       -0.53781865712984
H          -10.09731114136644       -2.95136079079510        0.58378131010965
H          -11.14264298873515       -0.96401166880223        1.61201808250296
H           -9.86549817785128        1.10776663143096        1.90829748739365
H           -7.50320655063008        1.24465742961285        1.18215964062593
H           -5.91739607560324       -2.37508908331875        2.17129830969110
H           -4.40769279940082       -2.12870712030546        4.10457522163554
H           -2.74056712943916       -0.29394689367534        4.11364281662317
H           -2.56963065453693        1.21777696689805        2.21350809987963
H           -4.50813771595787        3.68699963836920        0.06807233965209
H           -2.84423529693756        5.53930364268359        0.12905816676878

          :  Hamiltonian                  GFN2-xTB          :
         :: gradient norm              0.000188500538 Eh/a0 ::
         :: HOMO-LUMO gap              1.118455779582 eV    ::
         :: SCC energy              -167.373967563944 Eh    ::
         :: -> dispersion             -0.165743390083 Eh    ::
         :: repulsion energy           3.089103959500 Eh    ::

    * Orbital Energies and Occupations

         #    Occupation            Energy/Eh            Energy/eV
      -------------------------------------------------------------
         1        2.0000           -0.7106242             -19.3371
       ...           ...                  ...                  ...
       141        2.0000           -0.4100405             -11.1578
       142        2.0000           -0.4044728             -11.0063
       143        2.0000           -0.3995708             -10.8729
       144        2.0000           -0.3994987             -10.8709
       145        2.0000           -0.3972128             -10.8087
       146        2.0000           -0.3971666             -10.8075
       147        2.0000           -0.3961363             -10.7794
       148        2.0000           -0.3953690             -10.7585
       149        2.0000           -0.3951844             -10.7535
       150        2.0000           -0.3804017             -10.3513
       151        2.0000           -0.3803668             -10.3503
       152        2.0000           -0.3542590              -9.6399
       153        2.0000           -0.3539117              -9.6304 (HOMO)
       154                         -0.3128091              -8.5120 (LUMO)
       155                         -0.2677260              -7.2852
       156                         -0.2528535              -6.8805
       157                         -0.2527314              -6.8772
       158                         -0.2474317              -6.7330
       159                         -0.2342453              -6.3741
       160                         -0.2342422              -6.3741
       161                         -0.2264230              -6.1613
       162                         -0.2263607              -6.1596
       163                         -0.2261868              -6.1549
       164                         -0.2259435              -6.1482
       ...                                ...                  ...
       302                          0.7374055              20.0658
      -------------------------------------------------------------
                  HL-Gap            0.0411027 Eh            1.1185 eV

     #   Z          covCN         q      C6AA      α(0)
     1   8 O        0.856    -0.352    20.754     6.108
     2   6 C        2.866     0.230    23.194     7.894
     3   6 C        3.046    -0.028    28.652     8.779
     4   6 C        2.912    -0.015    28.390     8.737
     5   6 C        2.924    -0.040    28.990     8.830
     6   6 C        2.928     0.075    26.331     8.415
     7   7 N        2.753    -0.067    22.528     7.049
     8   6 C        2.926     0.058    26.699     8.474
     9   6 C        2.924    -0.057    29.409     8.893
    10   6 C        2.920    -0.032    28.790     8.799
    11   6 C        2.918    -0.041    29.013     8.833
    12   6 C        2.926    -0.034    28.854     8.809
    13   6 C        2.984    -0.006    28.162     8.705
    14   6 C        3.950     0.012    20.309     6.404
    15   6 C        3.058     0.003    27.913     8.664
    16   6 C        2.914    -0.032    28.793     8.799
    17   6 C        2.923    -0.032    28.786     8.798
    18   6 C        2.921    -0.032    28.803     8.801
    19   6 C        2.915    -0.034    28.852     8.808
    20   6 C        3.035     0.001    27.961     8.673
    21   6 C        3.034     0.002    27.957     8.673
    22   6 C        2.915    -0.034    28.839     8.806
    23   6 C        2.921    -0.032    28.802     8.801
    24   6 C        2.923    -0.031    28.785     8.798
    25   6 C        2.914    -0.032    28.805     8.801
    26   6 C        3.060     0.003    27.908     8.663
    27   6 C        2.984    -0.006    28.170     8.706
    28   6 C        2.927    -0.034    28.854     8.809
    29   6 C        2.917    -0.041    29.021     8.834
    30   6 C        2.920    -0.032    28.794     8.800
    31   6 C        2.924    -0.058    29.439     8.898
    32   6 C        2.923     0.058    26.691     8.472
    33   6 C        2.915    -0.040    28.996     8.830
    34   6 C        3.039     0.007    27.820     8.651
    35   6 C        3.039     0.007    27.818     8.651
    36   6 C        2.915    -0.040    28.992     8.829
    37   6 C        2.928     0.075    26.331     8.415
    38   7 N        2.753    -0.066    22.524     7.049
    39   6 C        2.925     0.058    26.699     8.474
    40   6 C        2.924    -0.057    29.420     8.895
    41   6 C        2.920    -0.032    28.790     8.799
    42   6 C        2.917    -0.041    29.016     8.833
    43   6 C        2.927    -0.034    28.851     8.809
    44   6 C        2.984    -0.006    28.166     8.706
    45   6 C        3.951     0.012    20.310     6.404
    46   6 C        3.059     0.003    27.912     8.664
    47   6 C        2.914    -0.032    28.797     8.800
    48   6 C        2.923    -0.032    28.786     8.798
    49   6 C        2.921    -0.032    28.802     8.801
    50   6 C        2.915    -0.034    28.849     8.808
    51   6 C        3.035     0.002    27.960     8.673
    52   6 C        3.034     0.002    27.959     8.673
    53   6 C        2.915    -0.034    28.844     8.807
    54   6 C        2.921    -0.032    28.802     8.801
    55   6 C        2.923    -0.031    28.783     8.798
    56   6 C        2.914    -0.032    28.801     8.800
    57   6 C        3.060     0.003    27.910     8.664
    58   6 C        2.984    -0.006    28.169     8.706
    59   6 C        2.927    -0.034    28.850     8.808
    60   6 C        2.917    -0.041    29.020     8.834
    61   6 C        2.920    -0.032    28.793     8.799
    62   6 C        2.924    -0.058    29.433     8.897
    63   6 C        2.924     0.058    26.692     8.472
    64   6 C        2.924    -0.040    28.993     8.830
    65   6 C        2.912    -0.015    28.392     8.737
    66   6 C        3.046    -0.028    28.652     8.779
    67   1 H        0.926     0.060     2.203     2.321
    68   1 H        0.926     0.049     2.338     2.391
    69   1 H        0.926     0.027     2.633     2.538
    70   1 H        0.926     0.032     2.558     2.501
    71   1 H        0.926     0.031     2.572     2.508
    72   1 H        0.926     0.031     2.565     2.505
    73   1 H        0.926     0.025     2.653     2.547
    74   1 H        0.926     0.030     2.581     2.512
    75   1 H        0.926     0.030     2.581     2.512
    76   1 H        0.926     0.031     2.573     2.508
    77   1 H        0.926     0.031     2.565     2.505
    78   1 H        0.926     0.031     2.574     2.509
    79   1 H        0.926     0.031     2.576     2.510
    80   1 H        0.926     0.024     2.669     2.555
    81   1 H        0.926     0.031     2.568     2.506
    82   1 H        0.926     0.031     2.577     2.510
    83   1 H        0.926     0.031     2.571     2.507
    84   1 H        0.926     0.028     2.620     2.531
    85   1 H        0.926     0.048     2.339     2.392
    86   1 H        0.926     0.048     2.344     2.394
    87   1 H        0.926     0.027     2.627     2.534
    88   1 H        0.926     0.032     2.559     2.502
    89   1 H        0.926     0.031     2.573     2.508
    90   1 H        0.926     0.031     2.569     2.506
    91   1 H        0.926     0.025     2.662     2.551
    92   1 H        0.926     0.030     2.582     2.513
    93   1 H        0.926     0.030     2.580     2.512
    94   1 H        0.926     0.031     2.571     2.507
    95   1 H        0.926     0.031     2.569     2.506
    96   1 H        0.926     0.031     2.576     2.510
    97   1 H        0.926     0.031     2.576     2.510
    98   1 H        0.926     0.025     2.661     2.551
    99   1 H        0.926     0.031     2.570     2.507
   100   1 H        0.926     0.031     2.576     2.510
   101   1 H        0.926     0.031     2.570     2.507
   102   1 H        0.926     0.027     2.628     2.535
   103   1 H        0.926     0.049     2.331     2.387
   104   1 H        0.926     0.060     2.203     2.321

molecular dipole:
                 x           y           z       tot (Debye)
 q only:       -0.003      -0.967      -0.048
   full:       -0.005      -1.089      -0.045       2.771

 projected vibrational frequencies (cm⁻¹)
eigval :       -0.00    -0.00    -0.00     0.00     0.00     0.00
eigval :        2.33     3.59     8.22     8.45    16.81    25.49
eigval :       35.73    37.22    43.05    44.91    48.18    52.69
eigval :       64.39    69.59    84.33    84.79    93.23    94.68
eigval :      105.10   117.74   119.53   126.85   132.24   135.06
eigval :      140.74   141.04   163.62   175.21   175.71   201.07
eigval :      234.43   237.02   237.74   241.19   245.46   247.47
eigval :      251.55   252.33   274.72   276.27   291.37   294.62
eigval :      294.78   320.17   352.01   352.93   384.55   386.82
eigval :      388.23   388.73   390.55   399.84   401.58   403.56
eigval :      409.28   414.50   417.04   424.99   427.29   431.44
eigval :      435.08   440.50   459.53   463.01   463.34   465.54
eigval :      478.69   499.77   500.34   505.00   505.16   512.44
eigval :      512.68   515.07   540.18   540.19   551.64   564.36
eigval :      567.61   587.80   587.89   591.24   600.31   601.67
eigval :      601.91   603.43   604.84   619.06   621.42   640.56
eigval :      655.41   658.01   659.95   673.33   674.30   676.14
eigval :      685.36   686.22   691.55   693.94   699.64   704.99
eigval :      725.99   730.18   730.32   742.56   746.42   754.05
eigval :      754.69   768.84   769.06   772.72   773.32   778.03
eigval :      778.31   786.08   786.17   802.43   831.37   840.51
eigval :      866.16   866.97   869.26   869.38   875.43   877.72
eigval :      877.93   878.97   879.10   885.90   889.21   892.78
eigval :      893.05   899.10   899.49   909.00   909.26   909.86
eigval :      910.03   911.09   911.21   914.55   914.65   919.44
eigval :      920.04   920.85   921.09   921.78   922.27   922.56
eigval :      923.08   926.98   927.07   927.78   927.85   948.34
eigval :      948.90   951.18   989.53  1006.29  1006.37  1032.49
eigval :     1074.23  1074.26  1079.20  1079.23  1082.75  1086.98
eigval :     1090.28  1109.26  1109.66  1111.52  1111.57  1118.49
eigval :     1126.32  1126.54  1134.18  1141.24  1142.80  1143.06
eigval :     1171.30  1176.93  1177.09  1178.08  1178.56  1178.91
eigval :     1180.21  1184.52  1185.24  1185.30  1185.75  1189.61
eigval :     1190.56  1204.39  1204.99  1209.33  1219.59  1224.28
eigval :     1231.35  1234.79  1237.77  1238.62  1240.33  1246.52
eigval :     1253.42  1259.73  1260.00  1268.99  1269.88  1274.43
eigval :     1274.92  1284.72  1284.75  1304.81  1311.81  1312.87
eigval :     1323.14  1326.43  1327.07  1327.19  1333.18  1333.88
eigval :     1334.99  1335.25  1367.47  1367.57  1367.94  1400.05
eigval :     1428.78  1429.49  1429.67  1430.06  1430.86  1436.28
eigval :     1436.60  1437.38  1439.08  1454.05  1460.69  1461.76
eigval :     1461.79  1472.30  1472.36  1479.64  1480.78  1491.43
eigval :     1492.64  1570.67  1573.75  1575.25  1576.78  1583.54
eigval :     1586.56  1586.63  1587.98  1588.58  1589.83  1590.16
eigval :     1591.51  1597.17  1597.25  1601.33  1601.50  1603.73
eigval :     1603.82  1605.51  1605.52  1739.03  3071.91  3072.19
eigval :     3072.65  3072.95  3075.52  3075.53  3076.52  3076.86
eigval :     3080.88  3081.07  3081.37  3081.44  3083.10  3083.17
eigval :     3083.82  3084.04  3084.21  3084.31  3085.20  3085.39
eigval :     3089.54  3090.21  3090.47  3091.36  3091.46  3092.80
eigval :     3092.89  3093.06  3095.49  3096.29  3096.55  3097.04
eigval :     3101.70  3101.94  3102.12  3102.37  3102.55  3102.69

   temp. (K)  partition function   enthalpy   heat capacity  entropy
                                   cal/mol     cal/K/mol   cal/K/mol   J/K/mol
 298.15  VIB  0.276E+25            29548.738    189.884    186.218
         ROT  0.213E+09              888.752      2.981     41.093
         INT  0.588E+33            30437.491    192.865    227.310
         TR   0.235E+29             1481.254      4.968     46.037
         TOT                       31918.7447   197.8328   273.3478  1143.6871

       T/K    H(0)-H(T)+PV         H(T)/Eh          T*S/Eh         G(T)/Eh
   ------------------------------------------------------------------------
    298.15    0.508658E-01    0.843925E+00    0.129876E+00    0.714048E+00
   ------------------------------------------------------------------------

         :::::::::::::::::::::::::::::::::::::::::::::::::::::
         ::                  THERMODYNAMIC                  ::
         :::::::::::::::::::::::::::::::::::::::::::::::::::::
         :: total free energy        -163.570815209347 Eh   ::
         ::.................................................::
         :: total energy             -164.284863604440 Eh   ::
         :: zero point energy           0.793058983448 Eh   ::
         :: G(RRHO) w/o ZPVE           -0.079010588354 Eh   ::
         :: G(RRHO) contrib.            0.714048395093 Eh   ::
         :::::::::::::::::::::::::::::::::::::::::::::::::::::

           -------------------------------------------------
          | TOTAL ENERGY             -164.284863604440 Eh   |
          | TOTAL ENTHALPY           -163.440938863646 Eh   |
          | TOTAL FREE ENERGY        -163.570815209347 Eh   |
          | GRADIENT NORM               0.000188515160 Eh/α |
          | HOMO-LUMO GAP               1.118460102383 eV   |
           -------------------------------------------------

 * finished run on 2025/08/24 at 02:25:03.239
