   * xtb version 6.7.1 (edcfbbe) compiled by 'albert@albert-system' on 2024-07-22

   ID    Z sym.   atoms
    1    8 O      1
    2    6 C      2-6, 8-37, 39-66
    3    7 N      7, 38
    4    1 H      67-104

          program call               : xtb data2507/gas/SPAC-FO/SPAC-FO.xyz --gfn 2 --ohess vtight --parallel 40 --molden --ceasefiles --namespace data2507/gas/SPAC-FO/SPAC-FO_gas_S0_preOpt
          :  Hamiltonian                  GFN2-xTB          :
 * total energy  :  -164.2511137 Eh     change       -0.2815511E-08 Eh
 * total energy  :  -164.2739014 Eh     change       -0.2278760E-01 Eh
 * total energy  :  -164.2817808 Eh     change       -0.7879441E-02 Eh
 * total energy  :  -164.2829145 Eh     change       -0.1133668E-02 Eh
 * total energy  :  -164.2833495 Eh     change       -0.4349914E-03 Eh
 * total energy  :  -164.2835235 Eh     change       -0.1740589E-03 Eh
 * total energy  :  -164.2835810 Eh     change       -0.5745592E-04 Eh
 * total energy  :  -164.2836071 Eh     change       -0.2614549E-04 Eh
 * total energy  :  -164.2836238 Eh     change       -0.1667684E-04 Eh
 * total energy  :  -164.2836311 Eh     change       -0.7308203E-05 Eh
 * total energy  :  -164.2847926 Eh     change       -0.2033953E-06 Eh
 * total energy  :  -164.2847927 Eh     change       -0.1699526E-06 Eh
 * total energy  :  -164.2847929 Eh     change       -0.1885665E-06 Eh
 * total energy  :  -164.2847932 Eh     change       -0.2496045E-06 Eh
 * total energy  :  -164.2847934 Eh     change       -0.2230642E-06 Eh
 * total energy  :  -164.2847936 Eh     change       -0.1487592E-06 Eh
 * total energy  :  -164.2847937 Eh     change       -0.1258307E-06 Eh
 * total energy  :  -164.2847938 Eh     change       -0.1553420E-06 Eh
 * total energy  :  -164.2847938 Eh     change       -0.2437389E-08 Eh
   *** GEOMETRY OPTIMIZATION CONVERGED AFTER 221 ITERATIONS ***

 final structure:
================
104
 xtb: 6.7.1 (edcfbbe)
O           -0.06100779336538        6.55147402680096        0.01876044968261
C           -0.04294518541281        5.34195139116581        0.01867884795322
C            1.14200632759272        4.44916563761855       -0.05379652944638
C            2.48128544857962        4.77138249855787       -0.14271012373955
C            3.40845788110202        3.73989863297989       -0.19949107277948
C            2.99710328808557        2.41046156370405       -0.17142222746675
N            3.96098237026550        1.37718664840270       -0.23225358610190
C            4.69038338397415        1.19814772977896       -1.40352738745189
C            4.40978597451317        1.96633619937065       -2.53694082101110
C            5.13064774005403        1.80113865102199       -3.70184702525463
C            6.14092466273287        0.85739373244054       -3.77003487668167
C            6.40027232224911        0.06933213216496       -2.66517447224480
C            5.68486649168244        0.22106397020901       -1.48629085488329
C            5.99758810827621       -0.69942124447764       -0.33308285342213
C            5.90986255941046       -2.14902524018333       -0.77019912524741
C            4.80858634602478       -2.83289851396827       -1.23450088704527
C            4.95595711216743       -4.16978513918674       -1.57975758221364
C            6.18400288990746       -4.80213028336527       -1.46020930586683
C            7.29495818539474       -4.11724174646439       -0.99403168347814
C            7.15385643892353       -2.78370977669811       -0.64805901812725
C            8.11638923759471       -1.81891889607644       -0.13748596169871
C            9.46428768941561       -1.94282659840856        0.15518142068909
C           10.14218686177096       -0.83484946864183        0.63824847441915
C            9.48892822325431        0.37354405310943        0.82643312641137
C            8.13761740772440        0.50365294572251        0.53477633803746
C            7.46070025993949       -0.59479841259963        0.05395565549573
C            5.11859373069934       -0.44774586600021        0.86666659376053
C            5.29587540857247       -1.24011303865511        1.99143202024467
C            4.55481479406622       -1.03549098412148        3.13954000211681
C            3.63414499566182       -0.00257008704034        3.17106298130717
C            3.44494064525208        0.79582677427190        2.06150546664085
C            4.16463501589401        0.57263530342520        0.88422200556167
C            1.63955288981673        2.08218632948672       -0.08467477627110
C            0.72100590934601        3.10603086263314       -0.02441296490509
C           -0.73914331783284        3.08415068973822        0.06366487036973
C           -1.62633412242430        2.03294550157918        0.12316236014676
C           -2.99362747872474        2.32003504429330        0.20459800939503
N           -3.92933449984816        1.26150594681799        0.26222171604660
C           -4.09845534158941        0.43765156147938       -0.84625905199042
C           -3.34896310273882        0.64322775725740       -2.00795787875371
C           -3.50251304503068       -0.17791218676108       -3.10644203603531
C           -4.41603901530770       -1.21718227873990       -3.07956063356286
C           -5.18868572913705       -1.40304709383827       -1.94921273582919
C           -5.04786690462990       -0.58743767513239       -0.83598600058980
C           -5.97322463813309       -0.80697896898487        0.33492309300423
C           -5.97926051104248       -2.26157026511628        0.76143569299689
C           -4.93259101920917       -3.00817847768073        1.25468849238796
C           -5.16461706017280       -4.33657833231791        1.58599749261319
C           -6.42157878068786       -4.89894454105866        1.42449197028912
C           -7.47777530187107       -4.15096629204096        0.92879344142990
C           -7.25219886196167       -2.82560200934435        0.59643825960207
C           -8.14335104342795       -1.80609109336561        0.06309514778675
C           -9.48589116738598       -1.85340042233457       -0.27332710901999
C          -10.08558098988530       -0.70700981404571       -0.76996385021362
C           -9.36085954333469        0.46425810244359       -0.92889481758520
C           -8.01462575689601        0.51765326318281       -0.59314478442991
C           -7.41557233818915       -0.61915393260848       -0.09847767766502
C           -5.65326572744182        0.09093247413145        1.50372059667515
C           -6.36862579266189       -0.07333431318915        2.68093172622444
C           -6.10965943924751        0.70376141606607        3.79364435429599
C           -5.10086576963812        1.64976896627494        3.73483483035647
C           -4.38025374445257        1.82735172872221        2.57162825847936
C           -4.66028188986220        1.07006088119527        1.43077417425859
C           -3.44454149326266        3.63673676169835        0.23247187927174
C           -2.54896487651807        4.69568697057348        0.17801861203478
C           -1.20037257747485        4.41403735876982        0.09096474166907
H            2.79458303200197        5.80386954860051       -0.16012578407270
H            4.46388212822032        3.95813142302333       -0.26716144575129
H            3.61411299846171        2.69483003348674       -2.50825699639644
H            4.89579040520774        2.41196658645969       -4.56068870406950
H            6.71136980597896        0.72799219457319       -4.67656406662632
H            7.17178003070395       -0.68555474454941       -2.70997966333270
H            3.85156112050087       -2.34023381935715       -1.32871724003380
H            4.10395096229358       -4.72362869435740       -1.94581895689005
H            6.27527495989996       -5.84306900086374       -1.73457599767809
H            8.24951555779082       -4.61407803178369       -0.90291072736055
H            9.97740092432986       -2.88209209917729        0.01069971462818
H           11.19405408059098       -0.91291414234031        0.87193795324413
H           10.03778024914725        1.22346084014515        1.20458271129988
H            7.62858962982228        1.44520433054053        0.68274793175560
H            6.03480724223775       -2.02753167328320        1.95960895857411
H            4.70439657563708       -1.66469341706811        4.00308287234033
H            3.06093467283143        0.19037227456723        4.06560683830763
H            2.73757612845972        1.60917484254822        2.11361521257565
H            1.33841905835160        1.04535563102400       -0.07026565028309
H           -1.29325230841024        1.00587758576061        0.11332692194844
H           -2.64679006448066        1.46107835537191       -2.05818972889452
H           -2.90673513103811        0.00225708456305       -3.98882781305344
H           -4.53742739869739       -1.86436095818669       -3.93419310384189
H           -5.92541738376855       -2.19272653721209       -1.92346904298701
H           -3.95321868699735       -2.56985410210134        1.38164277863259
H           -4.35648857115156       -4.93884197565554        1.97438383609747
H           -6.57906923836821       -5.93446885205706        1.68913562587804
H           -8.45514795903154       -4.59340472334508        0.80506437486944
H          -10.05459654002389       -2.76347581132277       -0.15209779197497
H          -11.13204123415023       -0.72538799302741       -1.03773302353461
H           -9.84932943989390        1.34518232582626       -1.31874608886901
H           -7.44974032849051        1.43019859894826       -0.71867466479384
H           -7.14062012471538       -0.82811264632230        2.71783808999228
H           -6.68022803230671        0.56494188614474        4.69870454781096
H           -4.86698130601945        2.25239983335774        4.59969538931155
H           -3.58554674397900        2.55720668941875        2.54947708067639
H           -4.50615398453540        3.82304071016204        0.29889804059828
H           -2.89332282740700        5.71822893276899        0.19511722116380

          :  Hamiltonian                  GFN2-xTB          :
         :: gradient norm              0.000035440302 Eh/a0 ::
         :: HOMO-LUMO gap              1.097063277718 eV    ::
         :: SCC energy              -167.373815210307 Eh    ::
         :: -> dispersion             -0.165493649477 Eh    ::
         :: repulsion energy           3.089021374916 Eh    ::

    * Orbital Energies and Occupations

         #    Occupation            Energy/Eh            Energy/eV
      -------------------------------------------------------------
         1        2.0000           -0.7109134             -19.3449
       ...           ...                  ...                  ...
       141        2.0000           -0.4101276             -11.1601
       142        2.0000           -0.4045392             -11.0081
       143        2.0000           -0.3995421             -10.8721
       144        2.0000           -0.3994020             -10.8683
       145        2.0000           -0.3971879             -10.8080
       146        2.0000           -0.3970701             -10.8048
       147        2.0000           -0.3964129             -10.7869
       148        2.0000           -0.3953282             -10.7574
       149        2.0000           -0.3951106             -10.7515
       150        2.0000           -0.3803750             -10.3505
       151        2.0000           -0.3802885             -10.3482
       152        2.0000           -0.3547139              -9.6523
       153        2.0000           -0.3533381              -9.6148 (HOMO)
       154                         -0.3130217              -8.5178 (LUMO)
       155                         -0.2679221              -7.2905
       156                         -0.2527551              -6.8778
       157                         -0.2526445              -6.8748
       158                         -0.2475948              -6.7374
       159                         -0.2342891              -6.3753
       160                         -0.2341622              -6.3719
       161                         -0.2264599              -6.1623
       162                         -0.2262822              -6.1575
       163                         -0.2260313              -6.1506
       164                         -0.2258120              -6.1447
       ...                                ...                  ...
       302                          0.7372632              20.0620
      -------------------------------------------------------------
                  HL-Gap            0.0403163 Eh            1.0971 eV

     #   Z          covCN         q      C6AA      α(0)
     1   8 O        0.856    -0.352    20.749     6.107
     2   6 C        2.866     0.230    23.192     7.894
     3   6 C        3.046    -0.028    28.649     8.779
     4   6 C        2.912    -0.015    28.392     8.737
     5   6 C        2.924    -0.040    28.992     8.830
     6   6 C        2.928     0.075    26.327     8.415
     7   7 N        2.753    -0.066    22.528     7.049
     8   6 C        2.924     0.058    26.698     8.473
     9   6 C        2.924    -0.057    29.424     8.895
    10   6 C        2.920    -0.032    28.790     8.799
    11   6 C        2.917    -0.041    29.018     8.833
    12   6 C        2.927    -0.034    28.850     8.809
    13   6 C        2.984    -0.006    28.168     8.706
    14   6 C        3.951     0.012    20.310     6.404
    15   6 C        3.059     0.003    27.912     8.664
    16   6 C        2.914    -0.032    28.799     8.800
    17   6 C        2.923    -0.032    28.786     8.799
    18   6 C        2.921    -0.032    28.802     8.801
    19   6 C        2.915    -0.034    28.848     8.807
    20   6 C        3.035     0.002    27.959     8.673
    21   6 C        3.035     0.001    27.960     8.673
    22   6 C        2.915    -0.034    28.845     8.807
    23   6 C        2.921    -0.032    28.802     8.801
    24   6 C        2.923    -0.031    28.783     8.798
    25   6 C        2.914    -0.032    28.800     8.800
    26   6 C        3.059     0.003    27.910     8.664
    27   6 C        2.984    -0.006    28.169     8.706
    28   6 C        2.927    -0.034    28.850     8.809
    29   6 C        2.917    -0.041    29.021     8.834
    30   6 C        2.920    -0.032    28.795     8.800
    31   6 C        2.924    -0.058    29.433     8.897
    32   6 C        2.924     0.058    26.691     8.472
    33   6 C        2.915    -0.040    28.986     8.829
    34   6 C        3.039     0.007    27.815     8.650
    35   6 C        3.039     0.007    27.817     8.651
    36   6 C        2.915    -0.040    28.990     8.829
    37   6 C        2.928     0.075    26.329     8.415
    38   7 N        2.753    -0.066    22.524     7.049
    39   6 C        2.924     0.058    26.692     8.472
    40   6 C        2.924    -0.058    29.436     8.897
    41   6 C        2.920    -0.032    28.796     8.800
    42   6 C        2.917    -0.041    29.021     8.834
    43   6 C        2.927    -0.034    28.851     8.809
    44   6 C        2.984    -0.006    28.169     8.706
    45   6 C        3.951     0.012    20.310     6.404
    46   6 C        3.058     0.003    27.912     8.664
    47   6 C        2.914    -0.032    28.796     8.800
    48   6 C        2.923    -0.031    28.786     8.798
    49   6 C        2.921    -0.032    28.803     8.801
    50   6 C        2.915    -0.034    28.850     8.808
    51   6 C        3.035     0.001    27.960     8.673
    52   6 C        3.034     0.002    27.959     8.673
    53   6 C        2.915    -0.034    28.842     8.807
    54   6 C        2.921    -0.032    28.802     8.801
    55   6 C        2.923    -0.031    28.784     8.798
    56   6 C        2.914    -0.032    28.803     8.801
    57   6 C        3.060     0.003    27.910     8.664
    58   6 C        2.984    -0.006    28.165     8.705
    59   6 C        2.927    -0.034    28.851     8.809
    60   6 C        2.917    -0.041    29.015     8.833
    61   6 C        2.920    -0.032    28.789     8.799
    62   6 C        2.924    -0.057    29.417     8.894
    63   6 C        2.925     0.058    26.698     8.474
    64   6 C        2.924    -0.040    28.992     8.830
    65   6 C        2.912    -0.015    28.391     8.737
    66   6 C        3.046    -0.028    28.652     8.779
    67   1 H        0.926     0.060     2.202     2.321
    68   1 H        0.926     0.049     2.327     2.385
    69   1 H        0.926     0.027     2.628     2.535
    70   1 H        0.926     0.032     2.561     2.502
    71   1 H        0.926     0.031     2.574     2.509
    72   1 H        0.926     0.031     2.570     2.507
    73   1 H        0.926     0.025     2.664     2.552
    74   1 H        0.926     0.030     2.582     2.513
    75   1 H        0.926     0.030     2.580     2.512
    76   1 H        0.926     0.031     2.571     2.507
    77   1 H        0.926     0.031     2.570     2.507
    78   1 H        0.926     0.031     2.577     2.511
    79   1 H        0.926     0.031     2.577     2.510
    80   1 H        0.926     0.025     2.659     2.550
    81   1 H        0.926     0.031     2.570     2.507
    82   1 H        0.926     0.031     2.577     2.511
    83   1 H        0.926     0.031     2.570     2.507
    84   1 H        0.926     0.027     2.632     2.537
    85   1 H        0.926     0.048     2.345     2.395
    86   1 H        0.926     0.048     2.342     2.393
    87   1 H        0.926     0.027     2.626     2.534
    88   1 H        0.926     0.031     2.570     2.507
    89   1 H        0.926     0.031     2.577     2.510
    90   1 H        0.926     0.031     2.569     2.506
    91   1 H        0.926     0.025     2.658     2.550
    92   1 H        0.926     0.030     2.581     2.512
    93   1 H        0.926     0.030     2.580     2.512
    94   1 H        0.926     0.031     2.572     2.508
    95   1 H        0.926     0.031     2.568     2.506
    96   1 H        0.926     0.031     2.576     2.510
    97   1 H        0.926     0.031     2.576     2.510
    98   1 H        0.926     0.025     2.663     2.552
    99   1 H        0.926     0.031     2.568     2.506
   100   1 H        0.926     0.031     2.572     2.508
   101   1 H        0.926     0.032     2.559     2.502
   102   1 H        0.926     0.027     2.629     2.536
   103   1 H        0.926     0.049     2.331     2.387
   104   1 H        0.926     0.060     2.202     2.321

molecular dipole:
                 x           y           z       tot (Debye)
 q only:        0.001      -0.953       0.004
   full:        0.002      -1.078       0.003       2.740

 projected vibrational frequencies (cm⁻¹)
eigval :       -0.00    -0.00    -0.00     0.00     0.00     0.00
eigval :        2.19     3.41     8.22     8.58    16.50    25.80
eigval :       34.94    37.84    44.10    44.94    47.66    51.97
eigval :       64.06    69.65    84.30    84.45    92.65    95.83
eigval :      105.82   117.05   120.73   126.45   132.55   133.48
eigval :      140.72   140.84   163.18   173.18   177.10   201.24
eigval :      236.00   237.29   239.55   239.94   245.87   247.06
eigval :      249.86   252.23   274.65   275.30   290.48   294.70
eigval :      294.77   320.47   352.66   353.02   384.51   386.23
eigval :      388.04   389.83   391.22   399.37   401.57   402.85
eigval :      408.82   414.57   417.33   425.02   427.82   431.24
eigval :      435.21   437.95   460.52   462.98   463.17   465.00
eigval :      477.43   498.88   501.79   504.63   507.95   510.80
eigval :      512.72   512.75   540.20   540.20   551.89   564.03
eigval :      571.01   587.78   587.83   588.96   600.34   601.31
eigval :      602.84   603.26   604.21   618.99   621.75   640.46
eigval :      655.52   658.12   660.25   673.54   674.50   676.40
eigval :      685.17   685.52   691.39   693.62   699.71   704.92
eigval :      726.13   730.31   730.35   743.20   745.98   754.03
eigval :      754.69   768.96   769.09   772.93   773.13   778.16
eigval :      778.26   786.19   786.20   802.34   831.79   840.60
eigval :      866.88   867.14   869.10   869.25   875.41   877.92
eigval :      877.98   879.01   879.07   884.48   887.03   892.72
eigval :      892.83   899.20   899.46   909.25   909.33   909.90
eigval :      909.99   911.08   911.16   914.62   914.64   919.83
eigval :      920.13   920.78   920.87   921.90   922.13   922.89
eigval :      923.25   927.09   927.12   927.82   927.85   948.47
eigval :      949.01   951.29   989.50  1006.27  1006.29  1032.51
eigval :     1074.21  1074.23  1079.22  1079.27  1082.73  1086.98
eigval :     1090.24  1109.41  1109.58  1111.43  1111.54  1118.47
eigval :     1126.49  1126.54  1134.28  1141.44  1142.78  1142.85
eigval :     1171.14  1177.05  1177.07  1177.92  1178.51  1178.81
eigval :     1180.08  1184.60  1185.19  1185.54  1185.63  1189.88
eigval :     1190.35  1204.83  1205.01  1209.04  1219.30  1223.99
eigval :     1231.12  1234.81  1238.27  1238.78  1240.26  1246.41
eigval :     1253.42  1259.69  1259.77  1269.00  1269.80  1274.74
eigval :     1274.98  1284.71  1284.75  1304.37  1312.03  1312.51
eigval :     1323.02  1326.40  1327.15  1327.20  1333.70  1334.16
eigval :     1334.65  1335.84  1367.50  1367.56  1368.04  1399.91
eigval :     1428.61  1429.55  1429.64  1429.88  1430.67  1436.25
eigval :     1436.42  1437.42  1438.98  1453.82  1460.48  1461.74
eigval :     1461.75  1472.27  1472.29  1480.31  1480.94  1491.64
eigval :     1492.81  1570.81  1573.83  1575.28  1576.95  1583.64
eigval :     1586.61  1586.63  1588.03  1588.65  1589.96  1590.17
eigval :     1591.72  1597.22  1597.24  1601.39  1601.51  1603.78
eigval :     1603.83  1605.50  1605.51  1739.46  3072.14  3072.18
eigval :     3072.66  3072.74  3075.51  3075.54  3076.47  3076.60
eigval :     3080.82  3080.88  3081.25  3081.39  3083.06  3083.13
eigval :     3083.75  3083.88  3083.90  3084.11  3085.15  3085.24
eigval :     3089.64  3090.40  3090.60  3091.36  3091.43  3092.75
eigval :     3092.82  3093.10  3096.06  3096.18  3096.46  3096.73
eigval :     3101.73  3101.89  3102.07  3102.22  3102.50  3102.63

   temp. (K)  partition function   enthalpy   heat capacity  entropy
                                   cal/mol     cal/K/mol   cal/K/mol   J/K/mol
 298.15  VIB  0.311E+25            29553.131    189.888    186.359
         ROT  0.212E+09              888.752      2.981     41.077
         INT  0.658E+33            30441.883    192.869    227.437
         TR   0.235E+29             1481.254      4.968     46.037
         TOT                       31923.1372   197.8374   273.4739  1144.2146

       T/K    H(0)-H(T)+PV         H(T)/Eh          T*S/Eh         G(T)/Eh
   ------------------------------------------------------------------------
    298.15    0.508728E-01    0.843917E+00    0.129936E+00    0.713981E+00
   ------------------------------------------------------------------------

         :::::::::::::::::::::::::::::::::::::::::::::::::::::
         ::                  THERMODYNAMIC                  ::
         :::::::::::::::::::::::::::::::::::::::::::::::::::::
         :: total free energy        -163.570812844193 Eh   ::
         ::.................................................::
         :: total energy             -164.284793835391 Eh   ::
         :: zero point energy           0.793044486544 Eh   ::
         :: G(RRHO) w/o ZPVE           -0.079063495346 Eh   ::
         :: G(RRHO) contrib.            0.713980991198 Eh   ::
         :::::::::::::::::::::::::::::::::::::::::::::::::::::

           -------------------------------------------------
          | TOTAL ENERGY             -164.284793835391 Eh   |
          | TOTAL ENTHALPY           -163.440876591514 Eh   |
          | TOTAL FREE ENERGY        -163.570812844193 Eh   |
          | GRADIENT NORM               0.000035446356 Eh/α |
          | HOMO-LUMO GAP               1.097062803485 eV   |
           -------------------------------------------------

 * finished run on 2025/08/24 at 02:11:02.201
