   * xtb version 6.7.1 (edcfbbe) compiled by 'albert@albert-system' on 2024-07-22

   ID    Z sym.   atoms
    1    6 C      1-4, 6-21, 23-36, 38-48
    2    7 N      5, 22, 37
    3    1 H      49-79

          program call               : xtb data2507/toluene/mTPA-PPI/mTPA-PPI_toluene_T1_crest.xyz --gfn 2 --uhf 2 --gbsa toluene --ohess vtight --parallel 40 --molden --ceasefiles --namespace data2507/toluene/mTPA-PPI/mTPA-PPI_toluene_T1_finalOpt
      * Solvation model:               GBSA
        Solvent                        toluene
        Solvent mass                       9.2140E+01 g/mol
          :  Hamiltonian                  GFN2-xTB          :
 * total energy  :  -120.9454189 Eh     change       -0.2836808E-07 Eh
 * total energy  :  -120.9454892 Eh     change       -0.7039115E-04 Eh
 * total energy  :  -120.9455297 Eh     change       -0.4043473E-04 Eh
 * total energy  :  -120.9455472 Eh     change       -0.1747094E-04 Eh
 * total energy  :  -120.9455642 Eh     change       -0.1707379E-04 Eh
 * total energy  :  -120.9455814 Eh     change       -0.1712574E-04 Eh
 * total energy  :  -120.9455918 Eh     change       -0.1040008E-04 Eh
 * total energy  :  -120.9455978 Eh     change       -0.6062473E-05 Eh
 * total energy  :  -120.9456052 Eh     change       -0.7360382E-05 Eh
 * total energy  :  -120.9456096 Eh     change       -0.4442972E-05 Eh
 * total energy  :  -120.9456753 Eh     change       -0.4501595E-05 Eh
 * total energy  :  -120.9456803 Eh     change       -0.4970132E-05 Eh
 * total energy  :  -120.9456852 Eh     change       -0.4887642E-05 Eh
 * total energy  :  -120.9456889 Eh     change       -0.3723534E-05 Eh
 * total energy  :  -120.9456912 Eh     change       -0.2291352E-05 Eh
 * total energy  :  -120.9456928 Eh     change       -0.1584628E-05 Eh
 * total energy  :  -120.9456942 Eh     change       -0.1428126E-05 Eh
 * total energy  :  -120.9456957 Eh     change       -0.1480950E-05 Eh
 * total energy  :  -120.9456957 Eh     change       -0.4452801E-08 Eh
   *** GEOMETRY OPTIMIZATION CONVERGED AFTER 44 ITERATIONS ***

 final structure:
================
79
 xtb: 6.7.1 (edcfbbe)
C            6.07942333816738        4.30747731042558       -0.64583347787263
C            5.02609643598385        3.61907730628411       -1.22751057344107
C            4.93153245023158        2.24676945273353       -1.10126140234618
C            5.89503593845580        1.54058150020224       -0.37837876371425
N            5.80472392132330        0.15082774858985       -0.24261492722928
C            6.96994345409570       -0.62616682091188       -0.25520913462108
C            8.02246169538863       -0.30774079219037       -1.11462979002264
C            9.16843635378111       -1.07911819466008       -1.12346439563120
C            9.28236652193481       -2.17673645692114       -0.28445492324585
C            8.23961708483587       -2.49676660002855        0.57110196699661
C            7.09142016567482       -1.72907032456325        0.59161985374118
C            4.56013625533940       -0.46163344650198       -0.10237580145585
C            3.52779240242428        0.17165182417446        0.59663062942935
C            2.29553005545962       -0.42961984105136        0.71825409128534
C            2.04506687350414       -1.68744287371232        0.16243605760038
C            0.72649081418689       -2.31251948534532        0.29092559050928
C            0.60791951744859       -3.70306036054667        0.48016360194758
C           -0.65557628747420       -4.28413613701328        0.55978918214204
C           -1.78862300536253       -3.51895131599118        0.48027053292729
C           -1.70339305190500       -2.09974532940949        0.33062305642503
C           -2.90832921176154       -1.38051846081231        0.25095583370966
N           -4.08850208650776       -1.99071757871197        0.01868357718967
C           -4.99553028017277       -1.03885212084268       -0.12182413430931
C           -6.37679621567206       -1.19794445071251       -0.44155887453053
C           -6.90740879284953       -2.46223098721333       -0.70185104159387
C           -8.23648906583368       -2.60740462971766       -1.04827118785440
C           -9.03560409561561       -1.47721534291879       -1.14323438999013
C           -8.52079929025855       -0.22037200656302       -0.88155151523500
C           -7.18131770590013       -0.03540197853405       -0.51342481353278
C           -6.61824944104629        1.26579957928708       -0.19795795961553
C           -7.40905944942697        2.41330835052688       -0.15835153325866
C           -6.90158881857980        3.65466257180466        0.17140145786699
C           -5.54856044022770        3.78902114091739        0.49992481710890
C           -4.72930520892803        2.69607467618087        0.47133629394095
C           -5.21535440918309        1.41145127301078        0.11152907283306
C           -4.42254822085506        0.26161439380588        0.07600287040719
N           -3.08332295005798        0.02637900187892        0.30846131893332
C           -2.08587736904420        0.95316190411881        0.64098074601300
C           -1.44701276658352        0.87317221808375        1.87965736055781
C           -0.44545783761971        1.77053250894425        2.19675933900263
C           -0.06806510928504        2.75032219475646        1.28981538533336
C           -0.70188278840445        2.83133773396576        0.05823818276964
C           -1.70643792421146        1.94166979230784       -0.26974065881320
C           -0.41195125005705       -1.53501394292803        0.21982330568112
C            3.08609505483275       -2.32148486028085       -0.52050522576285
C            4.31795120289099       -1.72126381617371       -0.65884055677917
C            6.95295857570254        2.23875338839993        0.20682228046403
C            7.04172106518144        3.61027613412779        0.06807545650963
H            6.15058144750694        5.37961626595514       -0.74964656949955
H            4.27641684033963        4.15347819274320       -1.79223895272719
H            4.11802426369861        1.71115741697247       -1.56806719497703
H            7.92932310950725        0.53915372378517       -1.77844321059600
H            9.97446827035784       -0.82682570734804       -1.79656858593094
H           10.17844507933944       -2.77851215457931       -0.29671097455958
H            8.32365306830971       -3.34602747836953        1.23303631092359
H            6.28416086232963       -1.97123291696802        1.26709368421655
H            3.70749006280129        1.13309876932935        1.05447079861275
H            1.51600488710867        0.06783925477820        1.27558721439756
H            1.49285567421166       -4.31240450906197        0.57595549356942
H           -0.73930198520134       -5.35410310880958        0.68958194333434
H           -2.77158829036195       -3.95740133408016        0.54016242385685
H           -6.24661081494885       -3.31257030392102       -0.62920845298345
H           -8.64630411874695       -3.58589870969892       -1.24915616247052
H          -10.07445200179896       -1.57514997073127       -1.42470679513668
H           -9.18259518121482        0.62585753947471       -0.97423184213213
H           -8.46230259769585        2.34443070385753       -0.38012743305321
H           -7.55134830221080        4.51673749050660        0.18881846422926
H           -5.15454311150674        4.75455417413484        0.78233616335473
H           -3.69321582442782        2.80217074434114        0.74734521560677
H           -1.74310725958838        0.10310523363919        2.57719452355722
H            0.04115554163135        1.70717121600329        3.15925803533192
H            0.71839698326422        3.44591589706118        1.54013699649549
H           -0.40814227437406        3.58892179515791       -0.65317779285740
H           -2.20216750942286        1.99448698434478       -1.22858926874843
H           -0.30793687856478       -0.48459578119843        0.00429399402694
H            2.91225325912397       -3.28248212290878       -0.98092278778274
H            5.10053103633434       -2.21586758044636       -1.21520702219748
H            7.69580298892761        1.69926996778760        0.77570675964504
H            7.86269983274477        4.13951861317049        0.52883843154221

          :  Hamiltonian                  GFN2-xTB          :
         :: gradient norm              0.000063191602 Eh/a0 ::
         :: HOMO-LUMO gap              0.460555961796 eV    ::
         :: SCC energy              -123.211915428040 Eh    ::
         :: -> dispersion             -0.113122030353 Eh    ::
         :: -> Gsolv                  -0.052061743815 Eh    ::
         :: repulsion energy           2.266219739346 Eh    ::

    * Orbital Energies and Occupations

         #    Occupation            Energy/Eh            Energy/eV
      -------------------------------------------------------------
         1        2.0000           -0.6777417             -18.4423
       ...           ...                  ...                  ...
       102        2.0000           -0.4128867             -11.2352
       103        2.0000           -0.4122232             -11.2172
       104        2.0000           -0.4110271             -11.1846
       105        2.0000           -0.4106060             -11.1732
       106        2.0000           -0.4045059             -11.0072
       107        2.0000           -0.3965615             -10.7910
       108        2.0000           -0.3937313             -10.7140
       109        2.0000           -0.3908498             -10.6356
       110        2.0000           -0.3797612             -10.3338
       111        2.0000           -0.3747951             -10.1987
       112        1.8848           -0.3579517              -9.7404
       113        1.1152           -0.3540774              -9.6349
       114        0.9999           -0.2671280              -7.2689 (HOMO)
       115        0.0001           -0.2502029              -6.8084 (LUMO)
       116        0.0000           -0.2474560              -6.7336
       117                         -0.2412806              -6.5656
       118                         -0.2389621              -6.5025
       119                         -0.2342816              -6.3751
       120                         -0.2318264              -6.3083
       121                         -0.2311551              -6.2900
       122                         -0.2292638              -6.2386
       123                         -0.2271237              -6.1804
       124                         -0.2147411              -5.8434
       125                         -0.2057567              -5.5989
       ...                                ...                  ...
       223                          0.7321124              19.9218
      -------------------------------------------------------------
                  HL-Gap            0.0169252 Eh            0.4606 eV

     #   Z          covCN         q      C6AA      α(0)
     1   6 C        2.919    -0.034    28.836     8.806
     2   6 C        2.919    -0.027    28.684     8.783
     3   6 C        2.921    -0.044    29.081     8.843
     4   6 C        2.924     0.064    26.558     8.451
     5   7 N        2.752    -0.050    22.206     6.999
     6   6 C        2.925     0.064    26.562     8.452
     7   6 C        2.921    -0.043    29.077     8.843
     8   6 C        2.919    -0.027    28.684     8.783
     9   6 C        2.919    -0.033    28.827     8.805
    10   6 C        2.919    -0.027    28.682     8.782
    11   6 C        2.921    -0.043    29.072     8.842
    12   6 C        2.924     0.063    26.600     8.458
    13   6 C        2.919    -0.045    29.119     8.849
    14   6 C        2.923    -0.033    28.832     8.806
    15   6 C        2.977     0.007    27.848     8.656
    16   6 C        2.970     0.006    27.873     8.660
    17   6 C        2.921    -0.046    29.141     8.852
    18   6 C        2.909    -0.032    28.807     8.801
    19   6 C        2.925    -0.037    28.927     8.820
    20   6 C        2.966    -0.013    28.334     8.731
    21   6 C        3.130     0.126    25.051     8.194
    22   7 N        1.877    -0.321    29.187     8.008
    23   6 C        3.162     0.083    25.832     8.308
    24   6 C        2.983    -0.008    28.211     8.713
    25   6 C        2.923    -0.030    28.756     8.794
    26   6 C        2.915    -0.036    28.888     8.814
    27   6 C        2.917    -0.030    28.738     8.791
    28   6 C        2.922    -0.039    28.973     8.827
    29   6 C        2.976    -0.002    28.073     8.691
    30   6 C        2.975    -0.009    28.239     8.717
    31   6 C        2.918    -0.034    28.850     8.808
    32   6 C        2.915    -0.039    28.979     8.827
    33   6 C        2.912    -0.035    28.879     8.812
    34   6 C        2.916    -0.041    29.008     8.832
    35   6 C        2.971    -0.019    28.489     8.755
    36   6 C        3.025     0.038    27.121     8.542
    37   7 N        2.809    -0.082    22.838     7.098
    38   6 C        2.908     0.066    26.533     8.446
    39   6 C        2.920    -0.042    29.031     8.836
    40   6 C        2.918    -0.028    28.710     8.787
    41   6 C        2.918    -0.036    28.901     8.816
    42   6 C        2.918    -0.030    28.738     8.791
    43   6 C        2.920    -0.042    29.039     8.837
    44   6 C        2.923    -0.051    29.268     8.872
    45   6 C        2.923    -0.033    28.811     8.802
    46   6 C        2.919    -0.046    29.131     8.851
    47   6 C        2.922    -0.044    29.088     8.844
    48   6 C        2.919    -0.027    28.686     8.783
    49   1 H        0.926     0.039     2.466     2.456
    50   1 H        0.926     0.040     2.454     2.450
    51   1 H        0.926     0.038     2.469     2.457
    52   1 H        0.926     0.039     2.459     2.452
    53   1 H        0.926     0.041     2.441     2.443
    54   1 H        0.926     0.039     2.460     2.453
    55   1 H        0.926     0.040     2.443     2.444
    56   1 H        0.926     0.039     2.458     2.452
    57   1 H        0.926     0.040     2.450     2.448
    58   1 H        0.926     0.038     2.473     2.459
    59   1 H        0.926     0.031     2.566     2.505
    60   1 H        0.926     0.030     2.587     2.515
    61   1 H        0.926     0.041     2.430     2.438
    62   1 H        0.926     0.044     2.401     2.423
    63   1 H        0.926     0.033     2.539     2.492
    64   1 H        0.926     0.034     2.527     2.486
    65   1 H        0.926     0.034     2.526     2.485
    66   1 H        0.926     0.033     2.546     2.495
    67   1 H        0.926     0.028     2.614     2.528
    68   1 H        0.926     0.027     2.632     2.537
    69   1 H        0.926     0.027     2.626     2.534
    70   1 H        0.926     0.030     2.585     2.514
    71   1 H        0.926     0.038     2.471     2.458
    72   1 H        0.926     0.039     2.459     2.452
    73   1 H        0.926     0.039     2.461     2.453
    74   1 H        0.926     0.033     2.543     2.494
    75   1 H        0.926     0.024     2.674     2.557
    76   1 H        0.926     0.042     2.427     2.436
    77   1 H        0.926     0.040     2.447     2.446
    78   1 H        0.926     0.039     2.458     2.452
    79   1 H        0.926     0.040     2.443     2.444

molecular dipole:
                 x           y           z       tot (Debye)
 q only:        3.911       0.852      -0.084
   full:        3.863       1.218      -0.052      10.297

 projected vibrational frequencies (cm⁻¹)
eigval :       -0.00    -0.00     0.00     0.00     0.00     0.00
eigval :       11.11    11.95    15.36    22.24    36.16    38.57
eigval :       41.31    49.72    55.10    59.72    64.34    70.98
eigval :       75.18    83.56    91.28   101.65   106.44   129.89
eigval :      148.47   157.39   193.13   195.32   206.23   215.21
eigval :      223.92   231.80   236.34   254.35   257.46   279.49
eigval :      300.73   310.03   314.92   328.93   364.54   375.35
eigval :      375.51   378.43   380.46   388.40   389.19   395.45
eigval :      396.63   405.86   413.46   419.34   435.67   455.68
eigval :      473.37   481.70   482.95   496.12   509.16   516.63
eigval :      519.40   537.99   579.56   580.19   582.16   586.59
eigval :      592.54   592.87   599.45   613.41   621.48   630.52
eigval :      635.09   642.72   653.99   659.04   659.38   661.19
eigval :      665.99   684.35   687.34   692.73   716.90   720.65
eigval :      743.84   746.39   753.82   755.68   757.73   764.53
eigval :      767.07   814.46   822.93   835.02   839.23   846.24
eigval :      853.66   864.20   869.16   869.84   872.03   887.31
eigval :      888.81   895.57   896.54   902.88   908.58   909.00
eigval :      911.24   911.40   913.79   914.51   916.40   921.79
eigval :      924.58   925.58   926.76   929.10   929.48   930.65
eigval :      935.46   954.52   978.80   982.35   992.27  1002.31
eigval :     1014.22  1044.72  1074.25  1075.24  1078.95  1079.91
eigval :     1081.02  1086.57  1096.61  1115.43  1119.01  1120.61
eigval :     1122.48  1130.59  1143.83  1151.23  1170.68  1173.86
eigval :     1175.83  1177.34  1177.38  1179.21  1179.40  1182.70
eigval :     1190.11  1191.98  1194.11  1206.40  1212.98  1238.27
eigval :     1242.60  1256.84  1266.46  1268.27  1270.95  1272.57
eigval :     1274.56  1276.17  1284.30  1300.86  1311.94  1313.88
eigval :     1314.18  1321.75  1323.62  1325.85  1336.32  1347.00
eigval :     1347.77  1353.70  1377.20  1391.50  1393.27  1410.92
eigval :     1414.79  1426.01  1430.38  1432.15  1437.14  1438.31
eigval :     1461.10  1461.51  1465.42  1467.64  1475.33  1492.17
eigval :     1498.59  1530.50  1535.56  1543.14  1546.62  1547.70
eigval :     1550.56  1565.54  1569.53  1572.81  1575.88  1582.80
eigval :     1584.29  1592.18  3065.32  3069.95  3071.73  3074.87
eigval :     3075.51  3076.74  3077.26  3077.57  3078.34  3080.07
eigval :     3081.96  3082.34  3083.83  3084.14  3086.23  3086.62
eigval :     3087.11  3089.02  3090.20  3090.92  3093.59  3093.99
eigval :     3094.59  3097.02  3097.24  3097.50  3098.32  3104.90
eigval :     3109.25  3120.48  3123.19

   temp. (K)  partition function   enthalpy   heat capacity  entropy
                                   cal/mol     cal/K/mol   cal/K/mol   J/K/mol
 298.15  VIB  0.290E+18            22344.148    142.375    139.320
         ROT  0.890E+08              888.752      2.981     39.356
         INT  0.258E+26            23232.901    145.356    178.677
         TR   0.147E+29             1481.254      4.968     45.106
         TOT                       24714.1547   150.3240   223.7824   936.3057

       T/K    H(0)-H(T)+PV         H(T)/Eh          T*S/Eh         G(T)/Eh
   ------------------------------------------------------------------------
    298.15    0.393845E-01    0.645919E+00    0.106326E+00    0.539593E+00
   ------------------------------------------------------------------------

         :::::::::::::::::::::::::::::::::::::::::::::::::::::
         ::                  THERMODYNAMIC                  ::
         :::::::::::::::::::::::::::::::::::::::::::::::::::::
         :: total free energy        -120.406102626324 Eh   ::
         ::.................................................::
         :: total energy             -120.945695688937 Eh   ::
         :: zero point energy           0.606534800655 Eh   ::
         :: G(RRHO) w/o ZPVE           -0.066941738042 Eh   ::
         :: G(RRHO) contrib.            0.539593062613 Eh   ::
         :::::::::::::::::::::::::::::::::::::::::::::::::::::

           -------------------------------------------------
          | TOTAL ENERGY             -120.945695688937 Eh   |
          | TOTAL ENTHALPY           -120.299776375797 Eh   |
          | TOTAL FREE ENERGY        -120.406102626324 Eh   |
          | GRADIENT NORM               0.000063181799 Eh/α |
          | HOMO-LUMO GAP               0.460557381902 eV   |
           -------------------------------------------------

 * finished run on 2025/09/10 at 12:22:58.750
