   * xtb version 6.7.1 (edcfbbe) compiled by 'albert@albert-system' on 2024-07-22

   ID    Z sym.   atoms
    1    6 C      1-4, 6-21, 23-36, 38-48
    2    7 N      5, 22, 37
    3    1 H      49-79

          program call               : xtb data2507/toluene/mTPA-PPI/mTPA-PPI_toluene_S0_crest.xyz --gfn 2 --gbsa toluene --ohess vtight --parallel 40 --molden --ceasefiles --namespace data2507/toluene/mTPA-PPI/mTPA-PPI_toluene_S0_finalOpt
      * Solvation model:               GBSA
        Solvent                        toluene
        Solvent mass                       9.2140E+01 g/mol
          :  Hamiltonian                  GFN2-xTB          :
 * total energy  :  -121.0381918 Eh     change       -0.3162285E-08 Eh
 * total energy  :  -121.0382358 Eh     change       -0.4402453E-04 Eh
 * total energy  :  -121.0382620 Eh     change       -0.2620595E-04 Eh
 * total energy  :  -121.0382764 Eh     change       -0.1440908E-04 Eh
 * total energy  :  -121.0382944 Eh     change       -0.1798726E-04 Eh
 * total energy  :  -121.0383076 Eh     change       -0.1323382E-04 Eh
 * total energy  :  -121.0383139 Eh     change       -0.6240025E-05 Eh
 * total energy  :  -121.0383189 Eh     change       -0.5066779E-05 Eh
 * total energy  :  -121.0383234 Eh     change       -0.4517710E-05 Eh
 * total energy  :  -121.0383271 Eh     change       -0.3614513E-05 Eh
 * total energy  :  -121.0383512 Eh     change       -0.2747621E-06 Eh
 * total energy  :  -121.0383515 Eh     change       -0.3346561E-06 Eh
 * total energy  :  -121.0383519 Eh     change       -0.3638111E-06 Eh
 * total energy  :  -121.0383522 Eh     change       -0.3558601E-06 Eh
 * total energy  :  -121.0383526 Eh     change       -0.3415749E-06 Eh
 * total energy  :  -121.0383529 Eh     change       -0.3525173E-06 Eh
 * total energy  :  -121.0383533 Eh     change       -0.4001083E-06 Eh
 * total energy  :  -121.0383538 Eh     change       -0.4714658E-06 Eh
 * total energy  :  -121.0383538 Eh     change       -0.1700826E-08 Eh
   *** GEOMETRY OPTIMIZATION CONVERGED AFTER 44 ITERATIONS ***

 final structure:
================
79
 xtb: 6.7.1 (edcfbbe)
C            5.94430131613540        4.28593343043056       -1.19006810904446
C            4.92696652725397        3.51050063102726       -1.72292163379269
C            4.86201977477663        2.15713964802902       -1.45199963630756
C            5.81687179310736        1.55823593071128       -0.62995254049644
N            5.75600269060886        0.18712623862652       -0.34781418131992
C            6.94075020606961       -0.55707259766906       -0.26452852460349
C            7.99452789870447       -0.30722363683507       -1.14341075990250
C            9.16311235961316       -1.03926585947963       -1.05521761262335
C            9.29798278877488       -2.03386336610402       -0.09986027998101
C            8.25287100050340       -2.28802551648501        0.77387498060815
C            7.08380207881167       -1.55529247877288        0.69911966390473
C            4.52159643727959       -0.43501517162245       -0.15000374557680
C            3.47377061125578        0.24443744382138        0.47422619005809
C            2.25133479068307       -0.36673349067045        0.65324698003766
C            2.03465272605026       -1.67942396962691        0.23539954022211
C            0.72618615791216       -2.31747722827406        0.43238781246395
C            0.62318396979677       -3.64666595801172        0.83779864410692
C           -0.61949454717464       -4.23018516541959        1.01322144211976
C           -1.77244125288844       -3.49809141293386        0.80421049722878
C           -1.69032194371840       -2.16033559320887        0.41399700462045
C           -2.92912627543804       -1.42883433152262        0.19556501824015
N           -4.01978805510808       -1.99385140466072       -0.26342771780209
C           -4.95044149119596       -1.00575437207306       -0.33906461431986
C           -6.29032287973880       -1.10282970812003       -0.80901186596157
C           -6.81004179212702       -2.31456184098386       -1.27809850583890
C           -8.09644874150437       -2.38196547670652       -1.75232892774102
C           -8.88093785717274       -1.23000383522634       -1.76687866232630
C           -8.38245094929470       -0.03459659387869       -1.30360666612833
C           -7.07590559360335        0.07293670037858       -0.80121859508031
C           -6.53238055452626        1.31365651710821       -0.27445925851666
C           -7.30901188801218        2.47858966195825       -0.18872294558715
C           -6.81670051561423        3.64757797152896        0.34214387930837
C           -5.51439293853768        3.69876204991164        0.82950657004153
C           -4.71857337769376        2.58182335623744        0.75904639268845
C           -5.19312092377063        1.38614604728130        0.19996852237147
C           -4.41055568349747        0.20053298831072        0.10340349270525
N           -3.10429962832574       -0.08408363190067        0.43507590319352
C           -2.11711167603237        0.78893705137922        0.94468942721263
C           -1.65936567482666        0.62468233995810        2.24635645371588
C           -0.66964190515654        1.46046209428340        2.73422738347408
C           -0.13580634326785        2.45367519056999        1.92930028519518
C           -0.59232062316982        2.61467816928373        0.63024332722749
C           -1.58078427765418        1.78489801133014        0.13304592437767
C           -0.43865939332742       -1.58764729516221        0.21524508337597
C            3.08832323034041       -2.35965354528404       -0.37299405948265
C            4.30815782530788       -1.74831038669078       -0.57313438516641
C            6.83694674864689        2.34417334960196       -0.09359442441245
C            6.89842119897647        3.69507743545217       -0.37730065509917
H            5.99352788163802        5.34252336131440       -1.40690058659480
H            4.18259758338192        3.96083575494225       -2.36365734531885
H            4.07336197803252        1.55348473445986       -1.87733651088401
H            7.88831149278694        0.46181652575011       -1.89486238460983
H            9.97098337492980       -0.83703884188415       -1.74354173575676
H           10.21111849004235       -2.60655889205764       -0.03668094732405
H            8.35161467181493       -3.05746303355910        1.52594343126254
H            6.27359279632862       -1.74851758201435        1.38729504190279
H            3.62846831652608        1.25545236010129        0.82153277053618
H            1.45739910609758        0.17065884259856        1.15074809445312
H            1.51963130356146       -4.21850493592725        1.02656100041990
H           -0.68940091361338       -5.26312102124789        1.32183231288022
H           -2.74717281318176       -3.94112238858056        0.93766695959724
H           -6.16659277609457       -3.18110078325285       -1.25821059303715
H           -8.49923128175449       -3.31587701028531       -2.11611829733461
H           -9.89160412504274       -1.27558821519263       -2.14671601757536
H           -9.02531345191719        0.83059156908530       -1.33781477464872
H           -8.32861700119743        2.46939569351667       -0.53849922658218
H           -7.44627661066797        4.52402715114243        0.39077422470295
H           -5.13100758338488        4.60999496756564        1.26457139507496
H           -3.71523628722575        2.62101289572891        1.15146821789720
H           -2.07919758393314       -0.15616534901501        2.86340354150216
H           -0.31434754381414        1.33182006248112        3.74555945402499
H            0.63902523447044        3.10050845453206        2.31211180056086
H           -0.17455214070251        3.38471723309502       -0.00057738792421
H           -1.94408063277652        1.89911622664215       -0.87827361675767
H           -0.35637444976221       -0.57532560329269       -0.14849586594114
H            2.93843233731172       -3.36983200663389       -0.72496362946816
H            5.10599189713470       -2.28349994433246       -1.06709404476075
H            7.57733509771704        1.88796850073401        0.54744574637243
H            7.69308746996743        4.29193260628978        0.04652491403970

          :  Hamiltonian                  GFN2-xTB          :
         :: gradient norm              0.000034777583 Eh/a0 ::
         :: HOMO-LUMO gap              2.406077877914 eV    ::
         :: SCC energy              -123.324551244309 Eh    ::
         :: -> dispersion             -0.113120362911 Eh    ::
         :: -> Gsolv                  -0.050124755081 Eh    ::
         :: repulsion energy           2.286197440309 Eh    ::

    * Orbital Energies and Occupations

         #    Occupation            Energy/Eh            Energy/eV
      -------------------------------------------------------------
         1        2.0000           -0.6880839             -18.7237
       ...           ...                  ...                  ...
       101        2.0000           -0.4123086             -11.2195
       102        2.0000           -0.4092730             -11.1369
       103        2.0000           -0.4087477             -11.1226
       104        2.0000           -0.4080748             -11.1043
       105        2.0000           -0.4054825             -11.0337
       106        2.0000           -0.4051668             -11.0251
       107        2.0000           -0.4048474             -11.0165
       108        2.0000           -0.3996596             -10.8753
       109        2.0000           -0.3932539             -10.7010
       110        2.0000           -0.3830845             -10.4243
       111        2.0000           -0.3794816             -10.3262
       112        2.0000           -0.3651191              -9.9354
       113        2.0000           -0.3494567              -9.5092 (HOMO)
       114                         -0.2610350              -7.1031 (LUMO)
       115                         -0.2511000              -6.8328
       116                         -0.2481089              -6.7514
       117                         -0.2410204              -6.5585
       118                         -0.2410081              -6.5582
       119                         -0.2400205              -6.5313
       120                         -0.2310279              -6.2866
       121                         -0.2279015              -6.2015
       122                         -0.2224124              -6.0521
       123                         -0.2221686              -6.0455
       124                         -0.2154525              -5.8628
       ...                                ...                  ...
       223                          0.7248839              19.7251
      -------------------------------------------------------------
                  HL-Gap            0.0884217 Eh            2.4061 eV

     #   Z          covCN         q      C6AA      α(0)
     1   6 C        2.919    -0.039    28.974     8.827
     2   6 C        2.919    -0.030    28.755     8.794
     3   6 C        2.922    -0.048    29.188     8.860
     4   6 C        2.924     0.065    26.537     8.448
     5   7 N        2.752    -0.078    22.750     7.084
     6   6 C        2.924     0.065    26.538     8.448
     7   6 C        2.922    -0.047    29.179     8.858
     8   6 C        2.919    -0.030    28.751     8.793
     9   6 C        2.919    -0.039    28.966     8.826
    10   6 C        2.919    -0.030    28.752     8.793
    11   6 C        2.922    -0.048    29.182     8.859
    12   6 C        2.923     0.065    26.552     8.450
    13   6 C        2.920    -0.049    29.228     8.866
    14   6 C        2.924    -0.035    28.875     8.812
    15   6 C        2.976    -0.001    28.044     8.687
    16   6 C        2.975     0.011    27.766     8.643
    17   6 C        2.924    -0.035    28.872     8.812
    18   6 C        2.916    -0.029    28.730     8.789
    19   6 C        2.927    -0.032    28.806     8.802
    20   6 C        2.972    -0.003    28.087     8.693
    21   6 C        3.190     0.137    24.576     8.087
    22   7 N        1.895    -0.319    29.131     8.002
    23   6 C        3.204     0.060    26.093     8.321
    24   6 C        2.985    -0.003    28.099     8.695
    25   6 C        2.921    -0.033    28.835     8.806
    26   6 C        2.917    -0.032    28.796     8.800
    27   6 C        2.917    -0.034    28.857     8.809
    28   6 C        2.921    -0.037    28.910     8.817
    29   6 C        2.979    -0.005    28.143     8.702
    30   6 C        2.979    -0.002    28.063     8.690
    31   6 C        2.922    -0.035    28.875     8.812
    32   6 C        2.916    -0.034    28.852     8.808
    33   6 C        2.917    -0.033    28.813     8.802
    34   6 C        2.919    -0.041    29.031     8.836
    35   6 C        2.978    -0.005    28.151     8.703
    36   6 C        3.074     0.022    27.436     8.588
    37   7 N        2.840    -0.056    22.318     7.016
    38   6 C        2.912     0.068    26.480     8.438
    39   6 C        2.921    -0.037    28.932     8.821
    40   6 C        2.920    -0.025    28.618     8.773
    41   6 C        2.919    -0.028    28.694     8.784
    42   6 C        2.919    -0.025    28.636     8.775
    43   6 C        2.921    -0.036    28.903     8.816
    44   6 C        2.929    -0.043    29.057     8.840
    45   6 C        2.923    -0.034    28.853     8.809
    46   6 C        2.920    -0.049    29.227     8.865
    47   6 C        2.922    -0.048    29.183     8.859
    48   6 C        2.919    -0.030    28.751     8.793
    49   1 H        0.926     0.032     2.557     2.501
    50   1 H        0.926     0.033     2.539     2.492
    51   1 H        0.926     0.032     2.562     2.503
    52   1 H        0.926     0.032     2.565     2.504
    53   1 H        0.926     0.033     2.537     2.491
    54   1 H        0.926     0.032     2.555     2.500
    55   1 H        0.926     0.034     2.533     2.489
    56   1 H        0.926     0.032     2.551     2.498
    57   1 H        0.926     0.034     2.534     2.489
    58   1 H        0.926     0.032     2.558     2.501
    59   1 H        0.926     0.040     2.445     2.445
    60   1 H        0.926     0.039     2.456     2.451
    61   1 H        0.926     0.043     2.405     2.425
    62   1 H        0.926     0.043     2.411     2.428
    63   1 H        0.926     0.032     2.554     2.499
    64   1 H        0.926     0.032     2.560     2.502
    65   1 H        0.926     0.035     2.523     2.484
    66   1 H        0.926     0.037     2.491     2.468
    67   1 H        0.926     0.033     2.550     2.497
    68   1 H        0.926     0.032     2.562     2.503
    69   1 H        0.926     0.029     2.601     2.522
    70   1 H        0.926     0.038     2.479     2.462
    71   1 H        0.926     0.047     2.357     2.401
    72   1 H        0.926     0.048     2.349     2.397
    73   1 H        0.926     0.048     2.347     2.396
    74   1 H        0.926     0.041     2.436     2.441
    75   1 H        0.926     0.030     2.591     2.517
    76   1 H        0.926     0.036     2.496     2.471
    77   1 H        0.926     0.033     2.537     2.491
    78   1 H        0.926     0.032     2.565     2.504
    79   1 H        0.926     0.033     2.538     2.491

molecular dipole:
                 x           y           z       tot (Debye)
 q only:        1.408       0.829       0.509
   full:        1.423       1.166       0.595       4.914

 projected vibrational frequencies (cm⁻¹)
eigval :       -0.00    -0.00    -0.00     0.00     0.00     0.00
eigval :       -4.43    10.24    15.19    22.19    31.05    35.03
eigval :       37.99    49.65    51.48    55.98    65.43    71.13
eigval :       77.18    78.87    86.33    93.92   100.58   131.63
eigval :      148.50   162.88   194.81   198.95   207.43   214.02
eigval :      231.50   236.01   238.28   256.31   266.67   278.80
eigval :      302.31   310.59   330.12   337.78   369.27   376.61
eigval :      377.25   378.02   382.73   391.81   394.33   397.71
eigval :      402.75   417.44   437.19   438.95   442.20   474.19
eigval :      477.70   485.21   491.98   511.74   516.43   520.57
eigval :      534.11   568.91   581.74   584.00   585.40   590.98
eigval :      593.27   595.37   612.90   634.83   638.41   647.18
eigval :      654.97   659.68   663.86   664.94   671.36   679.11
eigval :      685.58   688.49   693.43   701.99   724.78   733.61
eigval :      755.25   757.47   761.04   764.57   774.09   780.70
eigval :      791.86   816.30   826.22   857.93   863.90   872.70
eigval :      872.84   874.52   875.45   878.49   890.59   891.82
eigval :      896.35   903.22   905.67   909.39   913.20   913.94
eigval :      916.92   924.15   924.23   924.76   927.32   927.67
eigval :      928.04   928.72   931.42   931.96   935.11   938.80
eigval :      953.98   975.56   985.92  1004.02  1010.37  1016.83
eigval :     1028.54  1067.95  1077.38  1081.73  1082.93  1084.62
eigval :     1092.69  1106.94  1114.07  1120.03  1122.97  1124.04
eigval :     1133.50  1142.04  1151.83  1171.69  1177.42  1177.62
eigval :     1179.21  1180.59  1183.55  1185.11  1185.36  1187.36
eigval :     1194.46  1196.66  1207.93  1214.96  1251.88  1255.23
eigval :     1260.49  1271.14  1273.60  1276.21  1277.56  1281.68
eigval :     1283.10  1305.81  1308.78  1309.73  1314.35  1320.93
eigval :     1323.63  1324.53  1326.07  1334.61  1337.23  1348.12
eigval :     1372.33  1398.21  1407.36  1416.60  1418.79  1429.21
eigval :     1431.04  1434.44  1435.93  1440.75  1455.92  1469.84
eigval :     1472.83  1475.95  1495.65  1509.07  1512.81  1540.92
eigval :     1554.72  1559.73  1566.00  1571.12  1575.71  1579.40
eigval :     1580.69  1585.38  1590.53  1591.23  1593.16  1594.84
eigval :     1600.87  1603.26  3069.06  3070.46  3071.05  3071.69
eigval :     3072.15  3073.33  3074.63  3076.03  3077.98  3079.53
eigval :     3080.06  3081.17  3081.71  3081.79  3083.51  3083.57
eigval :     3084.53  3086.67  3087.37  3087.78  3090.31  3092.63
eigval :     3092.80  3093.54  3095.56  3097.92  3100.79  3101.35
eigval :     3102.83  3108.73  3117.61

   temp. (K)  partition function   enthalpy   heat capacity  entropy
                                   cal/mol     cal/K/mol   cal/K/mol   J/K/mol
 298.15  VIB  0.107E+19            22087.459    139.818    139.107
         ROT  0.893E+08              888.752      2.981     39.362
         INT  0.952E+26            22976.212    142.799    178.469
         TR   0.147E+29             1481.254      4.968     45.106
         TOT                       24457.4656   147.7675   223.5748   935.4369

       T/K    H(0)-H(T)+PV         H(T)/Eh          T*S/Eh         G(T)/Eh
   ------------------------------------------------------------------------
    298.15    0.389755E-01    0.650276E+00    0.106228E+00    0.544048E+00
   ------------------------------------------------------------------------

         :::::::::::::::::::::::::::::::::::::::::::::::::::::
         ::                  THERMODYNAMIC                  ::
         :::::::::::::::::::::::::::::::::::::::::::::::::::::
         :: total free energy        -120.494305651155 Eh   ::
         ::.................................................::
         :: total energy             -121.038353802940 Eh   ::
         :: zero point energy           0.611300289340 Eh   ::
         :: G(RRHO) w/o ZPVE           -0.067252137555 Eh   ::
         :: G(RRHO) contrib.            0.544048151785 Eh   ::
         :::::::::::::::::::::::::::::::::::::::::::::::::::::

           -------------------------------------------------
          | TOTAL ENERGY             -121.038353802940 Eh   |
          | TOTAL ENTHALPY           -120.388078061257 Eh   |
          | TOTAL FREE ENERGY        -120.494305651155 Eh   |
          | GRADIENT NORM               0.000034775333 Eh/α |
          | HOMO-LUMO GAP               2.406078247846 eV   |
           -------------------------------------------------

 * finished run on 2025/09/10 at 12:08:15.921
