   * xtb version 6.7.1 (edcfbbe) compiled by 'albert@albert-system' on 2024-07-22

   ID    Z sym.   atoms
    1    6 C      1-4, 6-21, 23-36, 38-48
    2    7 N      5, 22, 37
    3    1 H      49-79

          program call               : xtb data2507/toluene/mTPA-PPI/mTPA-PPI_toluene_S0_finalOpt.xtbopt.xyz --gfn 2 --uhf 2 --gbsa toluene --ohess vtight --parallel 40 --molden --ceasefiles --namespace data2507/toluene/mTPA-PPI/mTPA-PPI_toluene_T1_preOpt
      * Solvation model:               GBSA
        Solvent                        toluene
        Solvent mass                       9.2140E+01 g/mol
          :  Hamiltonian                  GFN2-xTB          :
 * total energy  :  -120.9369149 Eh     change       -0.1329860E-07 Eh
 * total energy  :  -120.9410865 Eh     change       -0.4171531E-02 Eh
 * total energy  :  -120.9432006 Eh     change       -0.2114087E-02 Eh
 * total energy  :  -120.9436680 Eh     change       -0.4673922E-03 Eh
 * total energy  :  -120.9442101 Eh     change       -0.5421420E-03 Eh
 * total energy  :  -120.9444770 Eh     change       -0.2668589E-03 Eh
 * total energy  :  -120.9447089 Eh     change       -0.2319547E-03 Eh
 * total energy  :  -120.9448653 Eh     change       -0.1564027E-03 Eh
 * total energy  :  -120.9449688 Eh     change       -0.1034981E-03 Eh
 * total energy  :  -120.9450462 Eh     change       -0.7738140E-04 Eh
 * total energy  :  -120.9456399 Eh     change       -0.2348308E-05 Eh
 * total energy  :  -120.9456424 Eh     change       -0.2450015E-05 Eh
 * total energy  :  -120.9456448 Eh     change       -0.2432473E-05 Eh
 * total energy  :  -120.9456472 Eh     change       -0.2375499E-05 Eh
 * total energy  :  -120.9456495 Eh     change       -0.2356639E-05 Eh
 * total energy  :  -120.9456519 Eh     change       -0.2402683E-05 Eh
 * total energy  :  -120.9456545 Eh     change       -0.2621019E-05 Eh
 * total energy  :  -120.9456575 Eh     change       -0.2942052E-05 Eh
 * total energy  :  -120.9456575 Eh     change       -0.5779526E-08 Eh
   *** GEOMETRY OPTIMIZATION CONVERGED AFTER 94 ITERATIONS ***

 final structure:
================
79
 xtb: 6.7.1 (edcfbbe)
C            5.97579432599321        4.34159825683791       -0.74870028853026
C            4.93918619652955        3.61957950338077       -1.31956523201286
C            4.87362776110779        2.24836380286323       -1.16639063701084
C            5.85015201067042        1.57718736584291       -0.42781288975471
N            5.78936091997161        0.18810612472984       -0.26833403650843
C            6.96928690741737       -0.56517688332650       -0.26783917982709
C            8.02208573023397       -0.23000928333746       -1.12086251061402
C            9.18626359804386       -0.97346831620972       -1.11190523974660
C            9.31808058239344       -2.06096520501239       -0.26236549620790
C            8.27400770100928       -2.39975026835672        0.58432020689467
C            7.10760409679490       -1.65967967235826        0.58744511498116
C            4.55509949968141       -0.44362010682248       -0.11913016869957
C            3.51735172678805        0.17935506480914        0.58102661118300
C            2.29231127041327       -0.43525582013725        0.70681291741167
C            2.05343032157117       -1.69567766572455        0.15110181143497
C            0.73845662615520       -2.32930619907535        0.27342744183766
C            0.62445179814315       -3.72314409082725        0.44253135507242
C           -0.63682542709533       -4.31040268903881        0.50998204827671
C           -1.77323824067153       -3.54917325992079        0.43842960106880
C           -1.69277131280772       -2.12772054250632        0.31142029153654
C           -2.89857241988274       -1.40873188891664        0.24045345452581
N           -4.07770638152070       -2.01226489743173       -0.01188150820410
C           -4.98284632827986       -1.05591520706038       -0.13576944063169
C           -6.36341131374233       -1.20626288672395       -0.46262725417992
C           -6.89552353985314       -2.46454624595405       -0.74795680906115
C           -8.22481781863562       -2.60143854920806       -1.09695828658958
C           -9.02293707311727       -1.46887859743326       -1.16850283118941
C           -8.50657569174524       -0.21797228519625       -0.88257230987832
C           -7.16637213073422       -0.04143992269431       -0.51280332171941
C           -6.60140506197141        1.25315639491203       -0.17454694647440
C           -7.38835985311043        2.40298796598067       -0.12517215364134
C           -6.87929150759252        3.63779742138026        0.22595317279834
C           -5.52875479615105        3.76238801603958        0.56828591030970
C           -4.71311343000859        2.66705951553919        0.53025965886510
C           -5.20014628134388        1.38972872219034        0.14644032268168
C           -4.40942617892713        0.23911798480649        0.09437807148694
N           -3.07159902580818       -0.00316208612222        0.32786951269378
C           -2.07821002151783        0.90822408425192        0.71233987842832
C           -1.46741974575073        0.78320193088495        1.96124173064010
C           -0.47089893081860        1.66552458250896        2.33179184893991
C           -0.07050350476403        2.67447039023500        1.46776517602875
C           -0.67492632982660        2.79912232989119        0.22509912573613
C           -1.67414853750457        1.92463242839079       -0.15607863844664
C           -0.40367685018615       -1.55623359525598        0.21181475056145
C            3.10158667011101       -2.32076459526280       -0.52966179925672
C            4.32752943715851       -1.70851601230236       -0.66924145357740
C            6.89004374032718        2.30931925760813        0.14798659824964
C            6.94967054895234        3.67947998287202       -0.01730966488853
H            6.02484667480404        5.41269861906972       -0.87384579606268
H            4.18008444316108        4.12645929717991       -1.89695394259560
H            4.07314208855349        1.68628997341842       -1.62451964612756
H            7.91528443507120        0.60857707938759       -1.79308686135524
H            9.99295717259846       -0.70706009459013       -1.77883928185468
H           10.22882321497956       -2.64043074473690       -0.25970331990622
H            8.37179646365273       -3.24157270161631        1.25381677678796
H            6.29948722570156       -1.91607596999422        1.25667623723775
H            3.68760820180469        1.14423775831257        1.03525417973873
H            1.50941385458239        0.05452099354795        1.26610722825585
H            1.51117102942055       -4.33080874593585        0.53200171465122
H           -0.71622021400317       -5.38258738430211        0.62329032215828
H           -2.75455181715518       -3.99261998049535        0.48841436839689
H           -6.23582486458468       -3.31698170400542       -0.69190787006506
H           -8.63568358811764       -3.57531307802892       -1.31719096566452
H          -10.06231909788548       -1.56019290087238       -1.45023560293202
H           -9.16814209486239        0.63028340918611       -0.95643999127460
H           -8.43974109330772        2.34149664089655       -0.35760687648233
H           -7.52599992504045        4.50202032130905        0.24955048971877
H           -5.13378737574320        4.72221954632281        0.86826943432175
H           -3.67903290029644        2.76550288145270        0.81619188417680
H           -1.78195792330222       -0.00859112611549        2.62554955775297
H           -0.00648255267377        1.56725240649596        3.30228610823352
H            0.71125818154223        3.35896179876842        1.75994550648002
H           -0.36233108427008        3.57943539077922       -0.45294281142752
H           -2.14679456060450        2.01105569789574       -1.12413846135747
H           -0.30510340453949       -0.50216876731521        0.01167663573523
H            2.93795106521734       -3.28424006292532       -0.98854263720515
H            5.11569617167898       -2.19650453064251       -1.22363955019649
H            7.64210762793830        1.79722419336514        0.72989835110558
H            7.75729230802162        4.23524641066445        0.43577312413057

          :  Hamiltonian                  GFN2-xTB          :
         :: gradient norm              0.000061716573 Eh/a0 ::
         :: HOMO-LUMO gap              0.454502421290 eV    ::
         :: SCC energy              -123.211720438435 Eh    ::
         :: -> dispersion             -0.113142860985 Eh    ::
         :: -> Gsolv                  -0.052030211514 Eh    ::
         :: repulsion energy           2.266062944328 Eh    ::

    * Orbital Energies and Occupations

         #    Occupation            Energy/Eh            Energy/eV
      -------------------------------------------------------------
         1        2.0000           -0.6777533             -18.4426
       ...           ...                  ...                  ...
       102        2.0000           -0.4130447             -11.2395
       103        2.0000           -0.4121914             -11.2163
       104        2.0000           -0.4111217             -11.1872
       105        2.0000           -0.4106966             -11.1756
       106        2.0000           -0.4044803             -11.0065
       107        2.0000           -0.3965572             -10.7909
       108        2.0000           -0.3937378             -10.7142
       109        2.0000           -0.3907524             -10.6329
       110        2.0000           -0.3797871             -10.3345
       111        2.0000           -0.3748589             -10.2004
       112        1.8844           -0.3579906              -9.7414
       113        1.1156           -0.3541238              -9.6362
       114        0.9998           -0.2670874              -7.2678 (HOMO)
       115        0.0001           -0.2503847              -6.8133 (LUMO)
       116        0.0000           -0.2475178              -6.7353
       117                         -0.2412819              -6.5656
       118                         -0.2389625              -6.5025
       119                         -0.2342673              -6.3747
       120                         -0.2319870              -6.3127
       121                         -0.2313303              -6.2948
       122                         -0.2292059              -6.2370
       123                         -0.2271867              -6.1821
       124                         -0.2146665              -5.8414
       125                         -0.2057784              -5.5995
       ...                                ...                  ...
       223                          0.7320897              19.9212
      -------------------------------------------------------------
                  HL-Gap            0.0167027 Eh            0.4545 eV

     #   Z          covCN         q      C6AA      α(0)
     1   6 C        2.919    -0.033    28.834     8.806
     2   6 C        2.919    -0.027    28.683     8.782
     3   6 C        2.921    -0.043    29.079     8.843
     4   6 C        2.925     0.064    26.558     8.451
     5   7 N        2.752    -0.050    22.206     6.999
     6   6 C        2.925     0.064    26.561     8.452
     7   6 C        2.921    -0.044    29.082     8.844
     8   6 C        2.919    -0.027    28.684     8.783
     9   6 C        2.919    -0.033    28.830     8.805
    10   6 C        2.919    -0.027    28.682     8.782
    11   6 C        2.921    -0.043    29.077     8.843
    12   6 C        2.924     0.062    26.603     8.458
    13   6 C        2.919    -0.045    29.114     8.848
    14   6 C        2.923    -0.033    28.832     8.806
    15   6 C        2.976     0.008    27.847     8.656
    16   6 C        2.970     0.006    27.876     8.660
    17   6 C        2.921    -0.046    29.144     8.853
    18   6 C        2.909    -0.032    28.806     8.801
    19   6 C        2.925    -0.037    28.929     8.820
    20   6 C        2.966    -0.013    28.335     8.731
    21   6 C        3.131     0.126    25.045     8.193
    22   7 N        1.876    -0.322    29.190     8.009
    23   6 C        3.162     0.083    25.829     8.307
    24   6 C        2.983    -0.008    28.211     8.712
    25   6 C        2.923    -0.030    28.756     8.794
    26   6 C        2.915    -0.036    28.888     8.814
    27   6 C        2.917    -0.030    28.738     8.791
    28   6 C        2.922    -0.039    28.974     8.827
    29   6 C        2.976    -0.002    28.073     8.691
    30   6 C        2.975    -0.009    28.239     8.717
    31   6 C        2.918    -0.034    28.850     8.808
    32   6 C        2.915    -0.039    28.979     8.827
    33   6 C        2.912    -0.035    28.879     8.812
    34   6 C        2.916    -0.041    29.011     8.832
    35   6 C        2.971    -0.019    28.490     8.755
    36   6 C        3.025     0.038    27.120     8.542
    37   7 N        2.809    -0.083    22.846     7.099
    38   6 C        2.908     0.066    26.528     8.445
    39   6 C        2.920    -0.041    29.029     8.835
    40   6 C        2.918    -0.028    28.708     8.786
    41   6 C        2.919    -0.036    28.898     8.815
    42   6 C        2.918    -0.029    28.737     8.791
    43   6 C        2.920    -0.042    29.038     8.837
    44   6 C        2.923    -0.051    29.261     8.871
    45   6 C        2.923    -0.033    28.812     8.802
    46   6 C        2.919    -0.045    29.127     8.850
    47   6 C        2.921    -0.044    29.086     8.844
    48   6 C        2.919    -0.027    28.686     8.783
    49   1 H        0.926     0.039     2.465     2.455
    50   1 H        0.926     0.040     2.454     2.450
    51   1 H        0.926     0.038     2.472     2.459
    52   1 H        0.926     0.039     2.460     2.453
    53   1 H        0.926     0.040     2.443     2.444
    54   1 H        0.926     0.039     2.462     2.454
    55   1 H        0.926     0.040     2.445     2.445
    56   1 H        0.926     0.039     2.459     2.452
    57   1 H        0.926     0.040     2.453     2.449
    58   1 H        0.926     0.038     2.475     2.460
    59   1 H        0.926     0.031     2.566     2.505
    60   1 H        0.926     0.030     2.588     2.515
    61   1 H        0.926     0.041     2.435     2.440
    62   1 H        0.926     0.044     2.401     2.423
    63   1 H        0.926     0.033     2.539     2.492
    64   1 H        0.926     0.034     2.527     2.486
    65   1 H        0.926     0.034     2.526     2.486
    66   1 H        0.926     0.033     2.546     2.495
    67   1 H        0.926     0.028     2.615     2.529
    68   1 H        0.926     0.027     2.632     2.537
    69   1 H        0.926     0.027     2.623     2.533
    70   1 H        0.926     0.030     2.588     2.516
    71   1 H        0.926     0.038     2.470     2.457
    72   1 H        0.926     0.039     2.459     2.452
    73   1 H        0.926     0.039     2.458     2.451
    74   1 H        0.926     0.034     2.537     2.491
    75   1 H        0.926     0.024     2.674     2.557
    76   1 H        0.926     0.042     2.424     2.435
    77   1 H        0.926     0.040     2.446     2.446
    78   1 H        0.926     0.039     2.456     2.451
    79   1 H        0.926     0.040     2.442     2.444

molecular dipole:
                 x           y           z       tot (Debye)
 q only:        3.894       0.888      -0.075
   full:        3.846       1.251      -0.031      10.279

 projected vibrational frequencies (cm⁻¹)
eigval :       -0.00    -0.00     0.00     0.00     0.00     0.00
eigval :       -7.07    11.58    14.61    19.44    35.18    37.41
eigval :       41.42    46.71    53.16    57.91    63.19    71.11
eigval :       75.58    82.54    91.16   101.25   106.34   129.72
eigval :      148.55   157.20   192.76   195.79   206.29   214.84
eigval :      223.48   231.09   236.07   252.29   257.38   279.28
eigval :      302.04   310.35   315.34   328.58   364.72   374.19
eigval :      375.63   376.69   380.40   388.26   389.37   395.69
eigval :      396.96   406.71   413.56   418.90   435.54   455.22
eigval :      473.05   480.55   483.18   495.58   509.03   516.44
eigval :      519.24   539.05   579.52   580.07   582.02   586.40
eigval :      592.37   592.88   599.26   613.59   621.37   630.36
eigval :      635.53   642.54   654.00   658.25   659.58   660.58
eigval :      665.49   684.18   687.50   692.54   717.19   720.78
eigval :      745.11   746.85   753.69   755.17   758.17   765.29
eigval :      766.67   814.51   823.10   835.19   841.99   847.38
eigval :      854.64   863.97   866.87   869.94   871.53   886.61
eigval :      889.06   895.77   896.40   903.90   908.95   909.26
eigval :      910.93   912.38   914.16   914.86   917.23   921.70
eigval :      923.91   924.52   926.59   928.44   930.35   931.92
eigval :      935.12   954.76   978.98   982.33   992.46  1002.33
eigval :     1014.24  1044.66  1073.83  1075.12  1078.97  1080.31
eigval :     1081.21  1086.86  1096.57  1113.75  1120.06  1120.56
eigval :     1122.54  1130.44  1143.61  1151.30  1170.86  1174.28
eigval :     1175.26  1177.12  1177.53  1178.64  1180.18  1182.26
eigval :     1191.51  1191.96  1193.75  1206.51  1212.96  1237.90
eigval :     1242.32  1256.28  1266.33  1268.04  1271.25  1273.08
eigval :     1275.15  1276.27  1284.48  1300.85  1312.03  1313.77
eigval :     1314.15  1321.67  1323.64  1325.85  1336.33  1347.15
eigval :     1347.46  1353.34  1376.82  1391.25  1392.76  1411.00
eigval :     1414.92  1426.03  1430.46  1432.17  1436.97  1438.34
eigval :     1461.30  1461.61  1464.82  1467.48  1474.88  1492.19
eigval :     1498.18  1530.12  1535.19  1542.89  1546.26  1547.93
eigval :     1550.49  1565.46  1569.36  1572.56  1575.66  1582.78
eigval :     1584.21  1592.07  3065.44  3069.76  3071.51  3073.37
eigval :     3075.04  3076.50  3077.11  3077.52  3078.27  3080.16
eigval :     3081.90  3082.25  3083.26  3083.89  3085.39  3085.94
eigval :     3086.86  3088.66  3090.00  3091.32  3093.95  3094.06
eigval :     3094.92  3096.71  3097.29  3097.48  3098.35  3104.98
eigval :     3108.60  3118.97  3124.51

   temp. (K)  partition function   enthalpy   heat capacity  entropy
                                   cal/mol     cal/K/mol   cal/K/mol   J/K/mol
 298.15  VIB  0.677E+18            22373.727    142.187    140.064
         ROT  0.888E+08              888.752      2.981     39.352
         INT  0.602E+26            23262.479    145.167    179.416
         TR   0.147E+29             1481.254      4.968     45.106
         TOT                       24743.7330   150.1355   224.5218   939.3994

       T/K    H(0)-H(T)+PV         H(T)/Eh          T*S/Eh         G(T)/Eh
   ------------------------------------------------------------------------
    298.15    0.394316E-01    0.645898E+00    0.106678E+00    0.539220E+00
   ------------------------------------------------------------------------

         :::::::::::::::::::::::::::::::::::::::::::::::::::::
         ::                  THERMODYNAMIC                  ::
         :::::::::::::::::::::::::::::::::::::::::::::::::::::
         :: total free energy        -120.406437114394 Eh   ::
         ::.................................................::
         :: total energy             -120.945657492723 Eh   ::
         :: zero point energy           0.606466298593 Eh   ::
         :: G(RRHO) w/o ZPVE           -0.067245920264 Eh   ::
         :: G(RRHO) contrib.            0.539220378329 Eh   ::
         :::::::::::::::::::::::::::::::::::::::::::::::::::::

           -------------------------------------------------
          | TOTAL ENERGY             -120.945657492723 Eh   |
          | TOTAL ENTHALPY           -120.299759545624 Eh   |
          | TOTAL FREE ENERGY        -120.406437114394 Eh   |
          | GRADIENT NORM               0.000061654804 Eh/α |
          | HOMO-LUMO GAP               0.454504560152 eV   |
           -------------------------------------------------

 * finished run on 2025/09/10 at 12:08:46.308
