   * xtb version 6.7.1 (edcfbbe) compiled by 'albert@albert-system' on 2024-07-22

   ID    Z sym.   atoms
    1    6 C      1-4, 6-21, 23-36, 38-48
    2    7 N      5, 22, 37
    3    1 H      49-79

          program call               : xtb data2507/toluene/mTPA-PPI/mTPA-PPI.xyz --gfn 2 --gbsa toluene --ohess vtight --parallel 40 --molden --ceasefiles --namespace data2507/toluene/mTPA-PPI/mTPA-PPI_toluene_S0_preOpt
      * Solvation model:               GBSA
        Solvent                        toluene
        Solvent mass                       9.2140E+01 g/mol
          :  Hamiltonian                  GFN2-xTB          :
 * total energy  :  -121.0138327 Eh     change       -0.1555790E-08 Eh
 * total energy  :  -121.0267563 Eh     change       -0.1292351E-01 Eh
 * total energy  :  -121.0312631 Eh     change       -0.4506876E-02 Eh
 * total energy  :  -121.0326559 Eh     change       -0.1392775E-02 Eh
 * total energy  :  -121.0333398 Eh     change       -0.6838778E-03 Eh
 * total energy  :  -121.0336132 Eh     change       -0.2734051E-03 Eh
 * total energy  :  -121.0338188 Eh     change       -0.2055596E-03 Eh
 * total energy  :  -121.0340394 Eh     change       -0.2206467E-03 Eh
 * total energy  :  -121.0342673 Eh     change       -0.2278611E-03 Eh
 * total energy  :  -121.0344700 Eh     change       -0.2027558E-03 Eh
 * total energy  :  -121.0368548 Eh     change       -0.4644229E-06 Eh
 * total energy  :  -121.0368552 Eh     change       -0.4715997E-06 Eh
 * total energy  :  -121.0368558 Eh     change       -0.5539002E-06 Eh
 * total energy  :  -121.0368565 Eh     change       -0.6745058E-06 Eh
 * total energy  :  -121.0368573 Eh     change       -0.8292948E-06 Eh
 * total energy  :  -121.0368581 Eh     change       -0.8579446E-06 Eh
 * total energy  :  -121.0368589 Eh     change       -0.7103997E-06 Eh
 * total energy  :  -121.0368595 Eh     change       -0.6415271E-06 Eh
 * total energy  :  -121.0368595 Eh     change       -0.5392081E-08 Eh
   *** GEOMETRY OPTIMIZATION CONVERGED AFTER 122 ITERATIONS ***

 final structure:
================
79
 xtb: 6.7.1 (edcfbbe)
C            7.53887062956568       -1.54444085443176       -3.64723293264237
C            6.72736858916633       -2.27392398799773       -2.79325501212753
C            6.20709286491938       -1.69167757887043       -1.65342934592642
C            6.48638549392828       -0.35786305746100       -1.35431273390269
N            5.96217438581873        0.23533718176065       -0.19951802957925
C            6.72753227210198        1.15900354478636        0.52363885283204
C            8.10253752705307        0.97736954462075        0.67304706264377
C            8.85373633666612        1.89694019738361        1.37962296310241
C            8.24975123430795        3.00307387459757        1.95570721321382
C            6.88310520471071        3.18473241307820        1.81607547900878
C            6.12483897831940        2.27553253701201        1.10368604314794
C            4.67148675459269       -0.08910658386987        0.23073649293701
C            3.64456596262932       -0.29591611728564       -0.69129136702472
C            2.37272478256482       -0.61248535305154       -0.26207807225492
C            2.08292320170818       -0.73970255162324        1.09545066556185
C            0.72709607259275       -1.08343043158261        1.54816711178897
C            0.53040085142476       -2.00892634944519        2.57271672967945
C           -0.74722272760441       -2.32203160349843        2.99844272592048
C           -1.85050523898526       -1.72851573881343        2.41196349551396
C           -1.67440714106377       -0.81234065600540        1.37695574727768
C           -2.79047525737704       -0.12919082462181        0.73721587434192
N           -2.75216532113746        1.13558580323695        0.39629279199346
C           -3.96933664730847        1.41334427996915       -0.14392187292109
C           -4.44668331397377        2.66674690000285       -0.61985279377960
C           -3.64975820843268        3.81586512858682       -0.56597467164415
C           -4.14329061811602        5.02393425497836       -0.99184296962906
C           -5.44822407545708        5.09723350900938       -1.47619063637608
C           -6.23809908481417        3.97293597589390       -1.54066973076577
C           -5.76679044499486        2.71780586046445       -1.12423476549623
C           -6.56464641567754        1.50624648482557       -1.21076549572552
C           -7.84439537018085        1.50819363811662       -1.78490193880952
C           -8.59128303646978        0.36027371001475       -1.90844837674511
C           -8.07679831837065       -0.85742423286358       -1.47376805774335
C           -6.83003402129375       -0.90191070538470       -0.89974295282176
C           -6.06370086830974        0.26159848289987       -0.73782823163079
C           -4.76746432019499        0.27110301900691       -0.14862485422778
N           -3.99921414111679       -0.71322872451861        0.43404085084230
C           -4.33111764625643       -2.06114569975118        0.69251688947804
C           -3.62104299356880       -3.07642631709717        0.06330336985139
C           -3.92265344133670       -4.39784616703672        0.34261813719972
C           -4.92693427675024       -4.70823801725825        1.24447301498403
C           -5.63347544543322       -3.69427625481530        1.87215588231137
C           -5.33779588798869       -2.37033647558370        1.60273370331882
C           -0.38493488898189       -0.49194629205526        0.96049864346369
C            3.11255708836486       -0.53427626911200        2.01220587488235
C            4.38561391049706       -0.21127016292268        1.59121503392062
C            7.29825198310015        0.37384390957758       -2.22138229489567
C            7.82182338209866       -0.22010774145380       -3.35364742606904
H            7.94751115798970       -2.00390549629384       -4.53476238600691
H            6.50460990679133       -3.30860648072445       -3.01065453417002
H            5.58318945622413       -2.26681585169028       -0.98479348748437
H            8.57489000601223        0.11130064524731        0.23238292444516
H            9.91771437989753        1.74344579143315        1.48836439160031
H            8.83977247255228        3.71812001337361        2.50923412189365
H            6.40378143758854        4.04661665035015        2.25746468149086
H            5.06114996732875        2.42534402604482        0.98753106575388
H            3.85226523835919       -0.20260908776399       -1.74741778302320
H            1.59202121495285       -0.77441258200063       -0.99086511605146
H            1.38328627794418       -2.49093354449921        3.02718392932611
H           -0.88837896376246       -3.03346836235901        3.79907195785658
H           -2.84008658795242       -1.96177120796671        2.77372148020432
H           -2.64880166922049        3.71782624736595       -0.17378719149529
H           -3.53119511810923        5.91299080181076       -0.94880078009778
H           -5.84477427979913        6.04752459305819       -1.80398792832783
H           -7.24221565112165        4.07907660687300       -1.91944489062913
H           -8.26414980595899        2.42988557962135       -2.15405177243105
H           -9.57348025131735        0.40261057957191       -2.35611856093500
H           -8.65156904551987       -1.76439814527530       -1.59055240188260
H           -6.42665068122846       -1.84952646256264       -0.58055477806252
H           -2.83857135250982       -2.82331817701669       -0.63690889153334
H           -3.37102331723565       -5.18531859745914       -0.14817369157292
H           -5.15969907771369       -5.74013816613826        1.45944654779383
H           -6.41527931155503       -3.93279467888717        2.57753782109144
H           -5.88087028762523       -1.57161359037021        2.08758237568025
H           -0.26423091602161        0.24495353870133        0.18088727424853
H            2.90861290909128       -0.61463631298211        3.06989064139652
H            5.17170484688311       -0.05249854391166        2.31512285601087
H            7.51334210023655        1.40941000705669       -2.00088181385081
H            8.44873458984010        0.35894470595329       -4.01622814767906

          :  Hamiltonian                  GFN2-xTB          :
         :: gradient norm              0.000062298892 Eh/a0 ::
         :: HOMO-LUMO gap              2.379599530218 eV    ::
         :: SCC energy              -123.323336563925 Eh    ::
         :: -> dispersion             -0.110634208827 Eh    ::
         :: -> Gsolv                  -0.051167918711 Eh    ::
         :: repulsion energy           2.286477056902 Eh    ::

    * Orbital Energies and Occupations

         #    Occupation            Energy/Eh            Energy/eV
      -------------------------------------------------------------
         1        2.0000           -0.6884068             -18.7325
       ...           ...                  ...                  ...
       101        2.0000           -0.4135065             -11.2521
       102        2.0000           -0.4087219             -11.1219
       103        2.0000           -0.4077166             -11.0945
       104        2.0000           -0.4068507             -11.0710
       105        2.0000           -0.4063609             -11.0576
       106        2.0000           -0.4035627             -10.9815
       107        2.0000           -0.4034536             -10.9785
       108        2.0000           -0.3988215             -10.8525
       109        2.0000           -0.3927096             -10.6862
       110        2.0000           -0.3830609             -10.4236
       111        2.0000           -0.3796782             -10.3316
       112        2.0000           -0.3654131              -9.9434
       113        2.0000           -0.3482435              -9.4762 (HOMO)
       114                         -0.2607948              -7.0966 (LUMO)
       115                         -0.2513392              -6.8393
       116                         -0.2474947              -6.7347
       117                         -0.2411612              -6.5623
       118                         -0.2396517              -6.5213
       119                         -0.2372136              -6.4549
       120                         -0.2294623              -6.2440
       121                         -0.2265749              -6.1654
       122                         -0.2212344              -6.0201
       123                         -0.2207710              -6.0075
       124                         -0.2156474              -5.8681
       ...                                ...                  ...
       223                          0.7248606              19.7245
      -------------------------------------------------------------
                  HL-Gap            0.0874487 Eh            2.3796 eV

     #   Z          covCN         q      C6AA      α(0)
     1   6 C        2.919    -0.040    28.985     8.829
     2   6 C        2.919    -0.030    28.758     8.794
     3   6 C        2.922    -0.048    29.203     8.862
     4   6 C        2.923     0.065    26.534     8.447
     5   7 N        2.752    -0.079    22.769     7.087
     6   6 C        2.923     0.065    26.535     8.447
     7   6 C        2.922    -0.048    29.192     8.860
     8   6 C        2.919    -0.030    28.757     8.794
     9   6 C        2.919    -0.039    28.978     8.828
    10   6 C        2.919    -0.030    28.753     8.793
    11   6 C        2.922    -0.048    29.192     8.860
    12   6 C        2.923     0.065    26.548     8.450
    13   6 C        2.920    -0.048    29.195     8.861
    14   6 C        2.924    -0.034    28.840     8.807
    15   6 C        2.976     0.001    27.992     8.679
    16   6 C        2.975     0.014    27.706     8.634
    17   6 C        2.924    -0.035    28.871     8.811
    18   6 C        2.917    -0.030    28.756     8.794
    19   6 C        2.922    -0.039    28.959     8.825
    20   6 C        2.973    -0.002    28.074     8.691
    21   6 C        3.193     0.137    24.543     8.078
    22   7 N        1.894    -0.320    29.136     8.002
    23   6 C        3.206     0.060    26.080     8.317
    24   6 C        2.985    -0.003    28.097     8.695
    25   6 C        2.921    -0.033    28.834     8.806
    26   6 C        2.917    -0.032    28.796     8.800
    27   6 C        2.917    -0.034    28.857     8.809
    28   6 C        2.921    -0.037    28.910     8.817
    29   6 C        2.979    -0.005    28.143     8.702
    30   6 C        2.979    -0.002    28.065     8.690
    31   6 C        2.922    -0.035    28.876     8.812
    32   6 C        2.916    -0.034    28.853     8.808
    33   6 C        2.917    -0.033    28.812     8.802
    34   6 C        2.919    -0.041    29.028     8.835
    35   6 C        2.978    -0.005    28.147     8.703
    36   6 C        3.074     0.022    27.447     8.590
    37   7 N        2.840    -0.055    22.298     7.013
    38   6 C        2.912     0.067    26.504     8.442
    39   6 C        2.921    -0.038    28.943     8.822
    40   6 C        2.920    -0.025    28.627     8.774
    41   6 C        2.919    -0.029    28.714     8.787
    42   6 C        2.920    -0.026    28.657     8.779
    43   6 C        2.921    -0.037    28.917     8.818
    44   6 C        2.934    -0.035    28.860     8.810
    45   6 C        2.924    -0.034    28.846     8.808
    46   6 C        2.920    -0.048    29.201     8.862
    47   6 C        2.922    -0.048    29.196     8.861
    48   6 C        2.919    -0.030    28.757     8.794
    49   1 H        0.926     0.031     2.567     2.505
    50   1 H        0.926     0.033     2.544     2.494
    51   1 H        0.926     0.032     2.565     2.504
    52   1 H        0.926     0.032     2.564     2.504
    53   1 H        0.926     0.033     2.542     2.493
    54   1 H        0.926     0.032     2.562     2.503
    55   1 H        0.926     0.033     2.541     2.493
    56   1 H        0.926     0.032     2.565     2.504
    57   1 H        0.926     0.033     2.539     2.492
    58   1 H        0.926     0.035     2.522     2.483
    59   1 H        0.926     0.041     2.437     2.441
    60   1 H        0.926     0.038     2.474     2.460
    61   1 H        0.926     0.027     2.622     2.532
    62   1 H        0.926     0.043     2.410     2.428
    63   1 H        0.926     0.032     2.555     2.499
    64   1 H        0.926     0.032     2.560     2.502
    65   1 H        0.926     0.035     2.523     2.484
    66   1 H        0.926     0.037     2.491     2.468
    67   1 H        0.926     0.033     2.550     2.497
    68   1 H        0.926     0.032     2.562     2.503
    69   1 H        0.926     0.029     2.598     2.521
    70   1 H        0.926     0.038     2.480     2.463
    71   1 H        0.926     0.047     2.354     2.399
    72   1 H        0.926     0.048     2.347     2.396
    73   1 H        0.926     0.047     2.352     2.398
    74   1 H        0.926     0.041     2.434     2.440
    75   1 H        0.926     0.044     2.400     2.423
    76   1 H        0.926     0.037     2.485     2.465
    77   1 H        0.926     0.034     2.529     2.487
    78   1 H        0.926     0.031     2.568     2.506
    79   1 H        0.926     0.033     2.546     2.495

molecular dipole:
                 x           y           z       tot (Debye)
 q only:        0.073      -1.363       0.285
   full:       -0.230      -1.577       0.243       4.098

 projected vibrational frequencies (cm⁻¹)
eigval :       -0.00    -0.00    -0.00     0.00     0.00     0.00
eigval :        3.14     9.07    15.12    24.64    25.86    34.83
eigval :       41.60    45.15    51.33    59.46    60.90    70.87
eigval :       77.12    83.71    91.14    94.84   102.55   126.93
eigval :      153.30   163.89   186.06   193.29   212.42   215.69
eigval :      232.30   236.47   239.52   256.78   268.08   283.48
eigval :      286.63   310.64   335.63   344.86   357.94   373.50
eigval :      376.26   378.51   379.66   385.90   390.15   397.78
eigval :      402.89   426.93   435.33   440.91   446.82   475.91
eigval :      481.84   486.87   491.43   506.11   516.42   523.47
eigval :      535.50   568.42   581.49   584.03   586.13   590.61
eigval :      594.29   596.57   612.61   633.89   640.65   645.14
eigval :      655.26   658.98   663.61   665.34   676.56   679.16
eigval :      682.12   686.52   693.66   704.63   726.43   734.28
eigval :      753.74   757.29   761.66   765.84   768.97   782.93
eigval :      791.22   818.11   825.65   860.51   868.74   872.37
eigval :      873.95   874.01   876.44   887.26   889.16   892.07
eigval :      895.09   901.81   905.47   909.07   914.28   915.81
eigval :      916.75   921.56   925.27   925.65   926.39   927.96
eigval :      928.11   928.64   929.40   930.54   932.51   938.79
eigval :      953.53   975.31   985.64  1003.58  1010.41  1016.83
eigval :     1028.95  1067.83  1079.08  1081.23  1082.72  1085.18
eigval :     1087.97  1106.75  1115.10  1118.80  1121.97  1131.23
eigval :     1134.17  1141.13  1150.77  1170.53  1178.58  1178.66
eigval :     1178.81  1180.46  1183.60  1184.44  1188.36  1190.41
eigval :     1193.28  1195.49  1207.70  1213.18  1250.79  1254.01
eigval :     1256.93  1268.74  1273.13  1275.78  1277.53  1281.77
eigval :     1283.67  1304.84  1309.44  1311.64  1314.96  1320.43
eigval :     1323.25  1323.93  1326.29  1331.46  1336.85  1345.75
eigval :     1372.49  1401.65  1406.85  1415.53  1424.80  1430.10
eigval :     1431.38  1434.45  1435.19  1440.71  1451.30  1469.90
eigval :     1472.91  1476.77  1494.55  1510.65  1512.96  1540.57
eigval :     1555.62  1559.50  1565.55  1575.28  1578.15  1579.26
eigval :     1582.10  1585.21  1591.35  1591.60  1593.33  1594.32
eigval :     1600.73  1603.36  3070.23  3070.68  3071.05  3071.60
eigval :     3071.97  3072.34  3074.22  3075.21  3076.67  3078.40
eigval :     3079.96  3081.01  3081.75  3082.27  3083.01  3083.73
eigval :     3084.72  3085.68  3086.49  3086.98  3089.20  3092.25
eigval :     3092.63  3093.38  3094.31  3095.59  3097.75  3098.15
eigval :     3101.02  3108.10  3114.80

   temp. (K)  partition function   enthalpy   heat capacity  entropy
                                   cal/mol     cal/K/mol   cal/K/mol   J/K/mol
 298.15  VIB  0.172E+19            22090.524    139.777    139.487
         ROT  0.109E+09              888.752      2.981     39.759
         INT  0.187E+27            22979.277    142.758    179.246
         TR   0.147E+29             1481.254      4.968     45.106
         TOT                       24460.5304   147.7260   224.3517   938.6877

       T/K    H(0)-H(T)+PV         H(T)/Eh          T*S/Eh         G(T)/Eh
   ------------------------------------------------------------------------
    298.15    0.389803E-01    0.650251E+00    0.106597E+00    0.543655E+00
   ------------------------------------------------------------------------

         :::::::::::::::::::::::::::::::::::::::::::::::::::::
         ::                  THERMODYNAMIC                  ::
         :::::::::::::::::::::::::::::::::::::::::::::::::::::
         :: total free energy        -120.493204923756 Eh   ::
         ::.................................................::
         :: total energy             -121.036859505428 Eh   ::
         :: zero point energy           0.611270997034 Eh   ::
         :: G(RRHO) w/o ZPVE           -0.067616415361 Eh   ::
         :: G(RRHO) contrib.            0.543654581673 Eh   ::
         :::::::::::::::::::::::::::::::::::::::::::::::::::::

           -------------------------------------------------
          | TOTAL ENERGY             -121.036859505428 Eh   |
          | TOTAL ENTHALPY           -120.386608171928 Eh   |
          | TOTAL FREE ENERGY        -120.493204923756 Eh   |
          | GRADIENT NORM               0.000062297551 Eh/α |
          | HOMO-LUMO GAP               2.379599438122 eV   |
           -------------------------------------------------

 * finished run on 2025/09/10 at 11:55:57.022
