   * xtb version 6.7.1 (edcfbbe) compiled by 'albert@albert-system' on 2024-07-22

   ID    Z sym.   atoms
    1    6 C      1, 2, 4, 6, 8-24, 26-29, 33-40
    2    8 O      3, 5, 7, 31, 32
    3    7 N      25
    4   16 S      30
    5    1 H      41-67

          program call               : xtb data2507/toluene/CzSO-1CO/CzSO-1CO.xyz --gfn 2 --gbsa toluene --ohess vtight --parallel 40 --molden --ceasefiles --namespace data2507/toluene/CzSO-1CO/CzSO-1CO_toluene_S0_preOpt
      * Solvation model:               GBSA
        Solvent                        toluene
        Solvent mass                       9.2140E+01 g/mol
          :  Hamiltonian                  GFN2-xTB          :
 * total energy  :  -110.9604887 Eh     change       -0.1805105E-08 Eh
 * total energy  :  -110.9715635 Eh     change       -0.1107479E-01 Eh
 * total energy  :  -110.9742902 Eh     change       -0.2726702E-02 Eh
 * total energy  :  -110.9748425 Eh     change       -0.5522888E-03 Eh
 * total energy  :  -110.9751220 Eh     change       -0.2795272E-03 Eh
 * total energy  :  -110.9751959 Eh     change       -0.7388345E-04 Eh
 * total energy  :  -110.9752503 Eh     change       -0.5445346E-04 Eh
 * total energy  :  -110.9752830 Eh     change       -0.3262452E-04 Eh
 * total energy  :  -110.9753123 Eh     change       -0.2927582E-04 Eh
 * total energy  :  -110.9753367 Eh     change       -0.2446785E-04 Eh
 * total energy  :  -110.9754805 Eh     change       -0.2913650E-06 Eh
 * total energy  :  -110.9754808 Eh     change       -0.3247250E-06 Eh
 * total energy  :  -110.9754813 Eh     change       -0.4177191E-06 Eh
 * total energy  :  -110.9754818 Eh     change       -0.5065974E-06 Eh
 * total energy  :  -110.9754822 Eh     change       -0.4345007E-06 Eh
 * total energy  :  -110.9754825 Eh     change       -0.2751971E-06 Eh
 * total energy  :  -110.9754827 Eh     change       -0.2132212E-06 Eh
 * total energy  :  -110.9754829 Eh     change       -0.1605068E-06 Eh
 * total energy  :  -110.9754829 Eh     change       -0.6248439E-07 Eh
   *** GEOMETRY OPTIMIZATION CONVERGED AFTER 62 ITERATIONS ***

 final structure:
================
67
 xtb: 6.7.1 (edcfbbe)
C            2.58297092616779        1.04734185363375       -0.65997290057114
C            2.01805254511562        0.87310944782457        0.75414062503477
O            3.01562067046630        0.39128449078482        1.68655815735184
C            4.18593008542817        1.08259859438975        1.81055881453705
O            5.12509169679448        0.66199529011688        0.80861793716413
C            6.29254044556267        1.31518720913105        0.77503128439932
O            6.55031618450634        2.22672623847592        1.53562910438208
C            7.20606537987406        0.81880707472066       -0.27405344540274
C            6.86528877618085       -0.25391478000352       -1.09661188403353
C            7.75365429002534       -0.68713718924036       -2.06301720787780
C            8.98024221856702       -0.05819169662979       -2.21567120198572
C            9.32345942709568        1.00901388844695       -1.39931797511501
C            8.44110558897776        1.44770360265950       -0.43069510749373
C            1.41426931796941        2.19892730925654        1.27083666381474
C            0.00409714813068        2.45879036034881        0.82876368210983
C           -0.85838592851838        1.47718473698123        0.55789778893891
C           -0.38164809538570        0.12262307021865        0.62285120811272
C            0.95338845474165       -0.18692508482953        0.72103889523523
C            1.06648505709934       -1.60256613312317        0.65774289821799
C            2.13946212479909       -2.49194453499302        0.72503255012884
C            1.88028255081071       -3.84251091540988        0.66789506799957
C            0.57269871149925       -4.32516789501614        0.56640479309468
C           -0.50756489994313       -3.46919364577223        0.50009566236156
C           -0.25413321100001       -2.10381880010288        0.52315620177169
N           -1.12538399422610       -1.03443560579926        0.49577167602483
C           -2.51650244227750       -1.10970953338574        0.40613952766269
C           -3.31576836145721       -0.37647721383254        1.28611555106441
C           -4.69228646934096       -0.46083602179868        1.20172620157196
C           -5.26726488139597       -1.28287943006509        0.24937654067830
S           -7.05759361194050       -1.36602680120750        0.14936998838181
O           -7.41875782864093       -2.39225187767039       -0.80636220102179
O           -7.59150879822966       -1.50106151996403        1.48879826740661
C           -7.53316632839963        0.23686731462654       -0.50471909180332
C           -8.10654155407680        1.17678876788153        0.32907458481725
C           -8.43451240775799        2.42198036656393       -0.18352384643789
C           -8.18053674188970        2.70823086287443       -1.51600342525562
C           -7.60435542373720        1.75515296908977       -2.34288693948008
C           -7.27493316708340        0.50928687584787       -1.83493810801799
C           -4.49017422187732       -2.01019097397412       -0.63223289764088
C           -3.11236095817877       -1.92347451532161       -0.55862637449148
H            1.77583986704204        1.34537558795228       -1.32457553803007
H            3.00458227076491        0.10873882086791       -1.00971608026658
H            3.35667345019625        1.81189510065045       -0.68524756509718
H            4.07608924097883        2.17512591298908        1.73803975512509
H            4.60920164761369        0.83647374992581        2.79431221373467
H            5.91036842806957       -0.73789841510659       -0.96789306577073
H            7.48975106975753       -1.51816555953438       -2.69973154410103
H            9.67042177100402       -0.40085184028392       -2.97221806585674
H           10.27882481506209        1.49753487799696       -1.51787399149047
H            8.68513363598242        2.27551704426704        0.21847035188545
H            2.04633930214056        3.03584281817924        0.96692762065550
H            1.42248581923827        2.16161911110704        2.36780681136175
H           -0.30355064359337        3.49285947344826        0.80009561106683
H           -1.87930244342774        1.67265520293060        0.26979253273101
H            3.14353882084654       -2.11458646822662        0.83810941777274
H            2.69672677483285       -4.54858252596183        0.71629612341120
H            0.40481255371781       -5.39197281648289        0.54501887310377
H           -1.51466386454564       -3.85384788979937        0.44532725883541
H           -2.85145997188995        0.23822450363632        2.04153909771070
H           -5.32810230981214        0.08240738792339        1.88246029007234
H           -8.29623560656911        0.91254789514026        1.35794257220088
H           -8.88694976454465        3.16455675180344        0.45584500945285
H           -8.43625511463747        3.67872374112835       -1.91390488616585
H           -7.41281673085210        1.98127638658037       -3.38064983757355
H           -6.83667415064320       -0.25822041214904       -2.45334343302831
H           -4.97951698777151       -2.63745807969199       -1.36090626045385
H           -2.49290315339293       -2.47067351497623       -1.25191233691725

          :  Hamiltonian                  GFN2-xTB          :
         :: gradient norm              0.000085082249 Eh/a0 ::
         :: HOMO-LUMO gap              2.112460015227 eV    ::
         :: SCC energy              -112.670058811856 Eh    ::
         :: -> dispersion             -0.085944230760 Eh    ::
         :: -> Gsolv                  -0.057146464698 Eh    ::
         :: repulsion energy           1.694575893631 Eh    ::

    * Orbital Energies and Occupations

         #    Occupation            Energy/Eh            Energy/eV
      -------------------------------------------------------------
         1        2.0000           -0.7760100             -21.1163
       ...           ...                  ...                  ...
        88        2.0000           -0.4327683             -11.7762
        89        2.0000           -0.4289601             -11.6726
        90        2.0000           -0.4276328             -11.6365
        91        2.0000           -0.4271515             -11.6234
        92        2.0000           -0.4234772             -11.5234
        93        2.0000           -0.4216997             -11.4750
        94        2.0000           -0.4212676             -11.4633
        95        2.0000           -0.4208179             -11.4510
        96        2.0000           -0.4156302             -11.3099
        97        2.0000           -0.4102203             -11.1627
        98        2.0000           -0.4088011             -11.1240
        99        2.0000           -0.3805798             -10.3561
       100        2.0000           -0.3610232              -9.8239 (HOMO)
       101                         -0.2833918              -7.7115 (LUMO)
       102                         -0.2716841              -7.3929
       103                         -0.2580621              -7.0222
       104                         -0.2517192              -6.8496
       105                         -0.2491885              -6.7808
       106                         -0.2458219              -6.6892
       107                         -0.2385003              -6.4899
       108                         -0.2093707              -5.6973
       109                         -0.1989775              -5.4145
       110                         -0.1975920              -5.3768
       111                         -0.1484265              -4.0389
       ...                                ...                  ...
       192                          1.1652993              31.7094
      -------------------------------------------------------------
                  HL-Gap            0.0776314 Eh            2.1125 eV

     #   Z          covCN         q      C6AA      α(0)
     1   6 C        3.758    -0.111    22.670     6.788
     2   6 C        3.787     0.146    18.246     6.084
     3   8 O        1.700    -0.314    19.249     5.924
     4   6 C        3.587     0.233    17.545     6.073
     5   8 O        1.703    -0.286    18.744     5.845
     6   6 C        2.726     0.351    21.032     7.508
     7   8 O        0.856    -0.465    23.020     6.433
     8   6 C        2.972    -0.022    28.540     8.763
     9   6 C        2.920    -0.019    28.481     8.752
    10   6 C        2.918    -0.023    28.589     8.768
    11   6 C        2.920    -0.017    28.444     8.746
    12   6 C        2.917    -0.023    28.587     8.768
    13   6 C        2.924    -0.017    28.438     8.745
    14   6 C        3.809    -0.072    21.878     6.658
    15   6 C        2.907    -0.035    28.877     8.811
    16   6 C        2.898    -0.051    29.259     8.869
    17   6 C        3.096     0.034    27.134     8.537
    18   6 C        3.070    -0.039    28.888     8.813
    19   6 C        3.093    -0.008    28.114     8.690
    20   6 C        2.911    -0.034    28.841     8.806
    21   6 C        2.919    -0.040    28.983     8.828
    22   6 C        2.924    -0.037    28.911     8.818
    23   6 C        2.908    -0.050    29.239     8.867
    24   6 C        3.089     0.036    27.090     8.532
    25   7 N        2.817    -0.021    21.646     6.910
    26   6 C        2.912     0.074    26.348     8.417
    27   6 C        2.924    -0.037    28.910     8.817
    28   6 C        2.958    -0.025    28.624     8.775
    29   6 C        2.970    -0.076    29.904     8.970
    30  16 S        3.818     0.936   108.516    17.533
    31   8 O        0.860    -0.578    25.574     6.780
    32   8 O        0.860    -0.578    25.589     6.782
    33   6 C        2.972    -0.071    29.766     8.949
    34   6 C        2.954    -0.024    28.600     8.772
    35   6 C        2.921    -0.021    28.533     8.760
    36   6 C        2.920    -0.021    28.526     8.759
    37   6 C        2.921    -0.021    28.528     8.759
    38   6 C        2.961    -0.026    28.660     8.781
    39   6 C        2.952    -0.022    28.558     8.765
    40   6 C        2.924    -0.037    28.918     8.819
    41   1 H        0.925     0.052     2.295     2.369
    42   1 H        0.925     0.053     2.285     2.364
    43   1 H        0.925     0.039     2.469     2.457
    44   1 H        0.923     0.036     2.508     2.477
    45   1 H        0.923     0.052     2.291     2.367
    46   1 H        0.926     0.057     2.236     2.339
    47   1 H        0.926     0.055     2.262     2.352
    48   1 H        0.926     0.056     2.246     2.344
    49   1 H        0.926     0.054     2.275     2.359
    50   1 H        0.926     0.054     2.273     2.358
    51   1 H        0.924     0.046     2.364     2.405
    52   1 H        0.924     0.059     2.211     2.326
    53   1 H        0.926     0.049     2.331     2.388
    54   1 H        0.926     0.048     2.342     2.393
    55   1 H        0.926     0.036     2.500     2.473
    56   1 H        0.926     0.030     2.590     2.517
    57   1 H        0.926     0.032     2.553     2.499
    58   1 H        0.926     0.033     2.539     2.492
    59   1 H        0.926     0.072     2.066     2.248
    60   1 H        0.926     0.061     2.189     2.314
    61   1 H        0.926     0.058     2.225     2.333
    62   1 H        0.926     0.062     2.171     2.304
    63   1 H        0.926     0.064     2.153     2.295
    64   1 H        0.926     0.063     2.163     2.300
    65   1 H        0.926     0.054     2.273     2.358
    66   1 H        0.926     0.065     2.139     2.287
    67   1 H        0.926     0.071     2.073     2.252

molecular dipole:
                 x           y           z       tot (Debye)
 q only:        1.019       2.035      -2.185
   full:        0.973       2.069      -2.025       7.764

 projected vibrational frequencies (cm⁻¹)
eigval :       -0.00    -0.00     0.00     0.00     0.00     0.00
eigval :      -13.09    -2.64     8.80    10.95    18.01    21.70
eigval :       31.49    38.83    45.30    54.24    66.83    81.92
eigval :       97.15   108.92   116.57   122.94   134.91   137.92
eigval :      143.52   157.17   191.94   196.81   211.97   220.26
eigval :      234.02   240.15   251.10   261.47   282.36   294.36
eigval :      305.39   321.68   335.37   351.99   364.28   366.30
eigval :      373.14   378.89   381.03   400.90   410.32   415.68
eigval :      416.80   434.87   441.85   456.02   477.64   485.40
eigval :      515.55   521.44   524.28   539.80   551.66   569.51
eigval :      584.67   586.92   597.86   600.12   626.02   638.45
eigval :      643.88   654.70   656.57   675.70   681.47   688.18
eigval :      699.09   707.26   731.47   748.55   768.19   775.22
eigval :      779.93   788.72   820.81   845.81   869.74   872.58
eigval :      876.89   879.43   881.19   899.43   904.97   905.58
eigval :      906.97   912.68   915.39   922.18   924.49   927.26
eigval :      928.20   931.39   933.74   934.53   935.25   953.94
eigval :      965.97   983.18   984.86   993.73  1026.26  1052.06
eigval :     1060.20  1066.33  1069.58  1073.01  1076.07  1088.07
eigval :     1101.79  1103.92  1111.91  1116.55  1118.25  1118.89
eigval :     1127.94  1137.95  1143.77  1166.62  1174.71  1175.50
eigval :     1177.23  1177.31  1179.80  1183.58  1188.87  1191.38
eigval :     1208.94  1236.44  1240.69  1242.75  1245.25  1257.70
eigval :     1259.86  1270.55  1298.28  1316.77  1318.51  1321.25
eigval :     1327.13  1335.87  1338.54  1364.99  1371.06  1390.34
eigval :     1394.60  1411.43  1426.98  1430.35  1433.39  1441.22
eigval :     1446.87  1449.90  1455.82  1471.01  1479.73  1486.61
eigval :     1490.24  1556.51  1570.05  1572.88  1573.36  1577.63
eigval :     1581.23  1588.00  1595.37  1607.97  1657.43  1690.68
eigval :     2873.12  2911.57  2911.86  2972.73  3023.83  3040.18
eigval :     3049.77  3072.58  3079.57  3081.75  3083.43  3086.14
eigval :     3086.98  3090.09  3090.86  3092.44  3097.00  3098.17
eigval :     3098.63  3099.20  3099.68  3101.19  3102.06  3104.91
eigval :     3107.50  3109.15  3112.10

   temp. (K)  partition function   enthalpy   heat capacity  entropy
                                   cal/mol     cal/K/mol   cal/K/mol   J/K/mol
 298.15  VIB  0.233E+19            20465.813    122.746    131.507
         ROT  0.673E+08              888.752      2.981     38.800
         INT  0.157E+27            21354.566    125.727    170.307
         TR   0.125E+29             1481.254      4.968     44.777
         TOT                       22835.8196   130.6949   215.0845   899.9134

       T/K    H(0)-H(T)+PV         H(T)/Eh          T*S/Eh         G(T)/Eh
   ------------------------------------------------------------------------
    298.15    0.363912E-01    0.544875E+00    0.102194E+00    0.442681E+00
   ------------------------------------------------------------------------

         :::::::::::::::::::::::::::::::::::::::::::::::::::::
         ::                  THERMODYNAMIC                  ::
         :::::::::::::::::::::::::::::::::::::::::::::::::::::
         :: total free energy        -110.532801507424 Eh   ::
         ::.................................................::
         :: total energy             -110.975482919123 Eh   ::
         :: zero point energy           0.508483791305 Eh   ::
         :: G(RRHO) w/o ZPVE           -0.065802379606 Eh   ::
         :: G(RRHO) contrib.            0.442681411699 Eh   ::
         :::::::::::::::::::::::::::::::::::::::::::::::::::::

           -------------------------------------------------
          | TOTAL ENERGY             -110.975482919123 Eh   |
          | TOTAL ENTHALPY           -110.430607932956 Eh   |
          | TOTAL FREE ENERGY        -110.532801507424 Eh   |
          | GRADIENT NORM               0.000085075195 Eh/α |
          | HOMO-LUMO GAP               2.112459239964 eV   |
           -------------------------------------------------

 * finished run on 2025/09/13 at 09:19:24.292
