   * xtb version 6.7.1 (edcfbbe) compiled by 'albert@albert-system' on 2024-07-22

   ID    Z sym.   atoms
    1    6 C      1, 2, 4, 6, 8-24, 26-29, 33-40
    2    8 O      3, 5, 7, 31, 32
    3    7 N      25
    4   16 S      30
    5    1 H      41-67

          program call               : xtb data2507/toluene/CzSO-1CO/CzSO-1CO_toluene_S0_crest.xyz --gfn 2 --gbsa toluene --ohess vtight --parallel 40 --molden --ceasefiles --namespace data2507/toluene/CzSO-1CO/CzSO-1CO_toluene_S0_finalOpt
      * Solvation model:               GBSA
        Solvent                        toluene
        Solvent mass                       9.2140E+01 g/mol
          :  Hamiltonian                  GFN2-xTB          :
 * total energy  :  -110.9831420 Eh     change       -0.2569877E-08 Eh
 * total energy  :  -110.9834803 Eh     change       -0.3383430E-03 Eh
 * total energy  :  -110.9836606 Eh     change       -0.1802560E-03 Eh
 * total energy  :  -110.9837092 Eh     change       -0.4854857E-04 Eh
 * total energy  :  -110.9837626 Eh     change       -0.5346687E-04 Eh
 * total energy  :  -110.9837891 Eh     change       -0.2650410E-04 Eh
 * total energy  :  -110.9838149 Eh     change       -0.2581645E-04 Eh
 * total energy  :  -110.9838381 Eh     change       -0.2314837E-04 Eh
 * total energy  :  -110.9838553 Eh     change       -0.1717909E-04 Eh
 * total energy  :  -110.9838827 Eh     change       -0.2740492E-04 Eh
 * total energy  :  -110.9843170 Eh     change       -0.8095059E-06 Eh
 * total energy  :  -110.9843179 Eh     change       -0.8640442E-06 Eh
 * total energy  :  -110.9843188 Eh     change       -0.9027465E-06 Eh
 * total energy  :  -110.9843196 Eh     change       -0.8159275E-06 Eh
 * total energy  :  -110.9843203 Eh     change       -0.6393122E-06 Eh
 * total energy  :  -110.9843208 Eh     change       -0.5435612E-06 Eh
 * total energy  :  -110.9843214 Eh     change       -0.5697656E-06 Eh
 * total energy  :  -110.9843220 Eh     change       -0.5916100E-06 Eh
 * total energy  :  -110.9843220 Eh     change       -0.3809305E-08 Eh
   *** GEOMETRY OPTIMIZATION CONVERGED AFTER 122 ITERATIONS ***

 final structure:
================
67
 xtb: 6.7.1 (edcfbbe)
C            5.68914742093933       -2.03499574917937        0.70471907204981
C            4.55498743346199       -1.83055041716271       -0.30375094098483
O            5.11337328477138       -0.89673104580046       -1.27807030178912
C            4.25944176824089       -0.37127565644123       -2.21309308995856
O            3.59649641652810        0.79419854195305       -1.70875354277485
C            2.26251887217898        0.86713046651715       -1.78935638571780
O            1.58358209646335        0.04267114547992       -2.36705630855132
C            1.71405094573885        2.05475981686745       -1.10374036502397
C            0.32916973461659        2.19678048900475       -1.02215998268090
C           -0.21870755835821        3.28165997272080       -0.36613550803987
C            0.61025200755129        4.23665852283759        0.20216118621118
C            1.98763620939950        4.10447516065701        0.11538701379629
C            2.54340207117681        3.01720308454411       -0.53145372286648
C            4.25895878055098       -3.18215335888569       -1.00370620815945
C            2.83425510643414       -3.49889090315312       -1.32777602141923
C            1.79724544163641       -2.84366696434641       -0.80342853743941
C            2.05882018650169       -1.71858487821647        0.04842220408770
C            3.32423350936083       -1.25425967041264        0.33109587142363
C            3.17337801601520       -0.13299162550153        1.20149877919746
C            4.04812050431024        0.79439072955731        1.77030548318337
C            3.53435571800954        1.79763083541353        2.56039726602994
C            2.16191132294436        1.91445132238419        2.78652794864541
C            1.26941046222939        1.02745614121878        2.22343999198345
C            1.78172986050891        0.00106214476517        1.44209770840782
N            1.11854577312270       -0.97599085541574        0.73170643926337
C           -0.27066726190054       -1.11774567770689        0.65085200086816
C           -0.89469266182053       -1.17526368470277       -0.59673656047137
C           -2.26897945261077       -1.29986739784965       -0.67245525824839
C           -3.01220570583200       -1.36036983627121        0.49247178253390
S           -4.79937250643483       -1.46655895461763        0.36169797539301
O           -5.14163684110521       -2.52257280615459       -0.56789436813073
O           -5.35462510769926       -1.56698931057028        1.69554577485388
C           -5.26981155884950        0.11219350745523       -0.35286472026365
C           -5.83054459355480        0.16130885905186       -1.61371149242064
C           -6.16111825843656        1.39300881250613       -2.15705894545181
C           -5.92165328995389        2.55201466994166       -1.43541836424852
C           -5.35683485930689        2.48872897416580       -0.16998932517321
C           -5.02545409566099        1.26020364486790        0.37731062170045
C           -2.40833273787647       -1.30064364007432        1.73378960952649
C           -1.03244914852627       -1.18654819877952        1.81696608310492
H            6.04961998752837       -1.07801818692039        1.06408302644423
H            6.51465980249603       -2.54957491467724        0.22014248366749
H            5.33243186022912       -2.62206437502297        1.54608551394297
H            4.87868635501706       -0.03926402932307       -3.05559890503569
H            3.49334610077339       -1.08226652115419       -2.55562230523016
H           -0.29936048089716        1.44568237033908       -1.47564750807859
H           -1.29158987510146        3.38264861441925       -0.30076738384175
H            0.18252007924855        5.08637836323223        0.71310709081076
H            2.63102421034922        4.85091026517440        0.55591507390158
H            3.61307895369643        2.90106879357475       -0.59961192202784
H            4.62208889763895       -3.98829731409902       -0.35773542102159
H            4.86302771501071       -3.22152945246677       -1.91493810743752
H            2.67974595082078       -4.34464162967491       -1.98186822145143
H            0.77857566270442       -3.13072957122461       -1.00898280018645
H            5.10768399055756        0.74265977864047        1.57656067602324
H            4.20310907180132        2.51899693548943        3.00681781158748
H            1.79350598278957        2.71991641528668        3.40364315163051
H            0.20639674794908        1.13809517912730        2.37148058754062
H           -0.29687102812779       -1.09248724292323       -1.49206119468231
H           -2.77290022905582       -1.35067601101976       -1.62475173656289
H           -6.00265439280450       -0.76382540979035       -2.14200997033378
H           -6.60345654313841        1.44538751398115       -3.14014118153229
H           -6.17915418056826        3.51052797768463       -1.86021679753624
H           -5.17570416014436        3.39394679315650        0.38911564918381
H           -4.59321368494124        1.17645246860043        1.36216106457771
H           -3.02646000558250       -1.35936245820959        2.61617071766563
H           -0.54263937492481       -1.16239515843823        2.77810141307311

          :  Hamiltonian                  GFN2-xTB          :
         :: gradient norm              0.000045667025 Eh/a0 ::
         :: HOMO-LUMO gap              2.159806833269 eV    ::
         :: SCC energy              -112.680428237342 Eh    ::
         :: -> dispersion             -0.100715667046 Eh    ::
         :: -> Gsolv                  -0.050401109475 Eh    ::
         :: repulsion energy           1.696106274822 Eh    ::

    * Orbital Energies and Occupations

         #    Occupation            Energy/Eh            Energy/eV
      -------------------------------------------------------------
         1        2.0000           -0.7767085             -21.1353
       ...           ...                  ...                  ...
        88        2.0000           -0.4328218             -11.7777
        89        2.0000           -0.4291314             -11.6773
        90        2.0000           -0.4280595             -11.6481
        91        2.0000           -0.4251974             -11.5702
        92        2.0000           -0.4244143             -11.5489
        93        2.0000           -0.4233228             -11.5192
        94        2.0000           -0.4218973             -11.4804
        95        2.0000           -0.4195307             -11.4160
        96        2.0000           -0.4137728             -11.2593
        97        2.0000           -0.4106323             -11.1739
        98        2.0000           -0.4097791             -11.1507
        99        2.0000           -0.3807676             -10.3612
       100        2.0000           -0.3626526              -9.8683 (HOMO)
       101                         -0.2832812              -7.7085 (LUMO)
       102                         -0.2712995              -7.3824
       103                         -0.2580488              -7.0219
       104                         -0.2527487              -6.8776
       105                         -0.2500908              -6.8053
       106                         -0.2462631              -6.7012
       107                         -0.2380395              -6.4774
       108                         -0.2103075              -5.7228
       109                         -0.2007859              -5.4637
       110                         -0.1976387              -5.3780
       111                         -0.1482441              -4.0339
       ...                                ...                  ...
       192                          1.1676243              31.7727
      -------------------------------------------------------------
                  HL-Gap            0.0793714 Eh            2.1598 eV

     #   Z          covCN         q      C6AA      α(0)
     1   6 C        3.757    -0.117    22.793     6.807
     2   6 C        3.783     0.144    18.282     6.091
     3   8 O        1.698    -0.327    19.472     5.958
     4   6 C        3.579     0.226    17.691     6.108
     5   8 O        1.703    -0.290    18.825     5.858
     6   6 C        2.717     0.358    20.921     7.487
     7   8 O        0.856    -0.461    22.943     6.422
     8   6 C        2.973    -0.023    28.570     8.768
     9   6 C        2.924    -0.020    28.510     8.756
    10   6 C        2.918    -0.025    28.634     8.775
    11   6 C        2.920    -0.017    28.440     8.745
    12   6 C        2.919    -0.022    28.563     8.764
    13   6 C        2.921    -0.018    28.449     8.747
    14   6 C        3.808    -0.079    21.995     6.676
    15   6 C        2.906    -0.037    28.920     8.818
    16   6 C        2.897    -0.051    29.254     8.868
    17   6 C        3.094     0.042    26.947     8.508
    18   6 C        3.058    -0.052    29.226     8.866
    19   6 C        3.089    -0.013    28.235     8.710
    20   6 C        2.912    -0.036    28.891     8.814
    21   6 C        2.919    -0.041    29.015     8.833
    22   6 C        2.924    -0.038    28.938     8.822
    23   6 C        2.909    -0.053    29.313     8.878
    24   6 C        3.090     0.036    27.097     8.532
    25   7 N        2.816    -0.037    21.955     6.959
    26   6 C        2.913     0.075    26.316     8.412
    27   6 C        2.923    -0.037    28.912     8.818
    28   6 C        2.960    -0.025    28.629     8.776
    29   6 C        2.970    -0.076    29.886     8.967
    30  16 S        3.819     0.938   108.449    17.527
    31   8 O        0.860    -0.578    25.585     6.782
    32   8 O        0.860    -0.577    25.562     6.779
    33   6 C        2.972    -0.071    29.763     8.949
    34   6 C        2.953    -0.023    28.580     8.768
    35   6 C        2.921    -0.021    28.526     8.759
    36   6 C        2.920    -0.021    28.525     8.758
    37   6 C        2.922    -0.021    28.528     8.759
    38   6 C        2.962    -0.027    28.677     8.784
    39   6 C        2.952    -0.022    28.565     8.766
    40   6 C        2.923    -0.037    28.911     8.818
    41   1 H        0.925     0.061     2.182     2.310
    42   1 H        0.925     0.057     2.235     2.338
    43   1 H        0.925     0.055     2.261     2.352
    44   1 H        0.924     0.057     2.232     2.337
    45   1 H        0.923     0.042     2.421     2.433
    46   1 H        0.926     0.052     2.297     2.370
    47   1 H        0.926     0.054     2.265     2.354
    48   1 H        0.926     0.058     2.219     2.330
    49   1 H        0.926     0.055     2.256     2.349
    50   1 H        0.926     0.055     2.257     2.349
    51   1 H        0.924     0.072     2.059     2.244
    52   1 H        0.924     0.060     2.205     2.322
    53   1 H        0.926     0.044     2.392     2.419
    54   1 H        0.926     0.039     2.459     2.452
    55   1 H        0.926     0.034     2.530     2.487
    56   1 H        0.926     0.033     2.541     2.493
    57   1 H        0.926     0.035     2.517     2.481
    58   1 H        0.926     0.031     2.567     2.506
    59   1 H        0.926     0.079     1.986     2.204
    60   1 H        0.926     0.058     2.219     2.329
    61   1 H        0.926     0.057     2.232     2.336
    62   1 H        0.926     0.062     2.171     2.304
    63   1 H        0.926     0.065     2.142     2.288
    64   1 H        0.926     0.065     2.146     2.291
    65   1 H        0.926     0.052     2.290     2.366
    66   1 H        0.926     0.067     2.122     2.278
    67   1 H        0.926     0.070     2.085     2.258

molecular dipole:
                 x           y           z       tot (Debye)
 q only:        1.495       2.635       0.097
   full:        1.329       2.413      -0.107       7.008

 projected vibrational frequencies (cm⁻¹)
eigval :       -0.00    -0.00     0.00     0.00     0.00     0.00
eigval :        9.38    19.15    23.45    32.55    35.24    37.15
eigval :       43.29    47.07    62.71    64.09    82.38    91.25
eigval :      109.36   113.51   120.29   127.86   135.05   139.78
eigval :      147.29   155.70   183.53   197.22   201.25   226.04
eigval :      230.86   246.89   265.68   278.63   292.97   304.96
eigval :      309.54   322.83   345.53   354.05   364.03   365.75
eigval :      367.58   380.22   388.22   394.89   404.27   410.47
eigval :      429.20   435.06   454.87   461.55   484.17   501.65
eigval :      514.09   518.87   534.31   538.19   546.98   572.29
eigval :      583.39   584.50   586.98   601.23   635.39   637.99
eigval :      644.47   652.81   658.54   668.74   684.73   692.91
eigval :      695.48   703.69   733.94   749.86   758.46   771.15
eigval :      778.18   792.65   823.08   833.34   841.93   863.65
eigval :      873.43   880.50   882.07   899.25   899.98   901.88
eigval :      907.98   911.17   912.63   919.20   928.00   928.23
eigval :      929.79   932.04   932.28   932.91   939.12   949.24
eigval :      966.01   978.65   978.93   994.63  1030.96  1044.80
eigval :     1061.26  1066.87  1070.23  1074.86  1078.27  1081.35
eigval :     1101.99  1105.58  1112.80  1115.78  1116.38  1119.26
eigval :     1128.89  1133.07  1158.69  1170.06  1175.11  1176.66
eigval :     1177.54  1178.25  1183.69  1185.28  1188.85  1196.02
eigval :     1207.19  1233.01  1239.83  1245.19  1249.13  1257.91
eigval :     1266.65  1272.59  1302.27  1318.27  1320.29  1325.96
eigval :     1329.96  1337.27  1339.89  1365.81  1369.46  1388.22
eigval :     1395.87  1414.13  1418.30  1426.61  1431.23  1433.98
eigval :     1441.77  1442.22  1457.69  1464.76  1471.25  1486.63
eigval :     1488.65  1547.64  1570.04  1572.66  1574.78  1578.38
eigval :     1582.81  1590.27  1595.55  1607.03  1664.89  1697.65
eigval :     2890.96  2926.12  2930.75  2963.27  3041.86  3047.06
eigval :     3074.23  3075.70  3079.18  3082.50  3085.22  3086.33
eigval :     3088.64  3090.32  3095.44  3095.69  3096.12  3096.75
eigval :     3097.13  3100.93  3102.01  3102.47  3104.07  3104.50
eigval :     3105.51  3106.10  3113.10

   temp. (K)  partition function   enthalpy   heat capacity  entropy
                                   cal/mol     cal/K/mol   cal/K/mol   J/K/mol
 298.15  VIB  0.486E+16            20171.897    124.226    126.008
         ROT  0.388E+08              888.752      2.981     37.708
         INT  0.189E+24            21060.649    127.207    163.716
         TR   0.125E+29             1481.254      4.968     44.777
         TOT                       22541.9030   132.1752   208.4928   872.3340

       T/K    H(0)-H(T)+PV         H(T)/Eh          T*S/Eh         G(T)/Eh
   ------------------------------------------------------------------------
    298.15    0.359228E-01    0.545131E+00    0.990617E-01    0.446069E+00
   ------------------------------------------------------------------------

         :::::::::::::::::::::::::::::::::::::::::::::::::::::
         ::                  THERMODYNAMIC                  ::
         :::::::::::::::::::::::::::::::::::::::::::::::::::::
         :: total free energy        -110.538253104597 Eh   ::
         ::.................................................::
         :: total energy             -110.984321963864 Eh   ::
         :: zero point energy           0.509207721163 Eh   ::
         :: G(RRHO) w/o ZPVE           -0.063138861896 Eh   ::
         :: G(RRHO) contrib.            0.446068859267 Eh   ::
         :::::::::::::::::::::::::::::::::::::::::::::::::::::

           -------------------------------------------------
          | TOTAL ENERGY             -110.984321963864 Eh   |
          | TOTAL ENTHALPY           -110.439191433661 Eh   |
          | TOTAL FREE ENERGY        -110.538253104597 Eh   |
          | GRADIENT NORM               0.000045674782 Eh/α |
          | HOMO-LUMO GAP               2.159806945585 eV   |
           -------------------------------------------------

 * finished run on 2025/09/13 at 09:27:36.036
