   * xtb version 6.7.1 (edcfbbe) compiled by 'albert@albert-system' on 2024-07-22

   ID    Z sym.   atoms
    1    6 C      1, 2, 4, 6, 8-24, 26-29, 33-40
    2    8 O      3, 5, 7, 31, 32
    3    7 N      25
    4   16 S      30
    5    1 H      41-67

          program call               : xtb data2507/toluene/CzSO-1CO/CzSO-1CO_toluene_S0_finalOpt.xtbopt.xyz --gfn 2 --uhf 2 --gbsa toluene --ohess vtight --parallel 40 --molden --ceasefiles --namespace data2507/toluene/CzSO-1CO/CzSO-1CO_toluene_T1_preOpt
      * Solvation model:               GBSA
        Solvent                        toluene
        Solvent mass                       9.2140E+01 g/mol
          :  Hamiltonian                  GFN2-xTB          :
 * total energy  :  -110.8860320 Eh     change       -0.2175095E-07 Eh
 * total energy  :  -110.8938034 Eh     change       -0.7771382E-02 Eh
 * total energy  :  -110.8957399 Eh     change       -0.1936499E-02 Eh
 * total energy  :  -110.8959224 Eh     change       -0.1825616E-03 Eh
 * total energy  :  -110.8960808 Eh     change       -0.1583835E-03 Eh
 * total energy  :  -110.8962179 Eh     change       -0.1371231E-03 Eh
 * total energy  :  -110.8964062 Eh     change       -0.1882235E-03 Eh
 * total energy  :  -110.8965463 Eh     change       -0.1401677E-03 Eh
 * total energy  :  -110.8966757 Eh     change       -0.1293782E-03 Eh
 * total energy  :  -110.8967364 Eh     change       -0.6071233E-04 Eh
 * total energy  :  -110.9004026 Eh     change       -0.5821298E-06 Eh
 * total energy  :  -110.9004032 Eh     change       -0.6180546E-06 Eh
 * total energy  :  -110.9004039 Eh     change       -0.6625066E-06 Eh
 * total energy  :  -110.9004046 Eh     change       -0.7155553E-06 Eh
 * total energy  :  -110.9004054 Eh     change       -0.8092742E-06 Eh
 * total energy  :  -110.9004062 Eh     change       -0.7548210E-06 Eh
 * total energy  :  -110.9004069 Eh     change       -0.7278734E-06 Eh
 * total energy  :  -110.9004074 Eh     change       -0.5236431E-06 Eh
 * total energy  :  -110.9004074 Eh     change       -0.1249452E-07 Eh
   *** GEOMETRY OPTIMIZATION CONVERGED AFTER 122 ITERATIONS ***

 final structure:
================
67
 xtb: 6.7.1 (edcfbbe)
C            5.01848750809478       -2.59337789691573        0.59616033797685
C            4.44984960126421       -1.60746622996174       -0.44495945185348
O            5.53278369958974       -0.68978173657585       -0.66811689812397
C            5.42089352314305        0.29406947847876       -1.64139774410360
O            4.43461617875311        1.25905707585896       -1.35228719052322
C            3.17495675261919        1.01840187385163       -1.83433544005715
O            2.96160982931485        0.18496095257555       -2.70842431636605
C            2.16170261565292        1.88987852138269       -1.25489665036038
C            0.81516787702602        1.63559583652223       -1.54122688049925
C           -0.17524162277159        2.41991807399228       -0.99007364117822
C            0.16232114028109        3.48104818173287       -0.16040465110013
C            1.49594293784180        3.75261598247943        0.11176641760487
C            2.49411131403977        2.96561837365684       -0.42464492116502
C            4.05644737116416       -2.40095200735267       -1.71493301521137
C            2.83501567636192       -3.21317063943760       -1.52907951421134
C            1.75764808973650       -2.71814378016624       -0.81276426190536
C            1.92462819470121       -1.55069457375707       -0.08552217268752
C            3.23308072217072       -0.96361457225327        0.12927884055377
C            3.07936534936700        0.04098703235748        1.08340267147417
C            3.98931068070063        0.91439598345432        1.70860896333941
C            3.50195296717117        1.83437169233121        2.61431951174826
C            2.14167470060136        1.92442391135946        2.88374037689203
C            1.21505963849460        1.06828585340251        2.27582302198390
C            1.68806075937283        0.11616533820082        1.40735394430859
N            1.01016104647160       -0.86593010187925        0.68378827195647
C           -0.36597252771919       -1.06409442294790        0.67116138988658
C           -1.03143515038876       -1.29562692748769       -0.54074145712205
C           -2.39903958904837       -1.45813721280335       -0.56019035556926
C           -3.11379281070935       -1.40529837461861        0.62761884417653
S           -4.89504900317658       -1.50702912985479        0.56129042925452
O           -5.28562173499284       -2.54319940499696       -0.37339396687566
O           -5.40946762724334       -1.61847631752280        1.91188574377218
C           -5.37108445041123        0.08749001468338       -0.11507162826697
C           -5.92912206361577        0.16528665469236       -1.37590589546363
C           -6.24739224584209        1.40918576750712       -1.89800423278348
C           -5.99700339161685        2.55342871442803       -1.15666297597377
C           -5.43405955400744        2.46227260443664        0.10804229024735
C           -5.11586160246683        1.22125358264691        0.63390901063499
C           -2.46931767846044       -1.20053047615890        1.83689309382058
C           -1.10044797653686       -1.03649642812101        1.86424691624819
H            5.26491445532016       -2.05512547089422        1.50667226840169
H            5.92279975952098       -3.04489657885386        0.19842282210504
H            4.28468443203522       -3.36382025519821        0.81124795668838
H            6.37923748516841        0.82192341743842       -1.62363717200088
H            5.23681560870251       -0.12424996867243       -2.64350316953347
H            0.57832156652622        0.81355562095176       -2.19972875575561
H           -1.21234186359852        2.20936089081486       -1.20654954895092
H           -0.61314502483987        4.09789755102968        0.26801696683363
H            1.75724648758502        4.58507137702232        0.74796233712966
H            3.53251293788554        3.17001585629637       -0.21927664198874
H            4.89990901275260       -3.00194565927394       -2.05494317217862
H            3.82294481053736       -1.65806303997309       -2.49520723233277
H            2.75965107875544       -4.15632829797862       -2.04289179868218
H            0.81757925211280       -3.24746041647508       -0.79710743808311
H            5.03880838656256        0.85245069968956        1.46962709256103
H            4.18547339139863        2.50599533743685        3.11173963631985
H            1.78307650363293        2.67084899825793        3.57525081904057
H            0.16372352394893        1.17613690828872        2.48547316376539
H           -0.46770170869163       -1.31567953348172       -1.45973030547832
H           -2.93000302702308       -1.62913799910602       -1.48318599173466
H           -6.11004627266005       -0.74862594739848       -1.92058254144359
H           -6.68802666639614        1.48284907384621       -2.88059444091195
H           -6.24350539717992        3.52182165669029       -1.56546946205414
H           -5.24345094572974        3.35582570326115        0.68261396475280
H           -4.68492678923162        1.11613589535999        1.61722925057456
H           -3.05757163841380       -1.19361917022626        2.74133262369223
H           -0.58845136317215       -0.91889991363829        2.80567054672202

          :  Hamiltonian                  GFN2-xTB          :
         :: gradient norm              0.000089137398 Eh/a0 ::
         :: HOMO-LUMO gap              0.333545676175 eV    ::
         :: SCC energy              -112.575031831751 Eh    ::
         :: -> dispersion             -0.101959497748 Eh    ::
         :: -> Gsolv                  -0.052275628188 Eh    ::
         :: repulsion energy           1.674624392376 Eh    ::

    * Orbital Energies and Occupations

         #    Occupation            Energy/Eh            Energy/eV
      -------------------------------------------------------------
         1        2.0000           -0.7725307             -21.0216
       ...           ...                  ...                  ...
        89        2.0000           -0.4298707             -11.6974
        90        2.0000           -0.4273623             -11.6291
        91        2.0000           -0.4266259             -11.6091
        92        2.0000           -0.4259813             -11.5915
        93        2.0000           -0.4246690             -11.5558
        94        2.0000           -0.4192553             -11.4085
        95        2.0000           -0.4149128             -11.2904
        96        2.0000           -0.4136139             -11.2550
        97        2.0000           -0.4127673             -11.2320
        98        2.0000           -0.4066079             -11.0644
        99        2.0000           -0.3903959             -10.6232
       100        1.0000           -0.3630097              -9.8780
       101        0.9984           -0.2880965              -7.8395 (HOMO)
       102        0.0016           -0.2758403              -7.5060 (LUMO)
       103                         -0.2634597              -7.1691
       104                         -0.2497845              -6.7970
       105                         -0.2464716              -6.7068
       106                         -0.2440823              -6.6418
       107                         -0.2307669              -6.2795
       108                         -0.2230674              -6.0700
       109                         -0.2128901              -5.7930
       110                         -0.1903486              -5.1796
       111                         -0.1556907              -4.2366
       112                         -0.1353089              -3.6819
       ...                                ...                  ...
       192                          1.1648891              31.6982
      -------------------------------------------------------------
                  HL-Gap            0.0122562 Eh            0.3335 eV

     #   Z          covCN         q      C6AA      α(0)
     1   6 C        3.760    -0.115    22.752     6.800
     2   6 C        3.784     0.158    18.073     6.056
     3   8 O        1.701    -0.327    19.475     5.958
     4   6 C        3.582     0.227    17.655     6.098
     5   8 O        1.704    -0.317    19.298     5.931
     6   6 C        2.724     0.334    21.317     7.558
     7   8 O        0.856    -0.495    23.669     6.523
     8   6 C        2.971    -0.030    28.737     8.793
     9   6 C        2.925    -0.025    28.631     8.775
    10   6 C        2.916    -0.029    28.736     8.790
    11   6 C        2.920    -0.027    28.688     8.783
    12   6 C        2.918    -0.027    28.669     8.780
    13   6 C        2.920    -0.027    28.678     8.782
    14   6 C        3.812    -0.074    21.905     6.662
    15   6 C        2.908    -0.038    28.941     8.821
    16   6 C        2.898    -0.049    29.222     8.863
    17   6 C        3.052     0.043    26.998     8.522
    18   6 C        3.052    -0.018    28.418     8.743
    19   6 C        3.056    -0.004    28.064     8.688
    20   6 C        2.910    -0.026    28.657     8.778
    21   6 C        2.914    -0.033    28.821     8.803
    22   6 C        2.922    -0.025    28.625     8.774
    23   6 C        2.907    -0.049    29.205     8.861
    24   6 C        3.064     0.049    26.844     8.496
    25   7 N        2.793    -0.020    21.638     6.909
    26   6 C        2.912     0.062    26.612     8.459
    27   6 C        2.922    -0.040    28.988     8.829
    28   6 C        2.959    -0.027    28.681     8.784
    29   6 C        2.970    -0.084    30.091     8.998
    30  16 S        3.821     0.928   108.734    17.550
    31   8 O        0.860    -0.580    25.642     6.789
    32   8 O        0.860    -0.580    25.636     6.788
    33   6 C        2.972    -0.071    29.776     8.951
    34   6 C        2.953    -0.024    28.604     8.772
    35   6 C        2.921    -0.022    28.549     8.762
    36   6 C        2.920    -0.022    28.557     8.763
    37   6 C        2.921    -0.022    28.547     8.762
    38   6 C        2.961    -0.027    28.686     8.785
    39   6 C        2.951    -0.025    28.619     8.774
    40   6 C        2.922    -0.042    29.056     8.840
    41   1 H        0.925     0.065     2.143     2.290
    42   1 H        0.925     0.070     2.083     2.257
    43   1 H        0.925     0.062     2.173     2.305
    44   1 H        0.924     0.067     2.116     2.275
    45   1 H        0.923     0.034     2.526     2.485
    46   1 H        0.926     0.041     2.440     2.443
    47   1 H        0.926     0.042     2.419     2.432
    48   1 H        0.926     0.048     2.342     2.393
    49   1 H        0.926     0.047     2.363     2.404
    50   1 H        0.926     0.045     2.384     2.414
    51   1 H        0.925     0.060     2.195     2.317
    52   1 H        0.923     0.096     1.826     2.113
    53   1 H        0.926     0.056     2.248     2.345
    54   1 H        0.926     0.052     2.296     2.370
    55   1 H        0.926     0.051     2.307     2.375
    56   1 H        0.926     0.047     2.362     2.403
    57   1 H        0.926     0.052     2.301     2.372
    58   1 H        0.926     0.050     2.325     2.385
    59   1 H        0.926     0.062     2.171     2.304
    60   1 H        0.926     0.055     2.258     2.350
    61   1 H        0.926     0.055     2.256     2.349
    62   1 H        0.926     0.060     2.196     2.318
    63   1 H        0.926     0.063     2.169     2.303
    64   1 H        0.926     0.063     2.170     2.303
    65   1 H        0.926     0.052     2.300     2.372
    66   1 H        0.926     0.061     2.183     2.311
    67   1 H        0.926     0.067     2.113     2.273

molecular dipole:
                 x           y           z       tot (Debye)
 q only:        2.016       1.955       0.675
   full:        1.934       1.890       0.448       6.968

 projected vibrational frequencies (cm⁻¹)
eigval :       -0.00    -0.00     0.00     0.00     0.00     0.00
eigval :       10.47    13.17    17.51    28.31    35.16    42.76
eigval :       46.38    62.91    68.03    87.59    90.66   112.16
eigval :      116.48   122.16   129.24   134.74   139.51   146.21
eigval :      166.14   180.39   191.04   191.28   198.43   211.46
eigval :      223.73   247.42   275.31   280.69   291.26   306.68
eigval :      313.56   335.90   340.97   352.73   366.44   370.42
eigval :      373.15   380.80   385.31   385.55   400.17   408.85
eigval :      415.65   422.07   443.50   452.66   472.20   479.76
eigval :      505.88   511.41   519.70   528.34   533.27   568.64
eigval :      584.77   585.82   591.46   596.56   605.81   626.83
eigval :      636.03   643.19   651.72   657.72   661.85   667.05
eigval :      681.75   686.10   694.28   728.56   749.58   749.74
eigval :      757.82   778.85   791.31   814.39   839.39   844.06
eigval :      852.52   867.56   871.00   880.00   886.48   895.37
eigval :      903.53   906.65   908.11   908.64   919.29   922.57
eigval :      926.93   927.38   929.91   930.53   932.45   950.08
eigval :      965.97   973.17   983.28   989.78  1009.12  1022.95
eigval :     1041.04  1054.72  1062.76  1066.06  1069.83  1073.53
eigval :     1074.23  1087.77  1102.17  1103.46  1114.91  1115.50
eigval :     1116.36  1120.58  1136.20  1146.88  1160.36  1164.79
eigval :     1174.72  1175.41  1175.76  1178.15  1182.40  1184.78
eigval :     1196.22  1214.82  1228.99  1232.55  1244.96  1252.96
eigval :     1258.66  1272.61  1273.35  1289.72  1305.16  1318.46
eigval :     1319.33  1326.08  1333.40  1334.16  1369.19  1371.78
eigval :     1388.20  1393.09  1401.00  1417.50  1418.43  1427.01
eigval :     1429.17  1431.97  1441.69  1447.83  1455.37  1456.68
eigval :     1472.36  1476.80  1485.93  1528.45  1530.54  1544.78
eigval :     1558.16  1571.21  1574.15  1581.81  1593.68  1620.46
eigval :     2839.19  2866.10  2967.59  2998.26  3045.45  3052.59
eigval :     3056.69  3076.88  3081.13  3085.06  3085.48  3089.41
eigval :     3090.74  3091.73  3095.79  3095.96  3097.10  3098.11
eigval :     3099.87  3100.84  3103.94  3108.99  3109.77  3110.77
eigval :     3111.24  3114.03  3114.45

   temp. (K)  partition function   enthalpy   heat capacity  entropy
                                   cal/mol     cal/K/mol   cal/K/mol   J/K/mol
 298.15  VIB  0.268E+16            20202.607    126.492    125.293
         ROT  0.387E+08              888.752      2.981     37.702
         INT  0.104E+24            21091.360    129.473    162.996
         TR   0.125E+29             1481.254      4.968     44.777
         TOT                       22572.6135   134.4413   207.7728   869.3215

       T/K    H(0)-H(T)+PV         H(T)/Eh          T*S/Eh         G(T)/Eh
   ------------------------------------------------------------------------
    298.15    0.359717E-01    0.541224E+00    0.987196E-01    0.442505E+00
   ------------------------------------------------------------------------

         :::::::::::::::::::::::::::::::::::::::::::::::::::::
         ::                  THERMODYNAMIC                  ::
         :::::::::::::::::::::::::::::::::::::::::::::::::::::
         :: total free energy        -110.457902547667 Eh   ::
         ::.................................................::
         :: total energy             -110.900407436981 Eh   ::
         :: zero point energy           0.505252714114 Eh   ::
         :: G(RRHO) w/o ZPVE           -0.062747824800 Eh   ::
         :: G(RRHO) contrib.            0.442504889314 Eh   ::
         :::::::::::::::::::::::::::::::::::::::::::::::::::::

           -------------------------------------------------
          | TOTAL ENERGY             -110.900407436981 Eh   |
          | TOTAL ENTHALPY           -110.359182973585 Eh   |
          | TOTAL FREE ENERGY        -110.457902547667 Eh   |
          | GRADIENT NORM               0.000089667586 Eh/α |
          | HOMO-LUMO GAP               0.333508398685 eV   |
           -------------------------------------------------

 * finished run on 2025/09/13 at 09:27:47.074
