   * xtb version 6.7.1 (edcfbbe) compiled by 'albert@albert-system' on 2024-07-22

   ID    Z sym.   atoms
    1    6 C      1, 2, 4, 6, 8-24, 26-29, 33-40
    2    8 O      3, 5, 7, 31, 32
    3    7 N      25
    4   16 S      30
    5    1 H      41-67

          program call               : xtb data2507/toluene/CzSO-1CO/CzSO-1CO_toluene_T1_crest.xyz --gfn 2 --uhf 2 --gbsa toluene --ohess vtight --parallel 40 --molden --ceasefiles --namespace data2507/toluene/CzSO-1CO/CzSO-1CO_toluene_T1_finalOpt
      * Solvation model:               GBSA
        Solvent                        toluene
        Solvent mass                       9.2140E+01 g/mol
          :  Hamiltonian                  GFN2-xTB          :
 * total energy  :  -110.8978772 Eh     change       -0.2318330E-08 Eh
 * total energy  :  -110.8982976 Eh     change       -0.4204599E-03 Eh
 * total energy  :  -110.8984578 Eh     change       -0.1601815E-03 Eh
 * total energy  :  -110.8985226 Eh     change       -0.6474155E-04 Eh
 * total energy  :  -110.8986000 Eh     change       -0.7745926E-04 Eh
 * total energy  :  -110.8986536 Eh     change       -0.5361093E-04 Eh
 * total energy  :  -110.8987149 Eh     change       -0.6128608E-04 Eh
 * total energy  :  -110.8987820 Eh     change       -0.6706644E-04 Eh
 * total energy  :  -110.8988409 Eh     change       -0.5894870E-04 Eh
 * total energy  :  -110.8988992 Eh     change       -0.5830486E-04 Eh
 * total energy  :  -110.9003582 Eh     change       -0.1221842E-05 Eh
 * total energy  :  -110.9003595 Eh     change       -0.1243102E-05 Eh
 * total energy  :  -110.9003607 Eh     change       -0.1244789E-05 Eh
 * total energy  :  -110.9003619 Eh     change       -0.1185642E-05 Eh
 * total energy  :  -110.9003630 Eh     change       -0.1125934E-05 Eh
 * total energy  :  -110.9003641 Eh     change       -0.1114924E-05 Eh
 * total energy  :  -110.9003653 Eh     change       -0.1157948E-05 Eh
 * total energy  :  -110.9003665 Eh     change       -0.1232325E-05 Eh
 * total energy  :  -110.9003665 Eh     change       -0.8334794E-08 Eh
   *** GEOMETRY OPTIMIZATION CONVERGED AFTER 68 ITERATIONS ***

 final structure:
================
67
 xtb: 6.7.1 (edcfbbe)
C            5.11669337422293       -2.39162799590660        0.70925311941415
C            4.50438748407587       -1.42037070429844       -0.32068187679973
O            5.53166400940179       -0.43272176764806       -0.50711951177012
C            5.37390749634303        0.56407919060088       -1.46072701663568
O            4.32153331032392        1.45717570594398       -1.17198095564406
C            3.09179937655946        1.15143500974186       -1.69232237830108
O            2.95256017881755        0.32505772815770       -2.58771108986894
C            2.01068130738691        1.94440337127872       -1.12264264555464
C            0.69196259177726        1.62065346852569       -1.46391366093602
C           -0.36216802876973        2.32444753845486       -0.92237517408378
C           -0.11708712639482        3.37463016810499       -0.04756829468799
C            1.18808360930379        3.71691904843331        0.27791281749570
C            2.24962722300990        3.01018138433205       -0.24861231299301
C            4.17930449598070       -2.20972905300571       -1.61237677166495
C            3.00124818451997       -3.09144132106454       -1.46614349613728
C            1.88378916299699       -2.67051375602511       -0.76411174426751
C            1.97217208939556       -1.51125422762025       -0.01030157941518
C            3.24290650121578       -0.86190644006765        0.24557741455159
C            3.01664133251652        0.11232843914134        1.21637923852049
C            3.86732725162601        1.01719073455935        1.87908052875163
C            3.31461329636615        1.89122553601830        2.79268045171739
C            1.94608559604618        1.90578664897774        3.03323404002894
C            1.07739634180325        1.01801621248881        2.38624432383129
C            1.61653494024957        0.10971313137915        1.50936038218782
N            1.00620268236071       -0.88965463675035        0.74937776128503
C           -0.35988713896461       -1.13818179012918        0.67952288470638
C           -0.96787610466385       -1.37115292601082       -0.56191871350002
C           -2.32859589374451       -1.56764538227049       -0.64068088918129
C           -3.09393688442062       -1.54903362572365        0.51621170182202
S           -4.86926410612960       -1.66279973707902        0.37011974730216
O           -5.20912855345329       -2.65203878944308       -0.63280771607112
O           -5.44128730767927       -1.84411712268559        1.68928713898073
C           -5.31554723410141       -0.03628386140798       -0.24532597615284
C           -5.26672327627483        1.03536558560862        0.62674694536775
C           -5.54398060254710        2.30586489776587        0.15040855663238
C           -5.85795238240672        2.48880642747748       -1.18840299169236
C           -5.90306710926912        1.40623234695170       -2.05333752264638
C           -5.62618954882589        0.13322641302721       -1.58072822020677
C           -2.50495139051157       -1.35055771089206        1.75454681336209
C           -1.14292769461870       -1.15386838051367        1.84151254981423
H            4.42874866417061       -3.21047846703060        0.89515049512829
H            5.31444671636119       -1.85958073112376        1.63513689190581
H            6.05359397162431       -2.77745657749957        0.31787503174955
H            6.29564506467964        1.15185918719372       -1.41215415756313
H            5.23631266517982        0.15772308200198       -2.47516750142244
H            0.52759300240795        0.80992666697778       -2.15744539247620
H           -1.37701987254147        2.05976240295353       -1.18087727802637
H           -0.94227029997648        3.92832712264815        0.37408824266557
H            1.37672521219135        4.54177953588632        0.94867577279424
H            3.26631751271127        3.26946969639306       -0.00077953390813
H            5.06106840844625       -2.75670124222375       -1.94642739734091
H            3.91978951073028       -1.46640361317727       -2.38389985535082
H            2.98787537196536       -4.02664737521223       -1.99958423517131
H            0.97371907906753       -3.24998574170260       -0.77944392108487
H            4.92325963914630        1.01398526071743        1.66131857636623
H            3.95199865862411        2.58561335507638        3.31922863575871
H            1.53477198221726        2.61740244423193        3.73208389882174
H            0.01772877236079        1.06996734322395        2.57375268097819
H           -0.36672620594490       -1.36338390627091       -1.45692099159587
H           -2.81600081870416       -1.73766715926766       -1.58746077559043
H           -5.02831591467039        0.85666413353096        1.66344198653069
H           -5.51436464082670        3.15083886908714        0.82127565614474
H           -6.07215738170606        3.48008072397126       -1.55872421781397
H           -6.15204838478973        1.55134063699519       -3.09355873451483
H           -5.65844945716942       -0.73449745139625       -2.22141100991591
H           -3.12944170990124       -1.37332084268842        2.63395631562165
H           -0.67332749618590       -1.04136184792655        2.80534423259254

          :  Hamiltonian                  GFN2-xTB          :
         :: gradient norm              0.000055751782 Eh/a0 ::
         :: HOMO-LUMO gap              0.323219259114 eV    ::
         :: SCC energy              -112.575222408725 Eh    ::
         :: -> dispersion             -0.102170253495 Eh    ::
         :: -> Gsolv                  -0.052101119263 Eh    ::
         :: repulsion energy           1.674855869613 Eh    ::

    * Orbital Energies and Occupations

         #    Occupation            Energy/Eh            Energy/eV
      -------------------------------------------------------------
         1        2.0000           -0.7724252             -21.0188
       ...           ...                  ...                  ...
        89        2.0000           -0.4299548             -11.6997
        90        2.0000           -0.4273452             -11.6287
        91        2.0000           -0.4264560             -11.6045
        92        2.0000           -0.4257905             -11.5864
        93        2.0000           -0.4244130             -11.5489
        94        2.0000           -0.4192487             -11.4083
        95        2.0000           -0.4151993             -11.2981
        96        2.0000           -0.4138464             -11.2613
        97        2.0000           -0.4129454             -11.2368
        98        2.0000           -0.4062477             -11.0546
        99        2.0000           -0.3903529             -10.6220
       100        1.0000           -0.3631211              -9.8810
       101        0.9981           -0.2881611              -7.8413 (HOMO)
       102        0.0019           -0.2762826              -7.5180 (LUMO)
       103                         -0.2642020              -7.1893
       104                         -0.2485581              -6.7636
       105                         -0.2461204              -6.6973
       106                         -0.2439352              -6.6378
       107                         -0.2309654              -6.2849
       108                         -0.2231081              -6.0711
       109                         -0.2128949              -5.7932
       110                         -0.1904103              -5.1813
       111                         -0.1557022              -4.2369
       112                         -0.1353947              -3.6843
       ...                                ...                  ...
       192                          1.1640799              31.6762
      -------------------------------------------------------------
                  HL-Gap            0.0118785 Eh            0.3232 eV

     #   Z          covCN         q      C6AA      α(0)
     1   6 C        3.760    -0.115    22.753     6.800
     2   6 C        3.784     0.158    18.074     6.056
     3   8 O        1.701    -0.327    19.474     5.958
     4   6 C        3.582     0.227    17.658     6.098
     5   8 O        1.704    -0.317    19.294     5.930
     6   6 C        2.724     0.334    21.316     7.558
     7   8 O        0.856    -0.494    23.663     6.522
     8   6 C        2.971    -0.030    28.739     8.793
     9   6 C        2.925    -0.025    28.633     8.775
    10   6 C        2.916    -0.029    28.734     8.790
    11   6 C        2.920    -0.028    28.688     8.783
    12   6 C        2.918    -0.027    28.668     8.780
    13   6 C        2.920    -0.027    28.676     8.781
    14   6 C        3.812    -0.074    21.906     6.662
    15   6 C        2.908    -0.038    28.939     8.821
    16   6 C        2.898    -0.049    29.219     8.863
    17   6 C        3.052     0.043    26.998     8.521
    18   6 C        3.052    -0.019    28.419     8.743
    19   6 C        3.057    -0.004    28.059     8.687
    20   6 C        2.910    -0.026    28.655     8.778
    21   6 C        2.914    -0.033    28.820     8.803
    22   6 C        2.922    -0.025    28.622     8.773
    23   6 C        2.907    -0.049    29.204     8.861
    24   6 C        3.064     0.049    26.844     8.496
    25   7 N        2.793    -0.020    21.639     6.909
    26   6 C        2.912     0.062    26.617     8.460
    27   6 C        2.923    -0.040    28.995     8.830
    28   6 C        2.960    -0.027    28.685     8.785
    29   6 C        2.970    -0.084    30.110     9.001
    30  16 S        3.822     0.928   108.743    17.551
    31   8 O        0.860    -0.580    25.639     6.789
    32   8 O        0.860    -0.579    25.608     6.785
    33   6 C        2.971    -0.072    29.795     8.954
    34   6 C        2.961    -0.027    28.676     8.784
    35   6 C        2.921    -0.022    28.550     8.762
    36   6 C        2.920    -0.022    28.561     8.764
    37   6 C        2.921    -0.022    28.554     8.763
    38   6 C        2.954    -0.025    28.623     8.775
    39   6 C        2.952    -0.025    28.628     8.776
    40   6 C        2.922    -0.043    29.059     8.840
    41   1 H        0.925     0.062     2.172     2.304
    42   1 H        0.925     0.065     2.142     2.289
    43   1 H        0.925     0.070     2.082     2.257
    44   1 H        0.924     0.067     2.115     2.274
    45   1 H        0.923     0.035     2.523     2.484
    46   1 H        0.926     0.041     2.433     2.439
    47   1 H        0.926     0.041     2.429     2.437
    48   1 H        0.926     0.048     2.342     2.393
    49   1 H        0.926     0.047     2.360     2.402
    50   1 H        0.926     0.045     2.381     2.413
    51   1 H        0.925     0.061     2.193     2.316
    52   1 H        0.923     0.096     1.826     2.113
    53   1 H        0.926     0.056     2.247     2.344
    54   1 H        0.926     0.052     2.294     2.369
    55   1 H        0.926     0.051     2.304     2.374
    56   1 H        0.926     0.047     2.361     2.403
    57   1 H        0.926     0.052     2.299     2.371
    58   1 H        0.926     0.050     2.324     2.384
    59   1 H        0.926     0.062     2.172     2.305
    60   1 H        0.926     0.055     2.254     2.348
    61   1 H        0.926     0.053     2.285     2.364
    62   1 H        0.926     0.062     2.175     2.306
    63   1 H        0.926     0.062     2.172     2.305
    64   1 H        0.926     0.060     2.198     2.318
    65   1 H        0.926     0.055     2.262     2.352
    66   1 H        0.926     0.061     2.187     2.312
    67   1 H        0.926     0.068     2.113     2.273

molecular dipole:
                 x           y           z       tot (Debye)
 q only:        2.078       1.994       0.885
   full:        1.990       1.936       0.646       7.244

 projected vibrational frequencies (cm⁻¹)
eigval :       -0.00    -0.00    -0.00    -0.00     0.00     0.00
eigval :        5.43     8.70    14.52    26.18    31.34    40.08
eigval :       45.01    63.69    68.61    90.53    91.79   111.40
eigval :      115.40   122.66   128.33   135.02   139.33   146.74
eigval :      166.67   180.41   190.22   191.78   206.58   212.83
eigval :      222.74   248.06   276.33   281.59   291.34   308.95
eigval :      313.80   336.58   340.95   354.07   363.92   372.15
eigval :      373.98   382.08   385.39   390.10   400.20   409.29
eigval :      415.96   422.58   441.03   450.43   472.72   479.76
eigval :      505.65   511.34   519.67   528.75   532.82   568.75
eigval :      584.35   586.21   591.87   596.50   606.38   627.00
eigval :      636.39   643.92   652.37   656.73   663.01   668.33
eigval :      681.57   687.05   693.59   728.94   751.11   751.37
eigval :      759.77   779.54   791.67   813.90   840.00   845.35
eigval :      852.15   869.94   871.55   881.31   887.75   896.34
eigval :      903.79   906.41   908.58   909.03   918.85   926.58
eigval :      928.24   930.42   931.07   933.40   933.63   950.38
eigval :      965.66   972.40   983.46   989.70  1009.20  1022.81
eigval :     1041.78  1054.71  1062.12  1066.86  1068.71  1073.23
eigval :     1074.21  1087.95  1100.76  1102.83  1114.95  1115.59
eigval :     1116.88  1120.42  1136.03  1147.09  1160.47  1165.36
eigval :     1172.84  1174.82  1175.93  1178.28  1182.55  1185.30
eigval :     1195.84  1212.95  1229.01  1232.60  1244.40  1256.71
eigval :     1257.13  1272.59  1273.52  1291.09  1304.68  1318.61
eigval :     1319.64  1328.93  1333.94  1334.29  1370.16  1372.65
eigval :     1388.01  1393.39  1401.33  1417.34  1418.79  1426.59
eigval :     1429.51  1432.30  1440.45  1447.43  1456.21  1458.14
eigval :     1472.65  1476.69  1486.14  1528.37  1530.76  1544.88
eigval :     1558.23  1570.30  1574.21  1581.70  1592.85  1620.33
eigval :     2839.82  2865.90  2968.00  2999.39  3046.50  3052.72
eigval :     3057.22  3076.31  3082.64  3084.34  3085.20  3089.37
eigval :     3091.05  3092.05  3095.74  3096.54  3098.12  3099.17
eigval :     3101.06  3101.68  3104.79  3109.15  3110.73  3111.67
eigval :     3112.55  3113.95  3115.11

   temp. (K)  partition function   enthalpy   heat capacity  entropy
                                   cal/mol     cal/K/mol   cal/K/mol   J/K/mol
 298.15  VIB  0.109E+17            20207.292    126.256    126.361
         ROT  0.379E+08              888.752      2.981     37.661
         INT  0.415E+24            21096.044    129.237    164.022
         TR   0.125E+29             1481.254      4.968     44.777
         TOT                       22577.2979   134.2055   208.7992   873.6157

       T/K    H(0)-H(T)+PV         H(T)/Eh          T*S/Eh         G(T)/Eh
   ------------------------------------------------------------------------
    298.15    0.359792E-01    0.541344E+00    0.992072E-01    0.442137E+00
   ------------------------------------------------------------------------

         :::::::::::::::::::::::::::::::::::::::::::::::::::::
         ::                  THERMODYNAMIC                  ::
         :::::::::::::::::::::::::::::::::::::::::::::::::::::
         :: total free energy        -110.458229773227 Eh   ::
         ::.................................................::
         :: total energy             -110.900366537395 Eh   ::
         :: zero point energy           0.505364769651 Eh   ::
         :: G(RRHO) w/o ZPVE           -0.063228005483 Eh   ::
         :: G(RRHO) contrib.            0.442136764168 Eh   ::
         :::::::::::::::::::::::::::::::::::::::::::::::::::::

           -------------------------------------------------
          | TOTAL ENERGY             -110.900366537395 Eh   |
          | TOTAL ENTHALPY           -110.359022553396 Eh   |
          | TOTAL FREE ENERGY        -110.458229773227 Eh   |
          | GRADIENT NORM               0.000055386213 Eh/α |
          | HOMO-LUMO GAP               0.323231061993 eV   |
           -------------------------------------------------

 * finished run on 2025/09/13 at 09:39:19.201
