   * xtb version 6.7.1 (edcfbbe) compiled by 'albert@albert-system' on 2024-07-22

   ID    Z sym.   atoms
    1    6 C      1-5, 7-23, 25-31
    2    7 N      6, 24
    3    1 H      32-49

          program call               : xtb data2507/toluene/ImPy-3/ImPy-3_toluene_T1_crest.xyz --gfn 2 --uhf 2 --gbsa toluene --ohess vtight --parallel 40 --molden --ceasefiles --namespace data2507/toluene/ImPy-3/ImPy-3_toluene_T1_finalOpt
      * Solvation model:               GBSA
        Solvent                        toluene
        Solvent mass                       9.2140E+01 g/mol
          :  Hamiltonian                  GFN2-xTB          :
 * total energy  :   -77.1331819 Eh     change       -0.2420109E-08 Eh
 * total energy  :   -77.1331977 Eh     change       -0.1580524E-04 Eh
 * total energy  :   -77.1332022 Eh     change       -0.4510932E-05 Eh
 * total energy  :   -77.1332040 Eh     change       -0.1815833E-05 Eh
 * total energy  :   -77.1332064 Eh     change       -0.2395151E-05 Eh
 * total energy  :   -77.1332087 Eh     change       -0.2242192E-05 Eh
 * total energy  :   -77.1332113 Eh     change       -0.2626662E-05 Eh
 * total energy  :   -77.1332139 Eh     change       -0.2554331E-05 Eh
 * total energy  :   -77.1332158 Eh     change       -0.1934107E-05 Eh
 * total energy  :   -77.1332174 Eh     change       -0.1642203E-05 Eh
 * total energy  :   -77.1332228 Eh     change       -0.9350220E-06 Eh
 * total energy  :   -77.1332235 Eh     change       -0.6738845E-06 Eh
 * total energy  :   -77.1332239 Eh     change       -0.3814562E-06 Eh
 * total energy  :   -77.1332242 Eh     change       -0.2925419E-06 Eh
 * total energy  :   -77.1332245 Eh     change       -0.3258040E-06 Eh
 * total energy  :   -77.1332249 Eh     change       -0.4282469E-06 Eh
 * total energy  :   -77.1332254 Eh     change       -0.4317251E-06 Eh
 * total energy  :   -77.1332257 Eh     change       -0.3782446E-06 Eh
 * total energy  :   -77.1332257 Eh     change       -0.7298354E-08 Eh
   *** GEOMETRY OPTIMIZATION CONVERGED AFTER 22 ITERATIONS ***

 final structure:
================
49
 xtb: 6.7.1 (edcfbbe)
C           -5.59151019856230        3.40671351105625        0.51956732943730
C           -4.29118971651929        3.62335182693868        0.08897217385494
C           -3.42019838873525        2.56161021704407       -0.05043622541845
C           -3.83822972807524        1.25813827433208        0.23091597011776
C           -2.89966167960905        0.16515946649438        0.06954710518923
N           -1.58036049188879        0.35327144635436        0.21132705723065
C           -0.96115509899595       -0.82113259357879        0.07005228483525
C            0.41508501504353       -1.06651900703481        0.28563680070815
C            0.83829876321725       -2.31330604072673        0.80944879312598
C            2.14751181377107       -2.60334483570620        1.02544979241737
C            3.17658652258915       -1.66220256375465        0.70290995290876
C            4.52591253701313       -1.96317349166369        0.87596031684453
C            5.50816639209131       -1.03239507141123        0.58605891255128
C            5.16874985232531        0.24388685303734        0.11322599962747
C            6.15317761374883        1.21678078879498       -0.18705302724160
C            5.79335790938022        2.46953703824722       -0.64975399653983
C            4.46754902466388        2.79910128055701       -0.83373008513743
C            3.44196536938129        1.85954431646326       -0.54742175963586
C            2.08611908613035        2.15685627858290       -0.72294370544284
C            1.10491777834775        1.21973453329871       -0.44412451767321
C            1.42455799380610       -0.05063530093519        0.03413339977319
C            2.79235165358365       -0.38103313302690        0.22373244309210
C            3.79832005697836        0.57228506011959       -0.06845040999563
N           -1.90234532043995       -1.80527623878943       -0.24535959160020
C           -1.75184639181850       -3.07661509890434       -0.69003950683122
C           -2.84304437033847       -3.81180300741112       -1.03924969280381
C           -4.13525537671473       -3.23938338224201       -0.98328805494376
C           -4.28145093683045       -1.93133450126048       -0.60957947839190
C           -3.15201771110066       -1.19027142945013       -0.23908424279884
C           -5.14225724538638        1.05349830062421        0.68634226690166
C           -6.00879735859729        2.12089607344649        0.82563652476040
H           -6.27363641884867        4.23728369310995        0.62674655398744
H           -3.95725629718605        4.62548227306599       -0.13803362397481
H           -2.40505067428409        2.71850875557056       -0.38097852048142
H            0.08873080133580       -3.02539643234016        1.12554474156535
H            2.43520075479100       -3.54613315249371        1.46767014485190
H            4.80287147899404       -2.94211693863973        1.24217624223274
H            6.55039579972175       -1.28258002724423        0.72434032468527
H            7.19378788387757        0.96389213050740       -0.04505151507877
H            6.56239648828441        3.19699335401308       -0.87084262245513
H            4.18811694638605        3.77656703835569       -1.19869616407105
H            1.80451092577361        3.13602820089006       -1.08369880635265
H            0.06761026627592        1.47391276639513       -0.58615728615337
H           -0.74531100813698       -3.45090766787567       -0.78255441877865
H           -2.71440039471311       -4.82346902273536       -1.38604386618394
H           -4.99070305375408       -3.82816222206457       -1.27237760614373
H           -5.24407583197347       -1.44800121795138       -0.62463068125830
H           -5.46590618366857        0.06255156280612        0.96596409248120
H           -7.01464871953472        1.95082208203442        1.18204324730638

          :  Hamiltonian                  GFN2-xTB          :
         :: gradient norm              0.000071689162 Eh/a0 ::
         :: HOMO-LUMO gap              0.328279776573 eV    ::
         :: SCC energy               -78.574561629893 Eh    ::
         :: -> dispersion             -0.066723698295 Eh    ::
         :: -> Gsolv                  -0.033201851907 Eh    ::
         :: repulsion energy           1.441335889755 Eh    ::

    * Orbital Energies and Occupations

         #    Occupation            Energy/Eh            Energy/eV
      -------------------------------------------------------------
         1        2.0000           -0.7004619             -19.0605
       ...           ...                  ...                  ...
        61        2.0000           -0.4267731             -11.6131
        62        2.0000           -0.4231966             -11.5158
        63        2.0000           -0.4158837             -11.3168
        64        2.0000           -0.4073685             -11.0851
        65        2.0000           -0.4065735             -11.0634
        66        2.0000           -0.4032940             -10.9742
        67        2.0000           -0.4001062             -10.8874
        68        2.0000           -0.3952299             -10.7548
        69        2.0000           -0.3898906             -10.6095
        70        2.0000           -0.3827554             -10.4153
        71        2.0000           -0.3708934             -10.0925
        72        1.0000           -0.3450816              -9.3901
        73        0.9983           -0.2833799              -7.7112 (HOMO)
        74        0.0017           -0.2713157              -7.3829 (LUMO)
        75                         -0.2440262              -6.6403
        76                         -0.2360813              -6.4241
        77                         -0.2244343              -6.1072
        78                         -0.2214456              -6.0258
        79                         -0.2182320              -5.9384
        80                         -0.1930474              -5.2531
        81                         -0.1785759              -4.8593
        82                         -0.1543418              -4.1999
        83                         -0.1233800              -3.3573
        84                         -0.1180772              -3.2130
       ...                                ...                  ...
       142                          0.7296462              19.8547
      -------------------------------------------------------------
                  HL-Gap            0.0120642 Eh            0.3283 eV

     #   Z          covCN         q      C6AA      α(0)
     1   6 C        2.919    -0.029    28.735     8.790
     2   6 C        2.917    -0.028    28.711     8.787
     3   6 C        2.927    -0.027    28.686     8.783
     4   6 C        2.973     0.007    27.861     8.658
     5   6 C        3.111     0.065    26.393     8.416
     6   7 N        1.901    -0.301    28.639     7.934
     7   6 C        3.084     0.118    25.315     8.248
     8   6 C        2.964    -0.026    28.640     8.778
     9   6 C        2.912    -0.042    29.053     8.839
    10   6 C        2.912    -0.047    29.168     8.856
    11   6 C        2.979     0.005    27.909     8.666
    12   6 C        2.915    -0.043    29.069     8.841
    13   6 C        2.916    -0.044    29.096     8.845
    14   6 C        2.978     0.008    27.845     8.656
    15   6 C        2.918    -0.045    29.124     8.850
    16   6 C        2.907    -0.031    28.782     8.797
    17   6 C        2.917    -0.045    29.105     8.847
    18   6 C        2.978     0.007    27.851     8.657
    19   6 C        2.916    -0.042    29.040     8.837
    20   6 C        2.915    -0.045    29.117     8.849
    21   6 C        2.975     0.007    27.867     8.659
    22   6 C        2.992     0.000    28.017     8.683
    23   6 C        2.997    -0.001    28.040     8.686
    24   7 N        2.832     0.001    21.235     6.844
    25   6 C        2.853     0.021    27.539     8.601
    26   6 C        2.914    -0.039    28.980     8.828
    27   6 C        2.920    -0.024    28.596     8.769
    28   6 C        2.908    -0.033    28.813     8.802
    29   6 C        3.050     0.030    27.276     8.565
    30   6 C        2.923    -0.038    28.955     8.824
    31   6 C        2.918    -0.030    28.741     8.791
    32   1 H        0.926     0.036     2.500     2.473
    33   1 H        0.926     0.036     2.498     2.472
    34   1 H        0.926     0.044     2.392     2.419
    35   1 H        0.926     0.025     2.661     2.551
    36   1 H        0.926     0.028     2.620     2.531
    37   1 H        0.925     0.026     2.639     2.540
    38   1 H        0.926     0.026     2.645     2.543
    39   1 H        0.926     0.026     2.649     2.545
    40   1 H        0.925     0.026     2.646     2.544
    41   1 H        0.926     0.027     2.634     2.538
    42   1 H        0.926     0.028     2.616     2.529
    43   1 H        0.926     0.049     2.327     2.386
    44   1 H        0.926     0.066     2.132     2.284
    45   1 H        0.926     0.061     2.183     2.311
    46   1 H        0.926     0.056     2.242     2.341
    47   1 H        0.926     0.060     2.201     2.320
    48   1 H        0.926     0.035     2.518     2.481
    49   1 H        0.926     0.036     2.501     2.473

molecular dipole:
                 x           y           z       tot (Debye)
 q only:       -1.938      -1.166      -0.480
   full:       -2.013      -1.550      -0.530       6.598

 projected vibrational frequencies (cm⁻¹)
eigval :       -0.00     0.00     0.00     0.00     0.00     0.00
eigval :       12.14    26.03    31.77    57.25    61.19    83.37
eigval :       97.79   132.21   152.51   173.78   181.78   190.00
eigval :      200.55   230.64   257.87   273.73   280.84   334.37
eigval :      362.32   369.80   380.82   391.91   399.46   405.95
eigval :      422.89   450.19   451.45   465.69   493.41   495.99
eigval :      501.27   534.21   547.72   563.34   578.08   584.94
eigval :      592.94   615.26   621.56   647.46   656.05   662.26
eigval :      669.71   677.48   683.70   720.84   729.69   733.23
eigval :      747.03   754.89   760.10   774.48   777.64   797.17
eigval :      800.45   809.25   812.83   831.60   859.43   866.60
eigval :      875.99   879.58   880.65   897.62   909.10   910.54
eigval :      914.30   924.09   927.79   936.52   953.39   985.66
eigval :     1000.16  1058.59  1074.90  1081.38  1116.08  1117.28
eigval :     1122.71  1136.29  1143.53  1150.27  1169.76  1176.48
eigval :     1177.80  1187.76  1192.74  1200.63  1205.51  1211.16
eigval :     1229.24  1235.23  1246.20  1250.62  1272.17  1290.29
eigval :     1317.15  1321.90  1322.96  1331.48  1332.27  1360.73
eigval :     1365.19  1374.58  1379.95  1389.49  1406.49  1417.37
eigval :     1429.61  1438.70  1450.72  1459.44  1481.31  1490.10
eigval :     1505.56  1515.03  1516.66  1521.70  1539.39  1546.49
eigval :     1568.14  1570.95  1588.95  3059.81  3060.87  3062.13
eigval :     3068.85  3070.55  3073.39  3074.43  3075.34  3077.87
eigval :     3082.75  3085.64  3094.34  3101.08  3105.06  3109.57
eigval :     3118.89  3120.22  3123.88

   temp. (K)  partition function   enthalpy   heat capacity  entropy
                                   cal/mol     cal/K/mol   cal/K/mol   J/K/mol
 298.15  VIB  0.514E+09            12599.880     86.275     75.298
         ROT  0.216E+08              888.752      2.981     36.538
         INT  0.111E+17            13488.632     89.256    111.836
         TR   0.758E+28             1481.254      4.968     43.789
         TOT                       14969.8859    94.2242   155.6253   651.1362

       T/K    H(0)-H(T)+PV         H(T)/Eh          T*S/Eh         G(T)/Eh
   ------------------------------------------------------------------------
    298.15    0.238560E-01    0.393666E+00    0.739426E-01    0.319724E+00
   ------------------------------------------------------------------------

         :::::::::::::::::::::::::::::::::::::::::::::::::::::
         ::                  THERMODYNAMIC                  ::
         :::::::::::::::::::::::::::::::::::::::::::::::::::::
         :: total free energy         -76.813502117701 Eh   ::
         ::.................................................::
         :: total energy              -77.133225740833 Eh   ::
         :: zero point energy           0.369810186566 Eh   ::
         :: G(RRHO) w/o ZPVE           -0.050086563434 Eh   ::
         :: G(RRHO) contrib.            0.319723623132 Eh   ::
         :::::::::::::::::::::::::::::::::::::::::::::::::::::

           -------------------------------------------------
          | TOTAL ENERGY              -77.133225740833 Eh   |
          | TOTAL ENTHALPY            -76.739559522616 Eh   |
          | TOTAL FREE ENERGY         -76.813502117701 Eh   |
          | GRADIENT NORM               0.000071693933 Eh/α |
          | HOMO-LUMO GAP               0.328282872916 eV   |
           -------------------------------------------------

 * finished run on 2025/09/04 at 13:16:50.954
