   * xtb version 6.7.1 (edcfbbe) compiled by 'albert@albert-system' on 2024-07-22

   ID    Z sym.   atoms
    1    6 C      1-5, 7-23, 25-31
    2    7 N      6, 24
    3    1 H      32-49

          program call               : xtb data2507/toluene/ImPy-3/ImPy-3_toluene_S0_finalOpt.xtbopt.xyz --gfn 2 --uhf 2 --gbsa toluene --ohess vtight --parallel 40 --molden --ceasefiles --namespace data2507/toluene/ImPy-3/ImPy-3_toluene_T1_preOpt
      * Solvation model:               GBSA
        Solvent                        toluene
        Solvent mass                       9.2140E+01 g/mol
          :  Hamiltonian                  GFN2-xTB          :
 * total energy  :   -77.1247667 Eh     change       -0.2944861E-07 Eh
 * total energy  :   -77.1303121 Eh     change       -0.5545344E-02 Eh
 * total energy  :   -77.1320974 Eh     change       -0.1785395E-02 Eh
 * total energy  :   -77.1322570 Eh     change       -0.1595531E-03 Eh
 * total energy  :   -77.1324630 Eh     change       -0.2060014E-03 Eh
 * total energy  :   -77.1325452 Eh     change       -0.8218603E-04 Eh
 * total energy  :   -77.1326355 Eh     change       -0.9028270E-04 Eh
 * total energy  :   -77.1327107 Eh     change       -0.7519228E-04 Eh
 * total energy  :   -77.1327676 Eh     change       -0.5692310E-04 Eh
 * total energy  :   -77.1328219 Eh     change       -0.5429730E-04 Eh
 * total energy  :   -77.1331919 Eh     change       -0.1093752E-05 Eh
 * total energy  :   -77.1331928 Eh     change       -0.9795015E-06 Eh
 * total energy  :   -77.1331935 Eh     change       -0.6948215E-06 Eh
 * total energy  :   -77.1331940 Eh     change       -0.4527222E-06 Eh
 * total energy  :   -77.1331944 Eh     change       -0.4078633E-06 Eh
 * total energy  :   -77.1331948 Eh     change       -0.4420116E-06 Eh
 * total energy  :   -77.1331953 Eh     change       -0.4643667E-06 Eh
 * total energy  :   -77.1331958 Eh     change       -0.4803459E-06 Eh
 * total energy  :   -77.1331958 Eh     change       -0.4503136E-08 Eh
   *** GEOMETRY OPTIMIZATION CONVERGED AFTER 44 ITERATIONS ***

 final structure:
================
49
 xtb: 6.7.1 (edcfbbe)
C           -5.60103662717177        3.33092381504024        0.52198538773743
C           -4.36781588654749        3.33744860364102        1.15638849458173
C           -3.49516319852712        2.28148065329228        0.98705577774087
C           -3.84404669425759        1.19301514412402        0.18241320087912
C           -2.89893817790395        0.10218522406934        0.03852610726269
N           -1.58442895203828        0.30457939329104        0.20446381964315
C           -0.94666736798427       -0.85888617588741        0.06154287480713
C            0.43707774586695       -1.07399144164294        0.26555077468999
C            0.89242591338999       -2.30623096595858        0.79517031991167
C            2.20873446981989       -2.55903552097569        1.01650675431225
C            3.21261776421573       -1.59217929262036        0.69087507450969
C            4.56878150456340       -1.85410881559266        0.87347461105543
C            5.52676274213947       -0.90009275214680        0.57723366225322
C            5.15490320672139        0.35977452367067        0.08571287924945
C            6.11416966826364        1.35462517216469       -0.22504045365478
C            5.72272939038565        2.58980768618359       -0.70873921288901
C            4.38925727970956        2.88084994348579       -0.90223436931095
C            3.38785583836017        1.91897990642826       -0.60359616579940
C            2.02521823669610        2.17807791270577       -0.78545738624806
C            1.06736247436311        1.22009774164888       -0.49474129465731
C            1.41960614305186       -0.03473120132221        0.00201754149368
C            2.79552418520371       -0.32695268084663        0.19701031856912
C            3.77685091591122        0.64865865235450       -0.10515254980584
N           -1.87269297453327       -1.85830575511307       -0.24461996517742
C           -1.71070645407752       -3.14232763037581       -0.64828273725476
C           -2.79882977719435       -3.91752590636137       -0.90749329334326
C           -4.10203979432060       -3.38520679107817       -0.76345489068987
C           -4.26310398501107       -2.06375008377073       -0.44884685396558
C           -3.13259699598007       -1.26294511066343       -0.23882716905643
C           -5.07750500543262        1.20716924571517       -0.47092929355182
C           -5.94641720566813        2.26807787221153       -0.29759581641505
H           -6.28607698265822        4.15490321192298        0.65790932096258
H           -4.08857515845255        4.16907500436551        1.78698353802130
H           -2.53223832231887        2.27167426569957        1.47472191933837
H            0.16201664465104       -3.03660153135444        1.11421113559746
H            2.52066432002149       -3.49060628805298        1.46597665942662
H            4.87067086331476       -2.82084846666341        1.25213049852486
H            6.57469178491442       -1.11977284477274        0.72393520511410
H            7.16057209550865        1.13201761468559       -0.07515766870944
H            6.47279047716380        3.33409719740240       -0.93885814229879
H            4.08498152085407        3.84420600897436       -1.28437100562607
H            1.71798137787337        3.14388446178004       -1.16089307753042
H            0.02460227011692        1.44871444572073       -0.64372213585117
H           -0.70032003650734       -3.49702318539881       -0.77133030967333
H           -2.66300498441394       -4.93802861523527       -1.22440015470840
H           -4.95733930261230       -4.02027149445416       -0.92815851260901
H           -5.24238830604753       -1.62455007026937       -0.35609298391029
H           -5.34226969422168        0.40566597314282       -1.14313306219577
H           -6.89775323862530        2.26932564663308       -0.81008581314451

          :  Hamiltonian                  GFN2-xTB          :
         :: gradient norm              0.000053733982 Eh/a0 ::
         :: HOMO-LUMO gap              0.327452064615 eV    ::
         :: SCC energy               -78.574150864580 Eh    ::
         :: -> dispersion             -0.066564195269 Eh    ::
         :: -> Gsolv                  -0.033203232380 Eh    ::
         :: repulsion energy           1.440955078046 Eh    ::

    * Orbital Energies and Occupations

         #    Occupation            Energy/Eh            Energy/eV
      -------------------------------------------------------------
         1        2.0000           -0.7000443             -19.0492
       ...           ...                  ...                  ...
        61        2.0000           -0.4252788             -11.5724
        62        2.0000           -0.4229609             -11.5094
        63        2.0000           -0.4162430             -11.3265
        64        2.0000           -0.4070136             -11.0754
        65        2.0000           -0.4058392             -11.0434
        66        2.0000           -0.4032451             -10.9729
        67        2.0000           -0.4001920             -10.8898
        68        2.0000           -0.3951288             -10.7520
        69        2.0000           -0.3898428             -10.6082
        70        2.0000           -0.3823357             -10.4039
        71        2.0000           -0.3705709             -10.0837
        72        1.0000           -0.3453238              -9.3967
        73        0.9982           -0.2833565              -7.7105 (HOMO)
        74        0.0018           -0.2713229              -7.3831 (LUMO)
        75                         -0.2436639              -6.6304
        76                         -0.2357865              -6.4161
        77                         -0.2240507              -6.0967
        78                         -0.2213883              -6.0243
        79                         -0.2182163              -5.9380
        80                         -0.1932812              -5.2594
        81                         -0.1786031              -4.8600
        82                         -0.1532022              -4.1688
        83                         -0.1230246              -3.3477
        84                         -0.1178137              -3.2059
       ...                                ...                  ...
       142                          0.7295504              19.8521
      -------------------------------------------------------------
                  HL-Gap            0.0120336 Eh            0.3275 eV

     #   Z          covCN         q      C6AA      α(0)
     1   6 C        2.919    -0.029    28.733     8.790
     2   6 C        2.917    -0.028    28.711     8.787
     3   6 C        2.927    -0.028    28.701     8.786
     4   6 C        2.973     0.007    27.867     8.659
     5   6 C        3.109     0.065    26.412     8.420
     6   7 N        1.903    -0.301    28.644     7.935
     7   6 C        3.083     0.118    25.318     8.249
     8   6 C        2.964    -0.025    28.634     8.777
     9   6 C        2.912    -0.042    29.052     8.838
    10   6 C        2.912    -0.047    29.166     8.856
    11   6 C        2.979     0.005    27.908     8.666
    12   6 C        2.915    -0.043    29.068     8.841
    13   6 C        2.916    -0.044    29.097     8.846
    14   6 C        2.978     0.008    27.843     8.655
    15   6 C        2.918    -0.045    29.122     8.849
    16   6 C        2.907    -0.031    28.780     8.797
    17   6 C        2.917    -0.044    29.103     8.846
    18   6 C        2.978     0.008    27.846     8.656
    19   6 C        2.916    -0.042    29.037     8.836
    20   6 C        2.915    -0.045    29.113     8.848
    21   6 C        2.975     0.007    27.864     8.659
    22   6 C        2.991     0.000    28.017     8.683
    23   6 C        2.996    -0.001    28.039     8.686
    24   7 N        2.833     0.001    21.244     6.845
    25   6 C        2.853     0.021    27.541     8.601
    26   6 C        2.914    -0.040    28.986     8.828
    27   6 C        2.920    -0.024    28.604     8.771
    28   6 C        2.908    -0.033    28.815     8.802
    29   6 C        3.050     0.030    27.276     8.565
    30   6 C        2.922    -0.039    28.960     8.825
    31   6 C        2.918    -0.030    28.746     8.792
    32   1 H        0.926     0.036     2.504     2.474
    33   1 H        0.926     0.036     2.503     2.474
    34   1 H        0.926     0.047     2.361     2.403
    35   1 H        0.926     0.025     2.659     2.550
    36   1 H        0.926     0.028     2.619     2.531
    37   1 H        0.925     0.026     2.638     2.540
    38   1 H        0.926     0.026     2.644     2.543
    39   1 H        0.926     0.026     2.647     2.544
    40   1 H        0.925     0.026     2.645     2.543
    41   1 H        0.926     0.027     2.633     2.537
    42   1 H        0.926     0.028     2.613     2.528
    43   1 H        0.926     0.050     2.315     2.379
    44   1 H        0.926     0.065     2.136     2.286
    45   1 H        0.926     0.061     2.188     2.313
    46   1 H        0.926     0.056     2.247     2.344
    47   1 H        0.926     0.059     2.206     2.323
    48   1 H        0.926     0.035     2.514     2.480
    49   1 H        0.926     0.036     2.503     2.474

molecular dipole:
                 x           y           z       tot (Debye)
 q only:       -1.887      -1.208      -0.362
   full:       -1.960      -1.593      -0.420       6.507

 projected vibrational frequencies (cm⁻¹)
eigval :       -0.00    -0.00    -0.00    -0.00     0.00     0.00
eigval :       15.95    24.58    37.02    41.22    68.81    87.28
eigval :       97.81   132.75   149.97   170.53   187.51   192.78
eigval :      209.57   225.12   251.76   264.63   293.68   338.54
eigval :      351.72   369.54   379.65   393.43   400.48   407.73
eigval :      422.73   450.40   451.65   468.24   493.44   495.83
eigval :      502.09   533.83   547.86   563.48   578.02   584.17
eigval :      593.01   615.00   622.73   647.42   658.21   662.17
eigval :      669.87   677.86   684.07   719.61   732.07   732.78
eigval :      747.65   759.73   764.31   776.40   777.83   796.97
eigval :      802.53   809.27   813.95   834.88   859.04   871.77
eigval :      877.24   884.97   892.69   900.94   908.23   910.77
eigval :      914.65   926.49   929.80   937.51   953.22   985.75
eigval :     1000.31  1057.06  1074.94  1081.06  1116.25  1117.15
eigval :     1122.48  1136.09  1143.29  1150.35  1169.28  1176.54
eigval :     1179.58  1189.28  1192.59  1199.38  1205.71  1211.05
eigval :     1229.78  1235.90  1245.73  1251.04  1272.14  1289.83
eigval :     1317.39  1321.26  1322.35  1330.82  1331.61  1360.69
eigval :     1365.30  1374.83  1380.10  1389.43  1406.47  1417.34
eigval :     1430.64  1438.28  1450.88  1459.32  1481.40  1489.85
eigval :     1505.10  1514.61  1516.62  1521.49  1539.55  1546.27
eigval :     1567.84  1572.25  1589.48  3059.55  3061.18  3062.62
eigval :     3069.46  3070.33  3073.33  3074.40  3075.35  3078.09
eigval :     3082.83  3085.88  3095.99  3099.64  3105.22  3110.23
eigval :     3113.11  3119.79  3123.69

   temp. (K)  partition function   enthalpy   heat capacity  entropy
                                   cal/mol     cal/K/mol   cal/K/mol   J/K/mol
 298.15  VIB  0.416E+09            12584.046     86.062     74.864
         ROT  0.216E+08              888.752      2.981     36.542
         INT  0.898E+16            13472.798     89.043    111.406
         TR   0.758E+28             1481.254      4.968     43.789
         TOT                       14954.0520    94.0113   155.1946   649.3343

       T/K    H(0)-H(T)+PV         H(T)/Eh          T*S/Eh         G(T)/Eh
   ------------------------------------------------------------------------
    298.15    0.238308E-01    0.393769E+00    0.737380E-01    0.320031E+00
   ------------------------------------------------------------------------

         :::::::::::::::::::::::::::::::::::::::::::::::::::::
         ::                  THERMODYNAMIC                  ::
         :::::::::::::::::::::::::::::::::::::::::::::::::::::
         :: total free energy         -76.813165230019 Eh   ::
         ::.................................................::
         :: total energy              -77.133195785623 Eh   ::
         :: zero point energy           0.369937732419 Eh   ::
         :: G(RRHO) w/o ZPVE           -0.049907176815 Eh   ::
         :: G(RRHO) contrib.            0.320030555604 Eh   ::
         :::::::::::::::::::::::::::::::::::::::::::::::::::::

           -------------------------------------------------
          | TOTAL ENERGY              -77.133195785623 Eh   |
          | TOTAL ENTHALPY            -76.739427254500 Eh   |
          | TOTAL FREE ENERGY         -76.813165230019 Eh   |
          | GRADIENT NORM               0.000053737799 Eh/α |
          | HOMO-LUMO GAP               0.327451136840 eV   |
           -------------------------------------------------

 * finished run on 2025/09/04 at 13:15:34.155
