   * xtb version 6.7.1 (edcfbbe) compiled by 'albert@albert-system' on 2024-07-22

   ID    Z sym.   atoms
    1    6 C      1-5, 7-23, 25-31
    2    7 N      6, 24
    3    1 H      32-49

          program call               : xtb data2507/toluene/ImPy-3/ImPy-3_toluene_S0_crest.xyz --gfn 2 --gbsa toluene --ohess vtight --parallel 40 --molden --ceasefiles --namespace data2507/toluene/ImPy-3/ImPy-3_toluene_S0_finalOpt
      * Solvation model:               GBSA
        Solvent                        toluene
        Solvent mass                       9.2140E+01 g/mol
          :  Hamiltonian                  GFN2-xTB          :
 * total energy  :   -77.2016783 Eh     change       -0.4909964E-08 Eh
 * total energy  :   -77.2016964 Eh     change       -0.1815537E-04 Eh
 * total energy  :   -77.2017034 Eh     change       -0.6954558E-05 Eh
 * total energy  :   -77.2017067 Eh     change       -0.3255188E-05 Eh
 * total energy  :   -77.2017112 Eh     change       -0.4513287E-05 Eh
 * total energy  :   -77.2017136 Eh     change       -0.2433207E-05 Eh
 * total energy  :   -77.2017152 Eh     change       -0.1579733E-05 Eh
 * total energy  :   -77.2017162 Eh     change       -0.1056573E-05 Eh
 * total energy  :   -77.2017172 Eh     change       -0.9126177E-06 Eh
 * total energy  :   -77.2017182 Eh     change       -0.1036811E-05 Eh
 * total energy  :   -77.2017192 Eh     change       -0.1005834E-05 Eh
 * total energy  :   -77.2017199 Eh     change       -0.7440153E-06 Eh
 * total energy  :   -77.2017203 Eh     change       -0.3592512E-06 Eh
 * total energy  :   -77.2017205 Eh     change       -0.1661384E-06 Eh
 * total energy  :   -77.2017205 Eh     change       -0.3295541E-07 Eh
   *** GEOMETRY OPTIMIZATION CONVERGED AFTER 15 ITERATIONS ***

 final structure:
================
49
 xtb: 6.7.1 (edcfbbe)
C           -5.66823628955818        3.30508582498156        0.64418812700567
C           -4.48070271220951        3.26528864007576        1.35837816164191
C           -3.59489052487849        2.22206626900305        1.17553020562679
C           -3.88179708062606        1.19427193580644        0.27479352353962
C           -2.92182678446843        0.11615043227257        0.10904088930718
N           -1.61175210541393        0.31414044225939        0.37743990635747
C           -0.96660737583775       -0.81275392389887        0.14874832087042
C            0.45366821270055       -1.02982288142191        0.37655032350954
C            0.86368620047891       -2.19046527875924        1.03583161214958
C            2.19445062697418       -2.44094813040736        1.29038430876649
C            3.17992858637375       -1.53332746216010        0.89661350483695
C            4.56347482373427       -1.76614833001983        1.14554703644873
C            5.50464751123050       -0.86861197904017        0.77137454602989
C            5.14569535126514        0.34428199476530        0.11281784120427
C            6.10055305935602        1.28396040958484       -0.28102146280861
C            5.72245829498834        2.45128862876437       -0.91945703761239
C            4.38902000280747        2.70993882248777       -1.17908659017672
C            3.39978031105119        1.79902885364986       -0.80228106095779
C            2.01638544070806        2.02908229875639       -1.05454625719906
C            1.07152523792713        1.13432596059682       -0.68105240727394
C            1.41722223354636       -0.07761767574673       -0.01496329421301
C            2.78752171619020       -0.33818059734939        0.24311004272177
C            3.77573446052348        0.59999539626312       -0.14819437324511
N           -1.83320219605446       -1.78289066979695       -0.27848941343209
C           -1.62122773876277       -3.05703124230820       -0.71631228908631
C           -2.67292496834927       -3.82412162258816       -1.09207470104190
C           -3.99356557592656       -3.31098430995698       -1.02970567900887
C           -4.20373081510952       -2.01897720867839       -0.65018126620780
C           -3.10761697559326       -1.20864139342267       -0.30282593037854
C           -5.06781784794604        1.25616272822949       -0.45643807616812
C           -5.95297716674812        2.30138215077054       -0.26708988998110
H           -6.36383307070101        4.11876562235103        0.79002656165150
H           -4.24643566243758        4.05188571129995        2.06156226732140
H           -2.66547491442352        2.18139122880551        1.72330742589484
H            0.11913196312655       -2.89073979437574        1.38865129388934
H            2.48304231620383       -3.34356193263943        1.80997047485188
H            4.84208392023151       -2.68319038544324        1.64565992433047
H            6.55202321571686       -1.05255917819933        0.96552446312779
H            7.14471949321020        1.08877347873013       -0.08148122094168
H            6.47547950637769        3.16690112930491       -1.21757889746706
H            4.09980218649923        3.62413200476209       -1.67773349072808
H            1.73484452489255        2.94396552280673       -1.55686870829372
H            0.02706061105094        1.33162162941102       -0.86493238659526
H           -0.59702564065298       -3.39327100923592       -0.75387045308343
H           -2.50375104970589       -4.83120935519382       -1.43643483263187
H           -4.82092266141411       -3.94893877045803       -1.29634921120043
H           -5.19629942474393       -1.60265055011917       -0.59886117025270
H           -5.28561407010124        0.50113609003425       -1.19646960583380
H           -6.86881850140218        2.33694373244724       -0.84018077406395

          :  Hamiltonian                  GFN2-xTB          :
         :: gradient norm              0.000113715727 Eh/a0 ::
         :: HOMO-LUMO gap              1.938146730171 eV    ::
         :: SCC energy               -78.658704187960 Eh    ::
         :: -> dispersion             -0.066464369143 Eh    ::
         :: -> Gsolv                  -0.032467161726 Eh    ::
         :: repulsion energy           1.456983689013 Eh    ::

    * Orbital Energies and Occupations

         #    Occupation            Energy/Eh            Energy/eV
      -------------------------------------------------------------
         1        2.0000           -0.6930149             -18.8579
       ...           ...                  ...                  ...
        60        2.0000           -0.4231862             -11.5155
        61        2.0000           -0.4222168             -11.4891
        62        2.0000           -0.4185494             -11.3893
        63        2.0000           -0.4166158             -11.3367
        64        2.0000           -0.4106046             -11.1731
        65        2.0000           -0.4063584             -11.0576
        66        2.0000           -0.4055360             -11.0352
        67        2.0000           -0.4032342             -10.9726
        68        2.0000           -0.4003585             -10.8943
        69        2.0000           -0.3929747             -10.6934
        70        2.0000           -0.3802363             -10.3468
        71        2.0000           -0.3705559             -10.0833
        72        2.0000           -0.3515687              -9.5667 (HOMO)
        73                         -0.2803432              -7.6285 (LUMO)
        74                         -0.2628823              -7.1534
        75                         -0.2452036              -6.6723
        76                         -0.2344012              -6.3784
        77                         -0.2214453              -6.0258
        78                         -0.2190951              -5.9619
        79                         -0.2181756              -5.9369
        80                         -0.1969388              -5.3590
        81                         -0.1819447              -4.9510
        82                         -0.1525544              -4.1512
        83                         -0.1247498              -3.3946
       ...                                ...                  ...
       142                          0.7293524              19.8467
      -------------------------------------------------------------
                  HL-Gap            0.0712256 Eh            1.9381 eV

     #   Z          covCN         q      C6AA      α(0)
     1   6 C        2.919    -0.034    28.849     8.808
     2   6 C        2.918    -0.031    28.771     8.796
     3   6 C        2.927    -0.032    28.794     8.800
     4   6 C        2.972     0.006    27.888     8.662
     5   6 C        3.129     0.048    26.733     8.465
     6   7 N        1.914    -0.302    28.664     7.938
     7   6 C        3.118     0.112    25.372     8.250
     8   6 C        2.970    -0.010    28.267     8.721
     9   6 C        2.920    -0.041    29.008     8.832
    10   6 C        2.918    -0.040    28.991     8.830
    11   6 C        2.982     0.009    27.804     8.649
    12   6 C        2.913    -0.037    28.926     8.819
    13   6 C        2.913    -0.036    28.902     8.816
    14   6 C        2.982     0.011    27.772     8.645
    15   6 C        2.920    -0.038    28.939     8.822
    16   6 C        2.913    -0.031    28.766     8.795
    17   6 C        2.920    -0.037    28.924     8.819
    18   6 C        2.981     0.011    27.761     8.643
    19   6 C        2.913    -0.036    28.903     8.816
    20   6 C        2.912    -0.036    28.903     8.816
    21   6 C        2.982     0.010    27.793     8.648
    22   6 C        2.994     0.002    27.970     8.675
    23   6 C        2.997     0.002    27.973     8.676
    24   7 N        2.846    -0.001    21.283     6.852
    25   6 C        2.851     0.012    27.744     8.633
    26   6 C        2.914    -0.039    28.972     8.826
    27   6 C        2.919    -0.032    28.802     8.801
    28   6 C        2.907    -0.036    28.897     8.814
    29   6 C        3.069     0.024    27.394     8.582
    30   6 C        2.923    -0.042    29.047     8.838
    31   6 C        2.918    -0.032    28.798     8.800
    32   1 H        0.926     0.030     2.590     2.517
    33   1 H        0.926     0.030     2.582     2.513
    34   1 H        0.926     0.042     2.425     2.435
    35   1 H        0.925     0.029     2.602     2.523
    36   1 H        0.926     0.036     2.502     2.473
    37   1 H        0.926     0.035     2.519     2.482
    38   1 H        0.926     0.035     2.515     2.480
    39   1 H        0.926     0.034     2.528     2.487
    40   1 H        0.926     0.033     2.542     2.493
    41   1 H        0.926     0.034     2.531     2.488
    42   1 H        0.926     0.034     2.528     2.486
    43   1 H        0.926     0.045     2.378     2.412
    44   1 H        0.926     0.054     2.268     2.355
    45   1 H        0.926     0.053     2.282     2.363
    46   1 H        0.926     0.045     2.381     2.413
    47   1 H        0.926     0.049     2.335     2.390
    48   1 H        0.926     0.029     2.606     2.525
    49   1 H        0.926     0.030     2.590     2.517

molecular dipole:
                 x           y           z       tot (Debye)
 q only:        0.109      -1.020      -0.385
   full:       -0.001      -1.396      -0.480       3.753

 projected vibrational frequencies (cm⁻¹)
eigval :       -0.00    -0.00    -0.00     0.00     0.00     0.00
eigval :       15.58    27.58    35.21    41.71    74.23    80.91
eigval :       94.16   130.77   152.11   177.05   187.24   203.19
eigval :      208.53   232.47   245.55   257.86   308.16   338.47
eigval :      357.75   370.75   387.58   395.52   400.40   417.61
eigval :      454.90   462.00   473.33   479.38   495.43   501.80
eigval :      507.74   536.85   554.15   566.41   577.95   588.76
eigval :      602.44   623.82   645.07   652.14   662.71   676.05
eigval :      679.46   686.94   695.24   722.63   737.89   756.72
eigval :      760.15   763.53   772.59   786.89   799.82   816.23
eigval :      820.00   833.86   847.95   860.55   874.76   884.33
eigval :      886.16   899.67   908.42   918.00   919.89   922.74
eigval :      924.87   927.14   927.68   931.69   964.55   995.22
eigval :     1006.79  1055.90  1079.05  1084.41  1111.27  1118.28
eigval :     1123.63  1139.05  1154.78  1160.99  1179.20  1181.09
eigval :     1182.07  1195.05  1198.84  1204.33  1214.79  1223.34
eigval :     1237.36  1247.98  1263.80  1273.81  1285.17  1312.47
eigval :     1319.50  1320.54  1327.89  1337.60  1360.70  1385.02
eigval :     1387.41  1393.05  1409.29  1413.75  1426.31  1432.65
eigval :     1448.69  1466.36  1482.57  1488.97  1493.52  1514.60
eigval :     1539.14  1540.30  1560.39  1576.04  1577.55  1595.57
eigval :     1600.09  1605.00  1613.47  3062.90  3064.19  3065.42
eigval :     3065.96  3068.53  3069.39  3072.19  3075.49  3078.36
eigval :     3081.49  3083.42  3091.43  3095.55  3099.03  3101.57
eigval :     3104.72  3113.91  3118.42

   temp. (K)  partition function   enthalpy   heat capacity  entropy
                                   cal/mol     cal/K/mol   cal/K/mol   J/K/mol
 298.15  VIB  0.332E+09            12394.678     84.727     73.867
         ROT  0.215E+08              888.752      2.981     36.532
         INT  0.713E+16            13283.430     87.708    110.399
         TR   0.758E+28             1481.254      4.968     43.789
         TOT                       14764.6840    92.6765   154.1874   645.1202

       T/K    H(0)-H(T)+PV         H(T)/Eh          T*S/Eh         G(T)/Eh
   ------------------------------------------------------------------------
    298.15    0.235290E-01    0.396666E+00    0.732594E-01    0.323407E+00
   ------------------------------------------------------------------------

         :::::::::::::::::::::::::::::::::::::::::::::::::::::
         ::                  THERMODYNAMIC                  ::
         :::::::::::::::::::::::::::::::::::::::::::::::::::::
         :: total free energy         -76.878313685219 Eh   ::
         ::.................................................::
         :: total energy              -77.201720498402 Eh   ::
         :: zero point energy           0.373137219130 Eh   ::
         :: G(RRHO) w/o ZPVE           -0.049730405947 Eh   ::
         :: G(RRHO) contrib.            0.323406813184 Eh   ::
         :::::::::::::::::::::::::::::::::::::::::::::::::::::

           -------------------------------------------------
          | TOTAL ENERGY              -77.201720498402 Eh   |
          | TOTAL ENTHALPY            -76.805054257704 Eh   |
          | TOTAL FREE ENERGY         -76.878313685219 Eh   |
          | GRADIENT NORM               0.000113706842 Eh/α |
          | HOMO-LUMO GAP               1.938146030272 eV   |
           -------------------------------------------------

 * finished run on 2025/09/04 at 13:15:31.149
