   * xtb version 6.7.1 (edcfbbe) compiled by 'albert@albert-system' on 2024-07-22

   ID    Z sym.   atoms
    1    6 C      1-5, 7-23, 25-31
    2    7 N      6, 24
    3    1 H      32-49

          program call               : xtb data2507/toluene/ImPy-3/ImPy-3.xyz --gfn 2 --gbsa toluene --ohess vtight --parallel 40 --molden --ceasefiles --namespace data2507/toluene/ImPy-3/ImPy-3_toluene_S0_preOpt
      * Solvation model:               GBSA
        Solvent                        toluene
        Solvent mass                       9.2140E+01 g/mol
          :  Hamiltonian                  GFN2-xTB          :
 * total energy  :   -77.1882689 Eh     change       -0.6117091E-08 Eh
 * total energy  :   -77.1968698 Eh     change       -0.8600940E-02 Eh
 * total energy  :   -77.1988785 Eh     change       -0.2008643E-02 Eh
 * total energy  :   -77.1991374 Eh     change       -0.2589570E-03 Eh
 * total energy  :   -77.1993467 Eh     change       -0.2092864E-03 Eh
 * total energy  :   -77.1994540 Eh     change       -0.1072722E-03 Eh
 * total energy  :   -77.1996042 Eh     change       -0.1502386E-03 Eh
 * total energy  :   -77.1997552 Eh     change       -0.1510038E-03 Eh
 * total energy  :   -77.1998644 Eh     change       -0.1091768E-03 Eh
 * total energy  :   -77.1999584 Eh     change       -0.9399142E-04 Eh
 * total energy  :   -77.2009679 Eh     change       -0.4690710E-06 Eh
 * total energy  :   -77.2009682 Eh     change       -0.3538008E-06 Eh
 * total energy  :   -77.2009685 Eh     change       -0.2577268E-06 Eh
 * total energy  :   -77.2009687 Eh     change       -0.1940389E-06 Eh
 * total energy  :   -77.2009688 Eh     change       -0.1593179E-06 Eh
 * total energy  :   -77.2009690 Eh     change       -0.1381993E-06 Eh
 * total energy  :   -77.2009691 Eh     change       -0.1664681E-06 Eh
 * total energy  :   -77.2009693 Eh     change       -0.1603970E-06 Eh
 * total energy  :   -77.2009693 Eh     change       -0.1209642E-08 Eh
   *** GEOMETRY OPTIMIZATION CONVERGED AFTER 122 ITERATIONS ***

 final structure:
================
49
 xtb: 6.7.1 (edcfbbe)
C           -6.85285331003682       -1.52216139819239        1.32866805630791
C           -5.87115259127528       -2.42918962135108        0.96062918127708
C           -4.63792906862739       -1.98120263291237        0.53060047886183
C           -4.36374063454527       -0.61425754101144        0.45613655911055
C           -3.05688235935402       -0.18139579619582       -0.00786699124230
N           -1.96889788816950       -0.97123967982428        0.14417821629765
C           -0.92478258957509       -0.32674849015137       -0.33546498206775
C            0.42632892341153       -0.87093820070215       -0.36455108674350
C            0.59214431383207       -2.16249502256953       -0.86365032905949
C            1.84221774627239       -2.72975948340778       -0.97814155028428
C            2.98478908184231       -2.02051202416542       -0.59898967598830
C            4.29456540676062       -2.56326779623238       -0.74444117511957
C            5.39048169408626       -1.86692250615050       -0.36270897109888
C            5.27446859819009       -0.56770084895365        0.21370551822829
C            6.39048064994167        0.16526298523820        0.62253956262938
C            6.24550234990782        1.41874544637989        1.18902014072723
C            4.98896644005600        1.96833765760870        1.36724020347415
C            3.84543222133866        1.27266734690724        0.97011210334244
C            2.53280333785814        1.79237528416117        1.16402958888468
C            1.43739160276391        1.11205568829277        0.75216362300717
C            1.54516165499851       -0.15255243195519        0.09852836673504
C            2.83549369427023       -0.72542045553614       -0.04275454861329
C            3.98263512074608       -0.00721772145747        0.37817251861245
N           -1.29788627911796        0.88348847835557       -0.85171120770355
C           -0.59065855212896        1.82595240215715       -1.53866497469072
C           -1.22328192701068        2.92471721425516       -2.01575310541651
C           -2.61973462633711        3.08706060717961       -1.82792070775114
C           -3.33468041725988        2.13356181239841       -1.16636407635847
C           -2.67656942456428        1.00128529777468       -0.65279540363116
C           -5.34993053762943        0.28942623932051        0.85102726983315
C           -6.58402809102018       -0.16414389270583        1.27879834947102
H           -7.81930509285344       -1.87213838169003        1.66133108462490
H           -6.07092847781042       -3.49030535342750        1.00840743684396
H           -3.86387699855506       -2.67722880968283        0.24471494809694
H           -0.28681885893229       -2.70772379455853       -1.17405904517353
H            1.94838399226831       -3.72737175002303       -1.37925029978423
H            4.38881204756234       -3.55100497613409       -1.17319058410047
H            6.38014299985163       -2.28503052943999       -0.48129886558253
H            7.37539272477833       -0.26036318858972        0.49295124550296
H            7.12095898588286        1.97101878066787        1.49950459291685
H            4.88152923729521        2.94413101930171        1.81923636494101
H            2.42938721278899        2.74620150759467        1.66192271522157
H            0.45286909935518        1.51473245787338        0.94173297289229
H            0.46198002860036        1.63573287873407       -1.67761371668351
H           -0.66350727137839        3.67048083957437       -2.55582290163839
H           -3.10747256836695        3.96082315407668       -2.22961923490232
H           -4.40241167983262        2.21480009622423       -1.04575211487838
H           -5.14120695941862        1.34868470867529        0.85086728892081
H           -7.33977996086397        0.54675142426414        1.58216616174617

          :  Hamiltonian                  GFN2-xTB          :
         :: gradient norm              0.000045752796 Eh/a0 ::
         :: HOMO-LUMO gap              1.907609117968 eV    ::
         :: SCC energy               -78.658372094836 Eh    ::
         :: -> dispersion             -0.067048427679 Eh    ::
         :: -> Gsolv                  -0.032539616555 Eh    ::
         :: repulsion energy           1.457402797830 Eh    ::

    * Orbital Energies and Occupations

         #    Occupation            Energy/Eh            Energy/eV
      -------------------------------------------------------------
         1        2.0000           -0.6930847             -18.8598
       ...           ...                  ...                  ...
        60        2.0000           -0.4244300             -11.5493
        61        2.0000           -0.4211191             -11.4592
        62        2.0000           -0.4195977             -11.4178
        63        2.0000           -0.4172601             -11.3542
        64        2.0000           -0.4129204             -11.2361
        65        2.0000           -0.4101449             -11.1606
        66        2.0000           -0.4078394             -11.0979
        67        2.0000           -0.4040998             -10.9961
        68        2.0000           -0.4002753             -10.8920
        69        2.0000           -0.3947478             -10.7416
        70        2.0000           -0.3804811             -10.3534
        71        2.0000           -0.3721556             -10.1269
        72        2.0000           -0.3524529              -9.5907 (HOMO)
        73                         -0.2823496              -7.6831 (LUMO)
        74                         -0.2624323              -7.1411
        75                         -0.2462280              -6.7002
        76                         -0.2346183              -6.3843
        77                         -0.2248500              -6.1185
        78                         -0.2198365              -5.9821
        79                         -0.2180927              -5.9346
        80                         -0.1989633              -5.4141
        81                         -0.1831711              -4.9843
        82                         -0.1539530              -4.1893
        83                         -0.1291049              -3.5131
       ...                                ...                  ...
       142                          0.7255863              19.7442
      -------------------------------------------------------------
                  HL-Gap            0.0701033 Eh            1.9076 eV

     #   Z          covCN         q      C6AA      α(0)
     1   6 C        2.919    -0.034    28.854     8.809
     2   6 C        2.918    -0.031    28.773     8.796
     3   6 C        2.927    -0.032    28.795     8.800
     4   6 C        2.972     0.006    27.885     8.662
     5   6 C        3.134     0.048    26.715     8.461
     6   7 N        1.913    -0.303    28.710     7.944
     7   6 C        3.126     0.113    25.335     8.242
     8   6 C        2.971    -0.009    28.240     8.717
     9   6 C        2.922    -0.032    28.786     8.799
    10   6 C        2.918    -0.037    28.919     8.819
    11   6 C        2.982     0.010    27.784     8.646
    12   6 C        2.913    -0.036    28.899     8.815
    13   6 C        2.913    -0.036    28.902     8.816
    14   6 C        2.982     0.011    27.761     8.643
    15   6 C        2.920    -0.037    28.915     8.818
    16   6 C        2.913    -0.030    28.758     8.794
    17   6 C        2.920    -0.037    28.926     8.820
    18   6 C        2.982     0.010    27.779     8.646
    19   6 C        2.913    -0.037    28.918     8.818
    20   6 C        2.912    -0.037    28.931     8.820
    21   6 C        2.981     0.003    27.958     8.673
    22   6 C        2.995     0.002    27.975     8.676
    23   6 C        2.997     0.002    27.964     8.674
    24   7 N        2.846    -0.001    21.277     6.851
    25   6 C        2.850     0.014    27.701     8.626
    26   6 C        2.914    -0.039    28.968     8.826
    27   6 C        2.919    -0.032    28.804     8.801
    28   6 C        2.907    -0.036    28.903     8.815
    29   6 C        3.070     0.024    27.408     8.584
    30   6 C        2.923    -0.042    29.045     8.838
    31   6 C        2.918    -0.032    28.798     8.800
    32   1 H        0.926     0.030     2.589     2.516
    33   1 H        0.926     0.030     2.580     2.512
    34   1 H        0.926     0.041     2.437     2.441
    35   1 H        0.926     0.038     2.471     2.458
    36   1 H        0.926     0.039     2.462     2.454
    37   1 H        0.926     0.036     2.500     2.473
    38   1 H        0.926     0.036     2.502     2.473
    39   1 H        0.926     0.035     2.513     2.479
    40   1 H        0.926     0.034     2.530     2.487
    41   1 H        0.926     0.034     2.523     2.484
    42   1 H        0.926     0.035     2.521     2.483
    43   1 H        0.926     0.024     2.668     2.554
    44   1 H        0.926     0.051     2.303     2.373
    45   1 H        0.926     0.053     2.285     2.364
    46   1 H        0.926     0.045     2.380     2.412
    47   1 H        0.926     0.049     2.337     2.391
    48   1 H        0.926     0.028     2.613     2.528
    49   1 H        0.926     0.030     2.590     2.517

molecular dipole:
                 x           y           z       tot (Debye)
 q only:        0.695       0.863      -0.623
   full:        0.751       1.193      -0.775       4.089

 projected vibrational frequencies (cm⁻¹)
eigval :       -0.00    -0.00    -0.00     0.00     0.00     0.00
eigval :       20.73    26.93    35.32    52.22    71.48    87.05
eigval :       96.91   119.04   153.20   184.20   188.33   200.60
eigval :      213.52   226.68   242.91   279.07   289.18   339.44
eigval :      366.04   372.31   387.98   394.59   399.57   408.68
eigval :      453.45   461.27   475.54   477.42   495.18   503.72
eigval :      507.19   536.82   551.55   568.07   580.35   592.43
eigval :      605.41   614.58   644.72   651.13   662.41   678.14
eigval :      678.98   687.76   693.19   712.54   742.86   754.61
eigval :      756.83   765.45   772.96   784.07   801.06   818.59
eigval :      826.61   836.13   851.07   857.22   875.65   885.50
eigval :      891.54   894.06   912.23   914.58   920.12   921.96
eigval :      923.51   927.50   928.20   928.57   965.34   994.53
eigval :     1008.70  1054.78  1077.56  1082.36  1108.23  1116.67
eigval :     1123.59  1136.23  1155.58  1160.56  1179.42  1180.01
eigval :     1180.37  1191.10  1197.98  1204.29  1213.98  1222.68
eigval :     1238.21  1244.89  1261.80  1272.89  1286.83  1312.37
eigval :     1318.88  1320.69  1329.87  1346.69  1354.71  1385.87
eigval :     1388.81  1392.35  1408.93  1412.79  1426.31  1432.32
eigval :     1448.08  1466.92  1482.28  1488.21  1493.28  1520.52
eigval :     1537.48  1540.10  1559.88  1576.33  1577.81  1595.68
eigval :     1600.75  1604.66  1613.90  3064.98  3065.31  3066.53
eigval :     3068.09  3068.78  3072.40  3074.70  3078.38  3080.52
eigval :     3082.06  3084.96  3089.38  3091.09  3096.55  3100.42
eigval :     3102.52  3114.52  3119.30

   temp. (K)  partition function   enthalpy   heat capacity  entropy
                                   cal/mol     cal/K/mol   cal/K/mol   J/K/mol
 298.15  VIB  0.208E+09            12374.561     84.985     73.584
         ROT  0.203E+08              888.752      2.981     36.416
         INT  0.422E+16            13263.313     87.966    110.000
         TR   0.758E+28             1481.254      4.968     43.789
         TOT                       14744.5674    92.9338   153.7886   643.4514

       T/K    H(0)-H(T)+PV         H(T)/Eh          T*S/Eh         G(T)/Eh
   ------------------------------------------------------------------------
    298.15    0.234970E-01    0.396648E+00    0.730699E-01    0.323578E+00
   ------------------------------------------------------------------------

         :::::::::::::::::::::::::::::::::::::::::::::::::::::
         ::                  THERMODYNAMIC                  ::
         :::::::::::::::::::::::::::::::::::::::::::::::::::::
         :: total free energy         -76.877391617834 Eh   ::
         ::.................................................::
         :: total energy              -77.200969298326 Eh   ::
         :: zero point energy           0.373150626423 Eh   ::
         :: G(RRHO) w/o ZPVE           -0.049572945931 Eh   ::
         :: G(RRHO) contrib.            0.323577680492 Eh   ::
         :::::::::::::::::::::::::::::::::::::::::::::::::::::

           -------------------------------------------------
          | TOTAL ENERGY              -77.200969298326 Eh   |
          | TOTAL ENTHALPY            -76.804321708124 Eh   |
          | TOTAL FREE ENERGY         -76.877391617834 Eh   |
          | GRADIENT NORM               0.000045741461 Eh/α |
          | HOMO-LUMO GAP               1.907609134155 eV   |
           -------------------------------------------------

 * finished run on 2025/09/04 at 13:14:23.271
