   * xtb version 6.7.1 (edcfbbe) compiled by 'albert@albert-system' on 2024-07-22

   ID    Z sym.   atoms
    1    6 C      1-5, 7-13, 15-18, 20-33, 35-47, 49, 50
    2    7 N      6, 14, 19, 34, 48
    3    1 H      51-79

          program call               : xtb data2507/gas/DCzTrz/DCzTrz_gas_S0_finalOpt.xtbopt.xyz --gfn 2 --spinpol --tblite --uhf 2 --ohess vtight --parallel 40 --molden --ceasefiles --namespace data2507/gas/DCzTrz/DCzTrz_gas_T1_preOpt
 * total energy  :  -125.7708916 Eh     change        0.1425221E-08 Eh
 * total energy  :  -125.7737719 Eh     change       -0.2880339E-02 Eh
 * total energy  :  -125.7756019 Eh     change       -0.1829995E-02 Eh
 * total energy  :  -125.7757602 Eh     change       -0.1582756E-03 Eh
 * total energy  :  -125.7758701 Eh     change       -0.1098774E-03 Eh
 * total energy  :  -125.7759047 Eh     change       -0.3464159E-04 Eh
 * total energy  :  -125.7759278 Eh     change       -0.2311530E-04 Eh
 * total energy  :  -125.7759408 Eh     change       -0.1296538E-04 Eh
 * total energy  :  -125.7759526 Eh     change       -0.1184676E-04 Eh
 * total energy  :  -125.7759703 Eh     change       -0.1763324E-04 Eh
 * total energy  :  -125.7762949 Eh     change       -0.3151015E-06 Eh
 * total energy  :  -125.7762953 Eh     change       -0.3525275E-06 Eh
 * total energy  :  -125.7762956 Eh     change       -0.3032055E-06 Eh
 * total energy  :  -125.7762959 Eh     change       -0.2888799E-06 Eh
 * total energy  :  -125.7762961 Eh     change       -0.2878229E-06 Eh
 * total energy  :  -125.7762965 Eh     change       -0.3438853E-06 Eh
 * total energy  :  -125.7762968 Eh     change       -0.2938962E-06 Eh
 * total energy  :  -125.7762971 Eh     change       -0.2838965E-06 Eh
 * total energy  :  -125.7762971 Eh     change       -0.1861034E-07 Eh
   *** GEOMETRY OPTIMIZATION CONVERGED AFTER 94 ITERATIONS ***

 final structure:
================
79
 xtb: 6.7.1 (edcfbbe)
C           -6.11000536575236       -4.76092426695583        0.09832835422820
C           -6.78591185300024       -3.55189729454501        0.03746211866447
C           -6.08269021578415       -2.36443477450007        0.00336906629948
C           -4.68747531236486       -2.37566586924331        0.02922593678224
C           -3.94315539245735       -1.12531909699652        0.00189575577072
N           -4.63478262614321        0.03513109369517       -0.00579189578841
C           -3.92551492447741        1.18485680098801       -0.01154100062812
C           -4.65054413006202        2.44644935945426       -0.04071891043550
C           -6.04582529843228        2.45656767054528       -0.01871273822075
C           -6.73069811326925        3.65465719895443       -0.05449649969908
C           -6.03619866877294        4.85320589232680       -0.11323994499938
C           -4.64889174508283        4.84978317912310       -0.13547567706105
C           -3.95713547926520        3.65667787977388       -0.09947157759776
N           -2.62142083782921        1.19607108445636        0.00261390351434
C           -1.95423339108104        0.01460770455108       -0.00218249572166
C           -0.53399463636199        0.00378650897535       -0.00027158035073
C            0.19336633957525        1.20174920731604        0.13182135891422
C            1.57489118729615        1.18444454353676        0.12829730310139
N            2.28316737808104        2.38826320701210        0.26849336207856
C            2.04667268148412        3.54399621525875       -0.44553771357152
C            1.14125521109144        3.78016408615658       -1.47176908529773
C            1.12471492762624        5.04039168131904       -2.03881510023687
C            1.99176289346351        6.04271759826087       -1.61011237780720
C            2.91238959377415        5.80616245754297       -0.60620447530587
C            2.94585144883531        4.54983806436356       -0.01923753621659
C            3.75527836745557        3.96076606460711        1.01265617115994
C            4.78059146990670        4.44231559312634        1.81290152996886
C            5.34106521613286        3.59558389037490        2.75113033215445
C            4.87885463068435        2.29095911143737        2.90579953924784
C            3.85875336157800        1.78864279215288        2.12026935242670
C            3.30945521833610        2.62542322861149        1.15775349812765
C            2.27492795511408       -0.01762689098093        0.00356031649852
C            1.55698450468637       -1.20888285639576       -0.12310493993655
N            2.24721123585456       -2.42337220689134       -0.26132717960413
C            3.27226137058508       -2.67619285745739       -1.14769671052837
C            3.83690217332186       -1.84795475766087       -2.10871819648688
C            4.85144790915008       -2.36579376025647       -2.89135629682925
C            5.29334203076075       -3.67727976010042       -2.73531441120083
C            4.71744174680826       -4.51529982887762       -1.79861360140759
C            3.69732517319846       -4.01814088422981       -1.00126785709174
C            2.87616521213632       -4.59473069795729        0.02839757916468
C            2.82198563482085       -5.85033547570451        0.61536910856302
C            1.89508671859576       -6.07275602170142        1.61672801948069
C            1.04217388455484       -5.05732140729894        2.04293992782252
C            1.07943473756198       -3.79755969257375        1.47584422373550
C            1.99119005586989       -3.57529857854825        0.45212357384032
C            0.17537695243950       -1.20512285149980       -0.13041054473619
N           -2.63931357558360       -1.15655264956737       -0.00875715544377
C           -4.01283951216865       -3.59635730341005        0.09008417418203
C           -4.72287244982784       -4.77872661911366        0.12438418577144
H           -6.66283307586136       -5.68841923324517        0.12598738798879
H           -7.86597500599650       -3.53872501795024        0.01723287166925
H           -6.59491382182959       -1.41570592500895       -0.04386067248664
H           -6.57263728684716        1.51577474532056        0.02690813460397
H           -7.81088774813622        3.65801600052683       -0.03724717997754
H           -6.57468967254218        5.78906058463670       -0.14221599732087
H           -4.10843465937010        5.78406602312337       -0.18192507143041
H           -2.87823984665963        3.63826971079993       -0.11844287119850
H           -0.34510747243064        2.12559331738252        0.26717567662824
H            0.47687960466319        3.00492018858229       -1.82122936588605
H            0.42585375987063        5.25131111315667       -2.83457562574616
H            1.94676898460528        7.01517735253144       -2.07722456826316
H            3.59411190232025        6.57909907808885       -0.28507223908763
H            5.12740771913935        5.45894673450039        1.70594306006761
H            6.14180041292398        3.95035289204547        3.38260561750807
H            5.32423657321959        1.65866528192693        3.65944112916895
H            3.49321964929409        0.78335138266941        2.26293091869573
H            3.35281027036781       -0.02584338506361        0.00504045642303
H            3.48708927035385       -0.83723880195933       -2.25245974739246
H            5.30850001831676       -1.74041965775900       -3.64378388178182
H            6.09035897995572       -4.04423867271098       -3.36452197506477
H            5.04846438388684       -5.53707399743081       -1.69062230501564
H            3.49277841677474       -6.63357674566868        0.29619495709334
H            1.83402599821769       -7.04436089604383        2.08379391104523
H            0.33797926917596       -5.25750402968029        2.83676972170703
H            0.42594466542396       -3.01226949595605        1.82339456311165
H           -0.37675791097915       -2.12064973947369       -0.26724715424895
H           -2.93385016985760       -3.59445586408717        0.11203087180560
H           -4.19690790322119       -5.72116017308341        0.17248595102672

 projected vibrational frequencies (cm⁻¹)
eigval :       -0.00     0.00     0.00     0.00     0.00     0.00
eigval :       10.11    14.65    19.30    19.98    21.96    23.87
eigval :       29.43    31.63    48.18    55.03    58.11    69.21
eigval :       96.25    97.93   102.86   103.86   120.65   135.92
eigval :      140.24   144.90   155.35   177.69   182.14   211.05
eigval :      221.01   227.15   241.45   243.93   249.60   254.08
eigval :      271.14   271.61   292.47   308.64   323.63   361.32
eigval :      366.17   366.64   367.49   377.04   392.79   395.00
eigval :      406.72   411.31   422.04   422.15   435.75   436.17
eigval :      440.92   494.80   505.10   516.52   517.24   536.50
eigval :      537.48   538.48   538.50   543.24   548.85   552.45
eigval :      581.48   586.68   587.35   588.21   590.52   602.28
eigval :      609.75   621.55   630.63   647.51   653.98   655.57
eigval :      662.20   674.55   674.57   676.56   689.85   709.54
eigval :      709.98   728.14   749.45   754.91   761.63   762.99
eigval :      768.34   769.69   770.27   778.54   779.48   798.69
eigval :      813.36   837.29   840.68   858.57   869.84   871.49
eigval :      871.93   875.13   876.65   879.48   896.05   898.33
eigval :      899.92   901.29   903.35   904.19   905.22   905.47
eigval :      921.51   922.31   922.89   923.02   926.12   927.08
eigval :      929.49   929.60   938.17   967.15   983.00   987.86
eigval :      995.42  1011.37  1012.73  1031.14  1068.34  1069.19
eigval :     1071.55  1072.44  1073.61  1073.85  1080.92  1109.40
eigval :     1109.82  1116.08  1117.90  1133.99  1146.79  1147.24
eigval :     1155.45  1163.08  1176.94  1179.72  1179.80  1179.89
eigval :     1180.16  1180.44  1181.29  1190.06  1193.80  1216.54
eigval :     1231.07  1233.28  1234.22  1234.50  1255.78  1268.06
eigval :     1272.91  1286.44  1291.84  1293.27  1295.32  1296.47
eigval :     1327.79  1330.76  1332.10  1335.80  1348.42  1351.07
eigval :     1354.32  1360.01  1360.82  1394.97  1401.41  1416.02
eigval :     1416.94  1418.23  1422.77  1432.44  1435.83  1442.07
eigval :     1443.54  1464.34  1466.68  1467.70  1478.26  1485.19
eigval :     1485.31  1486.24  1508.03  1533.83  1568.47  1568.89
eigval :     1572.34  1573.01  1582.94  1584.80  1585.55  1585.86
eigval :     1586.09  1593.56  1604.28  1609.13  3073.80  3073.94
eigval :     3078.37  3078.55  3079.69  3079.69  3080.11  3080.14
eigval :     3084.98  3084.99  3086.37  3086.38  3088.92  3089.28
eigval :     3092.79  3092.81  3094.17  3094.27  3097.84  3098.46
eigval :     3098.55  3098.66  3098.75  3099.13  3099.20  3100.18
eigval :     3110.07  3114.22  3115.13

   temp. (K)  partition function   enthalpy   heat capacity  entropy
                                   cal/mol     cal/K/mol   cal/K/mol   J/K/mol
 298.15  VIB  0.224E+19            22927.453    144.361    142.288
         ROT  0.484E+08              888.752      2.981     38.145
         INT  0.108E+27            23816.206    147.342    180.433
         TR   0.157E+29             1481.254      4.968     45.230
         TOT                       25297.4596   152.3098   225.6624   944.1715

       T/K    H(0)-H(T)+PV         H(T)/Eh          T*S/Eh         G(T)/Eh
   ------------------------------------------------------------------------
    298.15    0.403141E-01    0.635472E+00    0.107219E+00    0.528253E+00
   ------------------------------------------------------------------------

         :::::::::::::::::::::::::::::::::::::::::::::::::::::
         ::                  THERMODYNAMIC                  ::
         :::::::::::::::::::::::::::::::::::::::::::::::::::::
         :: total free energy        -125.248044138767 Eh   ::
         ::.................................................::
         :: total energy             -125.776297075372 Eh   ::
         :: zero point energy           0.595158363771 Eh   ::
         :: G(RRHO) w/o ZPVE           -0.066905427166 Eh   ::
         :: G(RRHO) contrib.            0.528252936604 Eh   ::
         :::::::::::::::::::::::::::::::::::::::::::::::::::::

           -------------------------------------------------
          | TOTAL ENERGY             -125.776297075372 Eh   |
          | TOTAL ENTHALPY           -125.140824643652 Eh   |
          | TOTAL FREE ENERGY        -125.248044138767 Eh   |
          | GRADIENT NORM               0.000077464239 Eh/α |
           -------------------------------------------------

 * finished run on 2025/07/16 at 22:44:30.760
