   * xtb version 6.7.1 (edcfbbe) compiled by 'albert@albert-system' on 2024-07-22

   ID    Z sym.   atoms
    1    6 C      1-5, 7-13, 15-18, 20-33, 35-47, 49, 50
    2    7 N      6, 14, 19, 34, 48
    3    1 H      51-79

          program call               : xtb data2507/gas/DCzTrz/DCzTrz_gas_T1_crest.xyz --gfn 2 --spinpol --tblite --uhf 2 --ohess vtight --parallel 40 --molden --ceasefiles --namespace data2507/gas/DCzTrz/DCzTrz_gas_T1_finalOpt
 * total energy  :  -125.7766545 Eh     change       -0.4691077E-07 Eh
 * total energy  :  -125.7767085 Eh     change       -0.5398583E-04 Eh
 * total energy  :  -125.7767304 Eh     change       -0.2195051E-04 Eh
 * total energy  :  -125.7767326 Eh     change       -0.2157255E-05 Eh
 * total energy  :  -125.7767337 Eh     change       -0.1132320E-05 Eh
 * total energy  :  -125.7767343 Eh     change       -0.5570875E-06 Eh
 * total energy  :  -125.7767349 Eh     change       -0.6515597E-06 Eh
 * total energy  :  -125.7767355 Eh     change       -0.6035396E-06 Eh
 * total energy  :  -125.7767363 Eh     change       -0.7938693E-06 Eh
 * total energy  :  -125.7767368 Eh     change       -0.5333801E-06 Eh
 * total energy  :  -125.7767402 Eh     change       -0.5624265E-06 Eh
 * total energy  :  -125.7767408 Eh     change       -0.5941712E-06 Eh
 * total energy  :  -125.7767414 Eh     change       -0.6085782E-06 Eh
 * total energy  :  -125.7767417 Eh     change       -0.3443613E-06 Eh
 * total energy  :  -125.7767419 Eh     change       -0.1731602E-06 Eh
 * total energy  :  -125.7767420 Eh     change       -0.1261625E-06 Eh
 * total energy  :  -125.7767420 Eh     change        0.2936147E-08 Eh
 * total energy  :  -125.7767420 Eh     change        0.4686555E-08 Eh
 * total energy  :  -125.7767420 Eh     change       -0.9256965E-08 Eh
   *** GEOMETRY OPTIMIZATION CONVERGED AFTER 24 ITERATIONS ***

 final structure:
================
79
 xtb: 6.7.1 (edcfbbe)
C           -6.05512073020596       -4.81915035539603       -0.49206544977359
C           -6.73716542317145       -3.61486376514863       -0.57411970578662
C           -6.04476298588769       -2.42111873562543       -0.53726640418885
C           -4.65438981187943       -2.42119586911738       -0.41850742731583
C           -3.92150671354754       -1.16401308067957       -0.37973217144816
N           -4.62257053427174       -0.01044464494047       -0.42577924690263
C           -3.92695933244970        1.14581832262096       -0.36511799179281
C           -4.66607559257964        2.39977444993696       -0.38284916020819
C           -6.05745065093290        2.39419288284275       -0.48922680227751
C           -6.75619800646611        3.58471466563850       -0.50344583871588
C           -6.07950458811218        4.79128766540167       -0.41119461448772
C           -4.69625304231256        4.80347637208734       -0.30415036756415
C           -3.99075831948745        3.61791407873076       -0.28987511450241
N           -2.62534663792410        1.17030023672415       -0.28646124248630
C           -1.94735001750184       -0.00522019447774       -0.25768599158402
C           -0.53201455477610       -0.00212759683328       -0.15415145775902
C            0.18310142274281        1.20996290163622       -0.10254771098192
C            1.55642736715137        1.20647222838689        0.04640282033838
N            2.24572147575836        2.42597696039003        0.14055443107835
C            3.36950157960261        2.78559451053545       -0.57163287360083
C            4.04473645325913        2.09481119547291       -1.56817919693571
C            5.14483228015227        2.69975270860246       -2.14507565118285
C            5.56390489936669        3.96861400890650       -1.75293353861293
C            4.87923691410609        4.67513985232141       -0.78160978200065
C            3.77262653361588        4.08661127918432       -0.18778447133415
C            2.83402380818345        4.52453937337443        0.80926516886848
C            2.70723616594115        5.68672091621822        1.55570297518943
C            1.66779165093563        5.78009505133938        2.46242959692573
C            0.77336820054900        4.72698478740044        2.63875973522063
C            0.88094377846068        3.55837638968145        1.90888759097242
C            1.90764252611370        3.46849154921486        0.97810447838019
C            2.26460975873134        0.00507589471703        0.13367300926872
C            1.56162117182193       -1.19990754298232        0.05485074958079
N            2.25631806539431       -2.41561555572388        0.15911919265308
C            3.38024944059103       -2.77728962387386       -0.55159868843608
C            4.04982756928672       -2.09371261419934       -1.55689271318027
C            5.15160782001826       -2.69933066319905       -2.12983955489889
C            5.57775515337584       -3.96191785746679       -1.72523421994239
C            4.89886678500590       -4.66142904152624       -0.74479470415687
C            3.79074605494562       -4.07207362852634       -0.15465613877256
C            2.85678205763834       -4.50366766229591        0.84950947540945
C            2.73786635306784       -5.65782225309483        1.60954905585391
C            1.70135535237254       -5.74597994228585        2.52018019709061
C            0.80185881131564       -4.69558886535160        2.68667932507893
C            0.90142458984572       -3.53498780457462        1.94304172257254
C            1.92547001142067       -3.45047282269041        1.00885944177998
C            0.18841431708254       -1.21070864183500       -0.09483286200027
N           -2.61997255190856       -1.18348069065661       -0.29833967160987
C           -3.97366861983379       -3.63703264005716       -0.33593167475917
C           -4.67285427701144       -4.82584445619078       -0.37251356610371
H           -6.59940160840422       -5.75165820972901       -0.52100648772866
H           -7.81348099103996       -3.61032421870043       -0.66711918444792
H           -6.56185221200957       -1.47595822819399       -0.60014433451658
H           -6.57036105151535        1.44729283428886       -0.55981670764184
H           -7.83330441036435        3.57585456054459       -0.58644897522280
H           -6.62874755359141        5.72127264053863       -0.42231069582652
H           -4.16970766679160        5.74401837756874       -0.23154064264077
H           -2.91484680128867        3.61178872639175       -0.20616092598803
H           -0.35791034932327        2.13721659073343       -0.19934898975414
H            3.71218188360772        1.12222765783749       -1.89461601206130
H            5.68832192406987        2.17936788773707       -2.91964170055741
H            6.42992549522717        4.40793203527296       -2.22489314454388
H            5.19338108316609        5.66652756985649       -0.49228474920338
H            3.40858937760913        6.49764807408006        1.43006621900373
H            1.54925920335652        6.67769116857816        3.05076314241983
H           -0.02022334367668        4.82396829687792        3.36461263943659
H            0.19370306091886        2.74112785406271        2.06434293511908
H            3.32916124081875        0.00782841365020        0.30501594746512
H            3.71158311674885       -1.12627875839182       -1.89273454579211
H            5.69084192875997       -2.18456745412421       -2.91110521326636
H            6.44482131007719       -4.40200866988479       -2.19455368351896
H            5.21862668183611       -5.64810539825095       -0.44566765246162
H            3.44302124197399       -6.46658058106119        1.49140853555190
H            1.58911652179488       -6.63725144019016        3.11926934202621
H            0.01070169965100       -4.78832164097096        3.41573802524438
H            0.21024058949848       -2.71956550821763        2.09048155084502
H           -0.34835393391264       -2.14113022938793       -0.18471138712565
H           -2.89858022270790       -3.62653285218322       -0.24271137081860
H           -4.14213927928038       -5.76461326314762       -0.30787009445452

 projected vibrational frequencies (cm⁻¹)
eigval :       -0.00    -0.00    -0.00    -0.00     0.00     0.00
eigval :        8.98    14.89    15.26    20.02    23.12    27.12
eigval :       28.56    30.57    49.48    53.95    55.20    66.11
eigval :       94.67    98.77   103.67   104.80   117.91   135.92
eigval :      138.27   145.07   155.77   178.71   181.33   215.77
eigval :      219.05   222.95   226.12   246.66   257.07   257.87
eigval :      271.58   272.21   288.31   312.86   323.14   363.04
eigval :      366.21   366.98   367.59   377.45   391.19   394.26
eigval :      407.18   410.70   420.71   421.94   434.07   436.17
eigval :      440.55   493.74   507.20   517.20   517.54   534.37
eigval :      537.95   538.50   540.30   543.80   544.28   565.24
eigval :      575.04   586.40   587.92   588.26   589.35   602.65
eigval :      608.11   620.39   639.36   647.59   650.04   654.28
eigval :      662.11   674.23   674.31   677.48   690.39   709.44
eigval :      709.91   747.33   751.45   755.97   761.54   762.93
eigval :      765.47   768.75   771.66   777.07   778.83   799.68
eigval :      807.92   837.00   839.09   859.15   859.60   869.41
eigval :      871.56   874.06   874.87   879.92   895.19   899.09
eigval :      899.37   899.60   900.99   903.44   904.83   905.25
eigval :      918.53   921.24   922.46   922.73   925.75   926.73
eigval :      929.12   929.25   939.04   965.84   983.30   988.56
eigval :      995.51  1011.41  1013.34  1030.15  1064.51  1068.36
eigval :     1070.49  1072.20  1073.56  1073.78  1080.62  1109.06
eigval :     1109.20  1114.52  1115.02  1134.27  1142.68  1147.35
eigval :     1155.58  1162.50  1175.22  1176.89  1179.26  1179.68
eigval :     1179.74  1180.20  1181.53  1190.02  1193.84  1214.86
eigval :     1228.37  1231.66  1233.56  1235.20  1256.52  1267.92
eigval :     1273.02  1285.53  1292.06  1292.31  1294.41  1296.15
eigval :     1327.45  1330.73  1332.06  1336.70  1348.69  1351.32
eigval :     1354.10  1359.87  1360.95  1394.72  1400.34  1416.54
eigval :     1416.85  1417.66  1425.72  1432.66  1435.48  1442.20
eigval :     1442.22  1464.69  1466.85  1467.71  1479.82  1484.89
eigval :     1485.40  1490.84  1505.07  1539.74  1568.76  1569.49
eigval :     1572.72  1573.40  1583.37  1585.44  1586.20  1586.34
eigval :     1586.51  1594.16  1604.58  1609.11  3073.77  3073.90
eigval :     3078.38  3078.57  3079.86  3079.98  3080.32  3080.57
eigval :     3085.36  3085.62  3086.82  3087.25  3088.92  3089.31
eigval :     3093.66  3093.87  3095.40  3096.19  3097.88  3098.68
eigval :     3099.04  3099.28  3099.32  3100.49  3100.60  3102.52
eigval :     3107.52  3113.32  3114.09

   temp. (K)  partition function   enthalpy   heat capacity  entropy
                                   cal/mol     cal/K/mol   cal/K/mol   J/K/mol
 298.15  VIB  0.308E+19            22945.760    144.321    142.660
         ROT  0.966E+08              888.752      2.981     39.519
         INT  0.297E+27            23834.512    147.302    182.179
         TR   0.157E+29             1481.254      4.968     45.230
         TOT                       25315.7660   152.2703   227.4086   951.4777

       T/K    H(0)-H(T)+PV         H(T)/Eh          T*S/Eh         G(T)/Eh
   ------------------------------------------------------------------------
    298.15    0.403432E-01    0.635434E+00    0.108049E+00    0.527385E+00
   ------------------------------------------------------------------------

         :::::::::::::::::::::::::::::::::::::::::::::::::::::
         ::                  THERMODYNAMIC                  ::
         :::::::::::::::::::::::::::::::::::::::::::::::::::::
         :: total free energy        -125.249357395185 Eh   ::
         ::.................................................::
         :: total energy             -125.776742005371 Eh   ::
         :: zero point energy           0.595090550848 Eh   ::
         :: G(RRHO) w/o ZPVE           -0.067705940662 Eh   ::
         :: G(RRHO) contrib.            0.527384610186 Eh   ::
         :::::::::::::::::::::::::::::::::::::::::::::::::::::

           -------------------------------------------------
          | TOTAL ENERGY             -125.776742005371 Eh   |
          | TOTAL ENTHALPY           -125.141308213396 Eh   |
          | TOTAL FREE ENERGY        -125.249357395185 Eh   |
          | GRADIENT NORM               0.000105927280 Eh/α |
           -------------------------------------------------

 * finished run on 2025/07/16 at 22:50:34.902
