   * xtb version 6.7.1 (edcfbbe) compiled by 'albert@albert-system' on 2024-07-22

   ID    Z sym.   atoms
    1    6 C      1-5, 7-13, 15-18, 20-33, 35-47, 49, 50
    2    7 N      6, 14, 19, 34, 48
    3    1 H      51-79

          program call               : xtb data2507/gas/DCzTrz/DCzTrz.xyz --gfn 2 --ohess vtight --parallel 40 --molden --ceasefiles --namespace data2507/gas/DCzTrz/DCzTrz_gas_S0_preOpt
          :  Hamiltonian                  GFN2-xTB          :
 * total energy  :  -125.8314001 Eh     change       -0.1870120E-08 Eh
 * total energy  :  -125.8456502 Eh     change       -0.1425009E-01 Eh
 * total energy  :  -125.8493980 Eh     change       -0.3747835E-02 Eh
 * total energy  :  -125.8503647 Eh     change       -0.9667178E-03 Eh
 * total energy  :  -125.8507884 Eh     change       -0.4236441E-03 Eh
 * total energy  :  -125.8508762 Eh     change       -0.8780355E-04 Eh
 * total energy  :  -125.8509238 Eh     change       -0.4767376E-04 Eh
 * total energy  :  -125.8509590 Eh     change       -0.3513718E-04 Eh
 * total energy  :  -125.8509816 Eh     change       -0.2263416E-04 Eh
 * total energy  :  -125.8510104 Eh     change       -0.2874234E-04 Eh
 * total energy  :  -125.8511819 Eh     change       -0.8424101E-06 Eh
 * total energy  :  -125.8511826 Eh     change       -0.7827365E-06 Eh
 * total energy  :  -125.8511833 Eh     change       -0.6651691E-06 Eh
 * total energy  :  -125.8511838 Eh     change       -0.5259619E-06 Eh
 * total energy  :  -125.8511842 Eh     change       -0.3747670E-06 Eh
 * total energy  :  -125.8511845 Eh     change       -0.3060119E-06 Eh
 * total energy  :  -125.8511848 Eh     change       -0.2432282E-06 Eh
 * total energy  :  -125.8511850 Eh     change       -0.2125921E-06 Eh
 * total energy  :  -125.8511850 Eh     change       -0.1669832E-08 Eh
   *** GEOMETRY OPTIMIZATION CONVERGED AFTER 44 ITERATIONS ***

 final structure:
================
79
 xtb: 6.7.1 (edcfbbe)
C           -6.04830075928394       -4.80299879135821        0.19151482933253
C           -6.74685140541138       -3.61099823969430        0.07607121781082
C           -6.06551483149747       -2.41050382821183        0.02809644160283
C           -4.67363775498793       -2.39590372058408        0.09467484500544
C           -3.94738772608641       -1.12796016224466        0.04270139775218
N           -4.65048023665240       -0.00014847114183       -0.00005833674604
C           -3.94749262790863        1.12772808827543       -0.04284562061335
C           -4.67386887381300        2.39560290115681       -0.09473311258108
C           -6.06575104640746        2.41005039813289       -0.02821923518816
C           -6.74721127038504        3.61047861159761       -0.07608880850787
C           -6.04877965296728        4.80256576460027       -0.19135852179688
C           -4.66409799755788        4.79333278685611       -0.25901284732502
C           -3.97609716090716        3.59672438697286       -0.21081110590164
N           -2.61708754598881        1.17349273615523       -0.04143442675136
C           -1.99735971641369       -0.00002664313133       -0.00013992869731
C           -0.53270698826711        0.00002660435263       -0.00017418152845
C            0.15784716433917        1.19147049396131        0.18661388824357
C            1.54757814118980        1.19439652739035        0.17215454128445
N            2.24474484928989        2.39577803374012        0.33225261509988
C            1.97030296638170        3.57508370780740       -0.33683812783648
C            1.02181848219960        3.83909747076231       -1.31461694197488
C            0.97798734209542        5.11534917054416       -1.84288833016539
C            1.85999602486185        6.10832333194061       -1.42289145819434
C            2.82314268442320        5.84407922376165       -0.46996031869996
C            2.88538372040426        4.56922290964198        0.07705539431709
C            3.74536163533079        3.95494940374468        1.04985994848510
C            4.80584534114800        4.42324830863522        1.81397639895813
C            5.41654017976572        3.55737644433868        2.69882632177439
C            4.96957285662191        2.24577826140649        2.83913080438467
C            3.91639554392304        1.75717339423149        2.08945382193285
C            3.31707214117639        2.61388645099257        1.17741477131200
C            2.24210941871769        0.00009148268145       -0.00018006051676
C            1.54763441434728       -1.19424902696554       -0.17248993509747
N            2.24484493781997       -2.39562021651584       -0.33247899710706
C            3.31722468136558       -2.61377976805136       -1.17755777622898
C            3.91653553726751       -1.75715520167096       -2.08968777785122
C            4.96977740232588       -2.24579949052045       -2.83924866256188
C            5.41682061904149       -3.55735019729764       -2.69873933026568
C            4.80614391880991       -4.42313574532908       -1.81379225817691
C            3.74559625657230       -3.95479672510678       -1.04978948453289
C            2.88562283928946       -4.56898238282003       -0.07692526034085
C            2.82345351134559       -5.84375611671989        0.47029181410466
C            1.86029581022775       -6.10791615973358        1.42323512752891
C            0.97820212906055       -5.11493825794323        1.84304471740284
C            1.02196005100621       -3.83876815785627        1.31457100603748
C            1.97045940891090       -3.57484258470726        0.33678279845798
C            0.15790486773551       -1.19138552785187       -0.18695524859339
N           -2.61697979623444       -1.17360155022605        0.04120582218504
C           -3.97574553611353       -3.59693906711202        0.21092079156524
C           -4.66362325771879       -4.79361363424181        0.25923193153427
H           -6.58386378124405       -5.74041278253365        0.22869161853598
H           -7.82566784842830       -3.62130701500594        0.02321194910985
H           -6.59151731894291       -1.47325522737912       -0.06307741223016
H           -6.59165973444262        1.47273586826025        0.06281645552915
H           -7.82603183710015        3.62066737819578       -0.02329113540438
H           -6.58443882741568        5.73992809530580       -0.22845083113979
H           -4.12180844302789        5.72312621566070       -0.34912748791877
H           -2.89893088654931        3.57141750615615       -0.26364988750383
H           -0.39562899209626        2.09975130655319        0.35979375844487
H            0.34456894792144        3.07418583096386       -1.66295958198810
H            0.24488990852052        5.34626196493312       -2.60176046775143
H            1.79166774227087        7.09401170239356       -1.85859746635304
H            3.51838978671458        6.60781642992094       -0.15576073356185
H            5.13849779249014        5.44574749627399        1.71799800860607
H            6.24503773628374        3.89999196600336        3.30060493754856
H            5.45398074164350        1.59590874596804        3.55288274020916
H            3.56627031267925        0.74520097881648        2.22604591408915
H            3.32110529203477        0.00011667357207       -0.00018549831213
H            3.56635287480165       -0.74522272737255       -2.22643049317293
H            5.45417791782915       -1.59600103714592       -3.55307030772339
H            6.24536680961849       -3.89999845372702       -3.30043244339583
H            5.13886080695238       -5.44559872776208       -1.71765093075210
H            3.51876546259307       -6.60749423198460        0.15623808173137
H            1.79202517979785       -7.09353886519140        1.85909864856506
H            0.24509732938225       -5.34578094671496        2.60193112937586
H            0.34464593765116       -3.07384851206099        1.66277057632113
H           -0.39552892172627       -2.09969607678589       -0.36011452681467
H           -2.89858484025782       -3.57151297698759        0.26381861496166
H           -4.12124084034263       -5.72333880496835        0.34949261866313

          :  Hamiltonian                  GFN2-xTB          :
         :: gradient norm              0.000032419610 Eh/a0 ::
         :: HOMO-LUMO gap              2.002995971655 eV    ::
         :: SCC energy              -128.180804025739 Eh    ::
         :: -> dispersion             -0.109769150509 Eh    ::
         :: repulsion energy           2.329619050552 Eh    ::

    * Orbital Energies and Occupations

         #    Occupation            Energy/Eh            Energy/eV
      -------------------------------------------------------------
         1        2.0000           -0.6867196             -18.6866
       ...           ...                  ...                  ...
       105        2.0000           -0.4147743             -11.2866
       106        2.0000           -0.4129049             -11.2357
       107        2.0000           -0.4128669             -11.2347
       108        2.0000           -0.4095536             -11.1445
       109        2.0000           -0.4084488             -11.1145
       110        2.0000           -0.4052106             -11.0263
       111        2.0000           -0.4051617             -11.0250
       112        2.0000           -0.3786667             -10.3040
       113        2.0000           -0.3786635             -10.3040
       114        2.0000           -0.3743323             -10.1861
       115        2.0000           -0.3734398             -10.1618
       116        2.0000           -0.3647706              -9.9259
       117        2.0000           -0.3637201              -9.8973 (HOMO)
       118                         -0.2901114              -7.8943 (LUMO)
       119                         -0.2884085              -7.8480
       120                         -0.2491517              -6.7798
       121                         -0.2489747              -6.7749
       122                         -0.2441229              -6.6429
       123                         -0.2390263              -6.5042
       124                         -0.2299606              -6.2575
       125                         -0.2299520              -6.2573
       126                         -0.2218848              -6.0378
       127                         -0.2218831              -6.0377
       128                         -0.2100263              -5.7151
       ...                                ...                  ...
       229                          0.7460711              20.3016
      -------------------------------------------------------------
                  HL-Gap            0.0736087 Eh            2.0030 eV

     #   Z          covCN         q      C6AA      α(0)
     1   6 C        2.920    -0.023    28.574     8.766
     2   6 C        2.918    -0.027    28.680     8.782
     3   6 C        2.924    -0.023    28.583     8.767
     4   6 C        2.984    -0.000    28.025     8.684
     5   6 C        2.983     0.203    23.697     7.985
     6   7 N        1.844    -0.292    28.423     7.901
     7   6 C        2.983     0.203    23.697     7.985
     8   6 C        2.984    -0.000    28.025     8.684
     9   6 C        2.924    -0.023    28.583     8.767
    10   6 C        2.918    -0.027    28.680     8.782
    11   6 C        2.920    -0.023    28.574     8.766
    12   6 C        2.918    -0.027    28.676     8.781
    13   6 C        2.924    -0.023    28.578     8.767
    14   7 N        1.845    -0.294    28.482     7.909
    15   6 C        2.988     0.203    23.688     7.984
    16   6 C        2.984     0.002    27.984     8.677
    17   6 C        2.927    -0.046    29.142     8.853
    18   6 C        2.911     0.068    26.477     8.438
    19   7 N        2.803    -0.042    22.049     6.974
    20   6 C        3.073     0.047    26.882     8.501
    21   6 C        2.910    -0.051    29.255     8.869
    22   6 C        2.924    -0.033    28.818     8.803
    23   6 C        2.920    -0.040    29.001     8.831
    24   6 C        2.913    -0.033    28.812     8.802
    25   6 C        3.067    -0.016    28.337     8.729
    26   6 C        3.068    -0.016    28.338     8.729
    27   6 C        2.913    -0.032    28.808     8.801
    28   6 C        2.920    -0.040    28.997     8.831
    29   6 C        2.924    -0.033    28.819     8.804
    30   6 C        2.910    -0.051    29.259     8.870
    31   6 C        3.071     0.046    26.887     8.502
    32   6 C        2.925    -0.057    29.422     8.895
    33   6 C        2.911     0.068    26.477     8.438
    34   7 N        2.803    -0.042    22.049     6.974
    35   6 C        3.071     0.046    26.887     8.502
    36   6 C        2.910    -0.051    29.259     8.870
    37   6 C        2.924    -0.033    28.819     8.804
    38   6 C        2.920    -0.040    28.997     8.831
    39   6 C        2.913    -0.032    28.808     8.801
    40   6 C        3.068    -0.016    28.338     8.729
    41   6 C        3.067    -0.016    28.337     8.729
    42   6 C        2.913    -0.033    28.812     8.802
    43   6 C        2.920    -0.040    29.001     8.831
    44   6 C        2.924    -0.033    28.818     8.803
    45   6 C        2.910    -0.051    29.255     8.869
    46   6 C        3.073     0.047    26.882     8.501
    47   6 C        2.927    -0.046    29.142     8.853
    48   7 N        1.845    -0.294    28.482     7.909
    49   6 C        2.924    -0.023    28.578     8.767
    50   6 C        2.918    -0.027    28.676     8.781
    51   1 H        0.926     0.038     2.481     2.463
    52   1 H        0.926     0.038     2.481     2.463
    53   1 H        0.926     0.055     2.254     2.348
    54   1 H        0.926     0.055     2.254     2.348
    55   1 H        0.926     0.038     2.481     2.463
    56   1 H        0.926     0.038     2.481     2.463
    57   1 H        0.926     0.038     2.474     2.459
    58   1 H        0.926     0.056     2.250     2.346
    59   1 H        0.926     0.067     2.119     2.276
    60   1 H        0.926     0.031     2.571     2.507
    61   1 H        0.926     0.030     2.586     2.515
    62   1 H        0.926     0.029     2.606     2.525
    63   1 H        0.926     0.032     2.564     2.504
    64   1 H        0.926     0.032     2.560     2.502
    65   1 H        0.926     0.029     2.601     2.522
    66   1 H        0.926     0.030     2.586     2.515
    67   1 H        0.926     0.027     2.626     2.534
    68   1 H        0.926     0.055     2.253     2.347
    69   1 H        0.926     0.027     2.626     2.534
    70   1 H        0.926     0.030     2.586     2.515
    71   1 H        0.926     0.029     2.601     2.522
    72   1 H        0.926     0.032     2.560     2.502
    73   1 H        0.926     0.032     2.564     2.504
    74   1 H        0.926     0.029     2.606     2.525
    75   1 H        0.926     0.030     2.586     2.515
    76   1 H        0.926     0.031     2.571     2.507
    77   1 H        0.926     0.067     2.119     2.276
    78   1 H        0.926     0.056     2.250     2.346
    79   1 H        0.926     0.038     2.474     2.459

molecular dipole:
                 x           y           z       tot (Debye)
 q only:       -0.582      -0.000       0.000
   full:       -0.668       0.000       0.000       1.699

 projected vibrational frequencies (cm⁻¹)
eigval :       -0.00    -0.00    -0.00     0.00     0.00     0.00
eigval :        7.35    15.13    19.75    20.84    22.17    23.49
eigval :       24.39    28.85    50.61    57.71    60.02    67.49
eigval :       91.23    95.45    98.18   101.91   123.08   137.62
eigval :      141.80   147.07   157.67   181.17   183.90   189.85
eigval :      219.20   233.79   244.80   249.59   252.82   266.37
eigval :      273.07   273.15   299.48   312.20   337.14   359.41
eigval :      364.46   365.17   388.50   396.16   396.80   399.72
eigval :      412.06   423.46   423.47   428.19   438.17   438.46
eigval :      459.35   498.81   512.02   518.40   520.41   536.29
eigval :      541.16   541.20   544.85   554.76   585.75   587.15
eigval :      587.72   588.30   606.57   612.80   621.44   622.94
eigval :      627.01   638.21   651.30   653.61   669.08   674.06
eigval :      674.65   675.11   690.15   707.64   708.59   714.68
eigval :      749.87   754.49   756.15   769.76   770.64   770.91
eigval :      775.99   781.32   781.81   796.52   844.73   848.64
eigval :      860.36   868.12   869.73   873.67   876.23   877.89
eigval :      880.98   892.72   897.96   898.56   899.55   903.68
eigval :      906.07   908.75   910.92   912.02   913.37   922.91
eigval :      924.43   925.40   928.20   930.26   931.32   934.26
eigval :      934.40   957.33   990.40   991.30  1002.25  1011.75
eigval :     1015.17  1033.79  1050.96  1071.29  1071.96  1074.60
eigval :     1075.08  1075.09  1076.55  1100.64  1108.53  1112.51
eigval :     1119.21  1119.58  1149.69  1153.06  1154.75  1163.84
eigval :     1167.79  1179.50  1180.05  1181.13  1181.17  1181.38
eigval :     1183.00  1189.14  1203.42  1206.50  1209.50  1217.95
eigval :     1235.44  1236.51  1237.89  1253.36  1268.56  1269.99
eigval :     1296.89  1298.97  1302.30  1303.14  1327.18  1327.24
eigval :     1329.55  1335.00  1343.60  1357.87  1358.33  1362.55
eigval :     1362.77  1373.40  1373.72  1400.86  1419.47  1426.57
eigval :     1427.81  1432.44  1433.91  1437.35  1458.98  1460.73
eigval :     1467.94  1476.26  1476.86  1478.35  1488.01  1488.05
eigval :     1514.05  1523.13  1569.41  1572.09  1576.37  1577.19
eigval :     1583.69  1585.58  1588.92  1589.46  1594.78  1595.59
eigval :     1599.19  1599.50  1614.34  1615.09  3075.29  3075.35
eigval :     3076.87  3076.88  3077.55  3077.55  3081.68  3081.80
eigval :     3082.28  3082.29  3083.46  3083.51  3089.56  3089.62
eigval :     3090.48  3090.83  3091.32  3091.41  3096.12  3096.13
eigval :     3097.63  3097.77  3105.72  3106.52  3106.71  3107.21
eigval :     3108.99  3121.40  3121.53

   temp. (K)  partition function   enthalpy   heat capacity  entropy
                                   cal/mol     cal/K/mol   cal/K/mol   J/K/mol
 298.15  VIB  0.261E+19            22577.503    141.627    140.930
         ROT  0.481E+08              888.752      2.981     38.134
         INT  0.126E+27            23466.255    144.608    179.064
         TR   0.157E+29             1481.254      4.968     45.230
         TOT                       24947.5091   149.5763   224.2940   938.4462

       T/K    H(0)-H(T)+PV         H(T)/Eh          T*S/Eh         G(T)/Eh
   ------------------------------------------------------------------------
    298.15    0.397564E-01    0.640278E+00    0.106569E+00    0.533709E+00
   ------------------------------------------------------------------------

         :::::::::::::::::::::::::::::::::::::::::::::::::::::
         ::                  THERMODYNAMIC                  ::
         :::::::::::::::::::::::::::::::::::::::::::::::::::::
         :: total free energy        -125.317476460863 Eh   ::
         ::.................................................::
         :: total energy             -125.851184975179 Eh   ::
         :: zero point energy           0.600521453008 Eh   ::
         :: G(RRHO) w/o ZPVE           -0.066812938691 Eh   ::
         :: G(RRHO) contrib.            0.533708514317 Eh   ::
         :::::::::::::::::::::::::::::::::::::::::::::::::::::

           -------------------------------------------------
          | TOTAL ENERGY             -125.851184975179 Eh   |
          | TOTAL ENTHALPY           -125.210907135862 Eh   |
          | TOTAL FREE ENERGY        -125.317476460863 Eh   |
          | GRADIENT NORM               0.000032419366 Eh/α |
          | HOMO-LUMO GAP               2.002995892325 eV   |
           -------------------------------------------------

 * finished run on 2025/07/16 at 22:40:07.083
