   * xtb version 6.7.1 (edcfbbe) compiled by 'albert@albert-system' on 2024-07-22

   ID    Z sym.   atoms
    1    6 C      1-5, 7-13, 15-18, 20-33, 35-47, 49, 50
    2    7 N      6, 14, 19, 34, 48
    3    1 H      51-79

          program call               : xtb data2507/gas/DCzTrz/DCzTrz_gas_S0_crest.xyz --gfn 2 --ohess vtight --parallel 40 --molden --ceasefiles --namespace data2507/gas/DCzTrz/DCzTrz_gas_S0_finalOpt
          :  Hamiltonian                  GFN2-xTB          :
 * total energy  :  -125.8512037 Eh     change       -0.1646384E-08 Eh
 * total energy  :  -125.8512043 Eh     change       -0.6899088E-06 Eh
 * total energy  :  -125.8512052 Eh     change       -0.8184297E-06 Eh
 * total energy  :  -125.8512064 Eh     change       -0.1249653E-05 Eh
 * total energy  :  -125.8512078 Eh     change       -0.1401840E-05 Eh
 * total energy  :  -125.8512084 Eh     change       -0.5497909E-06 Eh
 * total energy  :  -125.8512090 Eh     change       -0.6185006E-06 Eh
 * total energy  :  -125.8512100 Eh     change       -0.9886638E-06 Eh
 * total energy  :  -125.8512111 Eh     change       -0.1093035E-05 Eh
 * total energy  :  -125.8512120 Eh     change       -0.9614579E-06 Eh
 * total energy  :  -125.8512130 Eh     change       -0.9294033E-06 Eh
 * total energy  :  -125.8512138 Eh     change       -0.8101087E-06 Eh
 * total energy  :  -125.8512142 Eh     change       -0.4672722E-06 Eh
 * total energy  :  -125.8512145 Eh     change       -0.2543502E-06 Eh
 * total energy  :  -125.8512145 Eh     change       -0.2232790E-07 Eh
   *** GEOMETRY OPTIMIZATION CONVERGED AFTER 15 ITERATIONS ***

 final structure:
================
79
 xtb: 6.7.1 (edcfbbe)
C           -6.07669022372378       -4.73562601348903        0.50536268896193
C           -6.76857864147890       -3.54738218555612        0.32808849619865
C           -6.07965999358998       -2.35753560851821        0.19642319890369
C           -4.68687289336384       -2.35002790322183        0.24104330938997
C           -3.95246978270479       -1.09314949928619        0.10466516603419
N           -4.64777893673825        0.03510086342190       -0.00394449344780
C           -3.93730498065773        1.15363657213684       -0.11407444434024
C           -4.65499651038983        2.42035357950023       -0.24854408375721
C           -6.04759570459380        2.44609113142690       -0.20372829268833
C           -6.72091488291964        3.64505658126719       -0.33336057252674
C           -6.01355761412376        4.82446557663865       -0.50892591501302
C           -4.62809697732187        4.80397516301201       -0.55476259498245
C           -3.94818977932367        3.60877409008765       -0.42516972895921
N           -2.60646471207121        1.19090403429102       -0.11036810316834
C           -1.99527170169037        0.01695454790751       -0.00686012675228
C           -0.53065656680282        0.00611052451347       -0.00654475124861
C            0.16878182496098        1.19280671565670        0.17643317890375
C            1.55855032540235        1.18375058927318        0.16736665771120
N            2.26569314062197        2.37887216329075        0.33066533229509
C            2.00538977102852        3.56095288821616       -0.33885649027674
C            1.06725631194355        3.83261642862823       -1.32446682119819
C            1.03722715790988        5.10968760849205       -1.85169836105230
C            1.92272177377300        6.09580455053108       -1.42290958598923
C            2.87537624026474        5.82386127186025       -0.46161494852868
C            2.92368563581108        4.54807341156894        0.08463342069176
C            3.77005253903676        3.92661389586459        1.06482889024990
C            4.82595566237145        4.38647114305671        1.84035400247399
C            5.42157578067399        3.51521207632395        2.73020387126869
C            4.96443945905870        2.20643677738588        2.86395672449999
C            3.91564866444027        1.72611318753081        2.10287389842988
C            3.33125919834850        2.58839196096621        1.18643818768804
C            2.24367601829496       -0.01648934744052       -0.00117574395990
C            1.53998026061789       -1.20546275765671       -0.17289360146890
N            2.22768024729271       -2.41238607228678       -0.33169116004160
C            3.29723301667231       -2.63982373039237       -1.17795079466081
C            3.90321154688858       -1.78828675944948       -2.09041615434302
C            4.95063497198765       -2.28635559723997       -2.84194883629031
C            5.38556225263008       -3.60211428179045       -2.70290181506994
C            4.76838444196812       -4.46255880591510       -1.81724113997975
C            3.71347906194968       -3.98475705138417       -1.05129005214255
C            2.84883422109835       -4.59160234015828       -0.07793906800410
C            2.77556777443547       -5.86600192127746        0.46877011139104
C            1.81033716790461       -6.12204720474022        1.42183176922513
C            0.93709213323856       -5.12153548385069        1.84227891556820
C            0.99223128192120       -3.84545774387655        1.31467493129817
C            1.94290075390844       -3.58951486677754        0.33685707105944
C            0.15026315410008       -1.19155996031689       -0.18767088433410
N           -2.62243213335818       -1.14854160510715        0.09798244088164
C           -3.99563589365120       -3.54732176564495        0.41944784145492
C           -4.69106836352207       -4.73334916334477        0.55088863309695
H           -6.61823794329992       -5.66459352870672        0.60881528642353
H           -7.84813729498802       -3.55229266627941        0.29287137518401
H           -6.60042438532407       -1.42337729136186        0.05659079623947
H           -6.58056312531198        1.51859773035025       -0.06547846450108
H           -7.80033184416785        3.66396398706169       -0.29802164156398
H           -6.54290060429119        5.76065373329910       -0.61046807574557
H           -4.07888040495046        5.72395027297032       -0.69154779061155
H           -2.87052304766139        3.57461491101505       -0.46005545943967
H           -0.37752125317380        2.10647357808208        0.34440578421598
H            0.38761027402771        3.07271839764359       -1.67911357298269
H            0.31253549970177        5.34673378546863       -2.61673594856277
H            1.86543707471957        7.08236550565291       -1.85824312615304
H            3.57311637431146        6.58239228702439       -0.14039930029880
H            5.16661043486022        5.40679352480479        1.74939975353751
H            6.24603593828277        3.85141370507824        3.34108159929580
H            5.43713004538311        1.55227022417040        3.58162951471210
H            3.55730760923267        0.71629937165192        2.23409608120072
H            3.32265309809749       -0.02509056195934        0.00165930261406
H            3.56235666150665       -0.77302601702881       -2.22603348100339
H            5.43989850786671       -1.64073222315313       -3.55624098262658
H            6.20969788071837       -3.95228792828252       -3.30632199095387
H            5.09169208064445       -5.48813577358739       -1.72221894365997
H            3.46404489285950       -6.63570342754719        0.15422825868196
H            1.73348149901542       -7.10723532932925        1.85724743691437
H            0.20205853349753       -5.34633967276573        2.60112593004625
H            0.32198506523531       -3.07459720175160        1.66344723149107
H           -0.41020729144747       -2.09611874301371       -0.35811595655822
H           -2.91762431499281       -3.52714855384542        0.45434993984870
H           -4.15392652997924       -5.66013320198996        0.68973610750387

          :  Hamiltonian                  GFN2-xTB          :
         :: gradient norm              0.000166200270 Eh/a0 ::
         :: HOMO-LUMO gap              2.008725170407 eV    ::
         :: SCC energy              -128.180911186287 Eh    ::
         :: -> dispersion             -0.109830543140 Eh    ::
         :: repulsion energy           2.329696674252 Eh    ::

    * Orbital Energies and Occupations

         #    Occupation            Energy/Eh            Energy/eV
      -------------------------------------------------------------
         1        2.0000           -0.6867873             -18.6884
       ...           ...                  ...                  ...
       105        2.0000           -0.4148159             -11.2877
       106        2.0000           -0.4129362             -11.2366
       107        2.0000           -0.4128961             -11.2355
       108        2.0000           -0.4095891             -11.1455
       109        2.0000           -0.4084765             -11.1152
       110        2.0000           -0.4052015             -11.0261
       111        2.0000           -0.4051433             -11.0245
       112        2.0000           -0.3786741             -10.3042
       113        2.0000           -0.3786388             -10.3033
       114        2.0000           -0.3744366             -10.1889
       115        2.0000           -0.3734449             -10.1620
       116        2.0000           -0.3647628              -9.9257
       117        2.0000           -0.3637149              -9.8972 (HOMO)
       118                         -0.2898956              -7.8885 (LUMO)
       119                         -0.2884830              -7.8500
       120                         -0.2491441              -6.7796
       121                         -0.2489808              -6.7751
       122                         -0.2441024              -6.6424
       123                         -0.2390500              -6.5049
       124                         -0.2299907              -6.2584
       125                         -0.2299774              -6.2580
       126                         -0.2218872              -6.0379
       127                         -0.2218484              -6.0368
       128                         -0.2102135              -5.7202
       ...                                ...                  ...
       229                          0.7460925              20.3022
      -------------------------------------------------------------
                  HL-Gap            0.0738193 Eh            2.0087 eV

     #   Z          covCN         q      C6AA      α(0)
     1   6 C        2.920    -0.023    28.574     8.766
     2   6 C        2.918    -0.027    28.679     8.782
     3   6 C        2.924    -0.023    28.582     8.767
     4   6 C        2.984    -0.000    28.026     8.684
     5   6 C        2.983     0.203    23.697     7.985
     6   7 N        1.844    -0.292    28.421     7.901
     7   6 C        2.983     0.203    23.697     7.985
     8   6 C        2.984    -0.000    28.025     8.684
     9   6 C        2.924    -0.023    28.582     8.767
    10   6 C        2.918    -0.027    28.680     8.782
    11   6 C        2.920    -0.023    28.574     8.766
    12   6 C        2.918    -0.027    28.676     8.781
    13   6 C        2.924    -0.023    28.579     8.767
    14   7 N        1.845    -0.294    28.482     7.909
    15   6 C        2.988     0.203    23.685     7.983
    16   6 C        2.984     0.002    27.978     8.677
    17   6 C        2.927    -0.046    29.139     8.852
    18   6 C        2.911     0.068    26.477     8.437
    19   7 N        2.803    -0.042    22.050     6.974
    20   6 C        3.073     0.047    26.882     8.501
    21   6 C        2.910    -0.051    29.256     8.869
    22   6 C        2.924    -0.033    28.818     8.803
    23   6 C        2.920    -0.040    29.002     8.831
    24   6 C        2.913    -0.033    28.812     8.802
    25   6 C        3.067    -0.016    28.338     8.729
    26   6 C        3.068    -0.016    28.338     8.729
    27   6 C        2.913    -0.032    28.808     8.801
    28   6 C        2.920    -0.040    28.998     8.831
    29   6 C        2.924    -0.033    28.819     8.804
    30   6 C        2.910    -0.051    29.260     8.870
    31   6 C        3.071     0.046    26.887     8.502
    32   6 C        2.925    -0.057    29.422     8.895
    33   6 C        2.911     0.068    26.477     8.437
    34   7 N        2.803    -0.042    22.049     6.974
    35   6 C        3.071     0.046    26.887     8.502
    36   6 C        2.910    -0.051    29.260     8.870
    37   6 C        2.924    -0.033    28.819     8.804
    38   6 C        2.920    -0.040    28.997     8.831
    39   6 C        2.913    -0.032    28.808     8.801
    40   6 C        3.068    -0.016    28.338     8.729
    41   6 C        3.067    -0.016    28.337     8.729
    42   6 C        2.913    -0.033    28.812     8.802
    43   6 C        2.920    -0.040    29.001     8.831
    44   6 C        2.924    -0.033    28.818     8.803
    45   6 C        2.910    -0.051    29.256     8.869
    46   6 C        3.073     0.047    26.882     8.501
    47   6 C        2.927    -0.046    29.140     8.853
    48   7 N        1.845    -0.295    28.483     7.910
    49   6 C        2.924    -0.023    28.579     8.767
    50   6 C        2.918    -0.027    28.676     8.781
    51   1 H        0.926     0.038     2.481     2.463
    52   1 H        0.926     0.038     2.481     2.463
    53   1 H        0.926     0.055     2.254     2.348
    54   1 H        0.926     0.055     2.254     2.348
    55   1 H        0.926     0.038     2.481     2.463
    56   1 H        0.926     0.038     2.481     2.463
    57   1 H        0.926     0.038     2.474     2.459
    58   1 H        0.926     0.056     2.248     2.345
    59   1 H        0.926     0.066     2.125     2.280
    60   1 H        0.926     0.031     2.570     2.507
    61   1 H        0.926     0.030     2.587     2.515
    62   1 H        0.926     0.029     2.607     2.525
    63   1 H        0.926     0.032     2.564     2.504
    64   1 H        0.926     0.032     2.560     2.502
    65   1 H        0.926     0.029     2.601     2.522
    66   1 H        0.926     0.030     2.586     2.515
    67   1 H        0.926     0.027     2.626     2.534
    68   1 H        0.926     0.055     2.253     2.347
    69   1 H        0.926     0.027     2.625     2.534
    70   1 H        0.926     0.030     2.586     2.515
    71   1 H        0.926     0.029     2.601     2.522
    72   1 H        0.926     0.032     2.560     2.502
    73   1 H        0.926     0.032     2.564     2.504
    74   1 H        0.926     0.029     2.607     2.525
    75   1 H        0.926     0.030     2.586     2.515
    76   1 H        0.926     0.031     2.568     2.506
    77   1 H        0.926     0.067     2.124     2.279
    78   1 H        0.926     0.056     2.248     2.345
    79   1 H        0.926     0.038     2.473     2.459

molecular dipole:
                 x           y           z       tot (Debye)
 q only:       -0.585       0.002      -0.000
   full:       -0.672       0.003      -0.000       1.709

 projected vibrational frequencies (cm⁻¹)
eigval :       -0.00    -0.00    -0.00    -0.00     0.00     0.00
eigval :        7.90    14.98    19.59    20.89    22.11    23.55
eigval :       24.54    29.28    50.73    57.76    59.94    67.61
eigval :       91.57    93.83    98.25   102.87   123.99   137.57
eigval :      141.82   146.95   157.70   181.39   185.23   188.28
eigval :      219.40   234.03   244.78   249.50   252.90   266.35
eigval :      273.03   273.15   299.41   311.85   337.19   359.61
eigval :      364.47   365.21   387.92   396.06   396.80   400.48
eigval :      410.98   423.48   423.53   428.46   438.11   438.42
eigval :      459.47   498.30   511.99   518.37   520.40   536.37
eigval :      541.17   541.21   544.79   554.57   585.91   587.15
eigval :      587.76   588.30   607.60   612.78   621.45   622.94
eigval :      627.06   638.37   651.33   653.52   669.03   674.05
eigval :      674.67   675.02   690.27   707.64   708.59   714.69
eigval :      749.86   754.51   756.15   769.77   770.65   770.94
eigval :      776.03   781.34   781.82   796.74   844.46   848.77
eigval :      860.42   868.12   869.78   873.63   876.26   878.02
eigval :      880.93   892.66   897.86   898.54   899.60   903.67
eigval :      906.07   908.76   910.88   912.15   913.28   922.90
eigval :      924.43   925.39   928.11   930.26   931.36   934.27
eigval :      934.41   957.30   990.39   991.29  1002.26  1011.75
eigval :     1015.14  1033.82  1050.98  1071.26  1071.93  1074.58
eigval :     1075.04  1075.08  1076.58  1100.85  1108.55  1112.52
eigval :     1119.50  1119.74  1149.93  1153.06  1154.92  1164.00
eigval :     1167.74  1179.45  1180.05  1181.15  1181.19  1181.39
eigval :     1182.99  1189.16  1203.36  1206.58  1209.54  1218.34
eigval :     1235.45  1236.55  1237.89  1253.37  1268.53  1269.99
eigval :     1296.81  1299.05  1302.24  1303.21  1327.05  1327.23
eigval :     1329.55  1335.06  1343.80  1357.87  1358.34  1362.57
eigval :     1362.78  1373.33  1373.79  1401.03  1419.44  1426.62
eigval :     1427.82  1432.46  1433.92  1437.82  1459.14  1460.82
eigval :     1467.90  1476.25  1476.86  1478.40  1487.97  1488.04
eigval :     1513.89  1523.31  1569.55  1572.15  1576.39  1577.22
eigval :     1583.70  1585.59  1588.95  1589.48  1594.75  1595.57
eigval :     1599.20  1599.51  1614.33  1615.09  3075.29  3075.36
eigval :     3076.80  3076.82  3077.52  3077.55  3081.70  3081.83
eigval :     3082.23  3082.29  3083.41  3083.49  3089.52  3089.62
eigval :     3090.49  3090.84  3091.27  3091.40  3096.06  3096.13
eigval :     3097.59  3097.74  3105.50  3106.47  3106.67  3107.28
eigval :     3109.13  3120.52  3120.78

   temp. (K)  partition function   enthalpy   heat capacity  entropy
                                   cal/mol     cal/K/mol   cal/K/mol   J/K/mol
 298.15  VIB  0.241E+19            22575.364    141.633    140.854
         ROT  0.481E+08              888.752      2.981     38.135
         INT  0.116E+27            23464.117    144.614    178.989
         TR   0.157E+29             1481.254      4.968     45.230
         TOT                       24945.3707   149.5818   224.2182   938.1288

       T/K    H(0)-H(T)+PV         H(T)/Eh          T*S/Eh         G(T)/Eh
   ------------------------------------------------------------------------
    298.15    0.397530E-01    0.640281E+00    0.106533E+00    0.533748E+00
   ------------------------------------------------------------------------

         :::::::::::::::::::::::::::::::::::::::::::::::::::::
         ::                  THERMODYNAMIC                  ::
         :::::::::::::::::::::::::::::::::::::::::::::::::::::
         :: total free energy        -125.317466872556 Eh   ::
         ::.................................................::
         :: total energy             -125.851214512034 Eh   ::
         :: zero point energy           0.600527943536 Eh   ::
         :: G(RRHO) w/o ZPVE           -0.066780304057 Eh   ::
         :: G(RRHO) contrib.            0.533747639478 Eh   ::
         :::::::::::::::::::::::::::::::::::::::::::::::::::::

           -------------------------------------------------
          | TOTAL ENERGY             -125.851214512034 Eh   |
          | TOTAL ENTHALPY           -125.210933589885 Eh   |
          | TOTAL FREE ENERGY        -125.317466872556 Eh   |
          | GRADIENT NORM               0.000166173431 Eh/α |
          | HOMO-LUMO GAP               2.008725953678 eV   |
           -------------------------------------------------

 * finished run on 2025/07/16 at 22:44:09.813
