   * xtb version 6.7.1 (edcfbbe) compiled by 'albert@albert-system' on 2024-07-22

   ID    Z sym.   atoms
    1    6 C      1-34, 36-48
    2    7 N      35
    3    1 H      49-107

          program call               : xtb data2507/gas/TBAc/TBAc_gas_S0_crest.xyz --gfn 2 --ohess vtight --parallel 40 --molden --ceasefiles --namespace data2507/gas/TBAc/TBAc_gas_S0_finalOpt
          :  Hamiltonian                  GFN2-xTB          :
 * total energy  :  -133.5974436 Eh     change       -0.2625399E-08 Eh
 * total energy  :  -133.5974451 Eh     change       -0.1495702E-05 Eh
 * total energy  :  -133.5974466 Eh     change       -0.1530919E-05 Eh
 * total energy  :  -133.5974483 Eh     change       -0.1751084E-05 Eh
 * total energy  :  -133.5974491 Eh     change       -0.7665094E-06 Eh
 * total energy  :  -133.5974497 Eh     change       -0.6008214E-06 Eh
 * total energy  :  -133.5974506 Eh     change       -0.9310500E-06 Eh
 * total energy  :  -133.5974512 Eh     change       -0.5531800E-06 Eh
 * total energy  :  -133.5974516 Eh     change       -0.4201458E-06 Eh
 * total energy  :  -133.5974519 Eh     change       -0.3094925E-06 Eh
 * total energy  :  -133.5974528 Eh     change       -0.4801624E-06 Eh
 * total energy  :  -133.5974528 Eh     change        0.2678092E-08 Eh
 * total energy  :  -133.5974531 Eh     change       -0.3468884E-06 Eh
 * total energy  :  -133.5974534 Eh     change       -0.2513012E-06 Eh
 * total energy  :  -133.5974533 Eh     change        0.1737951E-07 Eh
 * total energy  :  -133.5974536 Eh     change       -0.2216306E-06 Eh
 * total energy  :  -133.5974536 Eh     change        0.1511583E-07 Eh
 * total energy  :  -133.5974537 Eh     change       -0.1787098E-06 Eh
 * total energy  :  -133.5974538 Eh     change       -0.6978954E-07 Eh
   *** GEOMETRY OPTIMIZATION CONVERGED AFTER 21 ITERATIONS ***

 final structure:
================
107
 xtb: 6.7.1 (edcfbbe)
C           -4.60759499071000       -2.20147944941095        0.11681464883109
C           -3.50323129604116       -3.24426010455911       -0.08456833650919
C           -3.38653866024133       -3.53923557986926       -1.58845169515211
C           -3.93307999409748       -4.52235997562155        0.65026515023584
C           -2.13921506480792       -2.77680698498479        0.40660278110599
C           -1.13831588725704       -3.64379254862932        0.59107245840807
C            0.18131524205164       -3.20574157686371        0.96968280398061
C            0.46236328638745       -1.91764125586929        1.15489861516391
C           -0.56330736002459       -0.80308913833722        1.10404856683301
C           -0.77787523364815       -0.51019125683531        2.67458297705486
C           -1.72792379160244        0.62966572352878        3.07652423399843
C            0.53207515421726       -0.32470856280078        3.46486204397064
C           -1.42453320023986       -1.76725433019066        3.30697796049050
C            0.14334013211161        0.23414242404437        0.00757847407707
C           -0.79597430617863        1.14786407037546       -0.97808384787822
C           -0.00304979373137        2.30113126542878       -1.77539692963224
C            0.46676569462817        3.54434735376169       -0.99774082919601
C            1.25252767348878        1.78995794803153       -2.49493846114195
C           -0.96037669021365        2.84935766210961       -2.85752091142382
C           -1.36395734561900        0.34067566327339       -2.12396497965577
C           -2.65546962287348        0.25118829913897       -2.44781559372645
C           -3.68825916900949        0.93008736239789       -1.71048704130317
C           -3.37159683926343        1.70988831286835       -0.67333226660270
C           -4.44524204425997        2.50263688751978        0.06358883266536
C           -5.41587695033128        1.52038656184211        0.73648264776531
C           -5.21648475344144        3.36514925986697       -0.94780975972051
C           -3.89642112674686        3.44211461704297        1.14292038894272
C           -1.95590153508296        1.78730627042263       -0.16621933608302
C            1.09715833072156        1.14340032048513        0.76514449399868
C            0.62488624630432        2.19140109435978        1.55058441057000
C            1.43717620005420        2.97279590686785        2.35180414667058
C            2.79452290868546        2.71646445060144        2.39605335240441
C            3.31170296820407        1.72855573916214        1.58813533981130
C            2.49069535266085        0.96315535499781        0.75121459893380
N            3.08778406927168        0.05219806106351       -0.09701410770893
C            4.50419146861594       -0.07399651275425       -0.10303069100771
C            5.10738385572143       -1.11665769111983        0.58912903768781
C            6.48501000792042       -1.24121669677651        0.58260706610463
C            7.26260079416343       -0.32790501389581       -0.10991488408735
C            6.66135458315323        0.71176136611757       -0.79994806095620
C            5.28414237848606        0.84089662365542       -0.79998146692629
C            2.33658799063764       -0.74879455484270       -0.93898732148074
C            3.01285018750333       -1.58220502242651       -1.83549187816205
C            2.33350791495464       -2.48282898103481       -2.62321206699983
C            0.96093346372419       -2.58100551179133       -2.48944291192871
C            0.29297610926994       -1.72673128872667       -1.63475538962985
C            0.93596271305905       -0.74687398653991       -0.87638351948136
C           -1.92693390134509       -1.29323434164824        0.55536069812508
H           -5.54925138103664       -2.59620030687112       -0.26078477573430
H           -4.39185788471156       -1.28163426395927       -0.41905102492110
H           -4.74329171473037       -1.97542869162739        1.17257874081742
H           -2.60354453617991       -4.27024848590722       -1.77501406067362
H           -4.32665386535484       -3.93120510910864       -1.97178274359679
H           -3.14500738942145       -2.63015171019791       -2.13503989870841
H           -4.95433004487128       -4.78206101107463        0.37876073822084
H           -3.29745295340960       -5.36455072847526        0.39433924518029
H           -3.88945486703748       -4.37333741032428        1.72699715655045
H           -1.27578898290201       -4.70456580104825        0.45156134725209
H            0.95307851345661       -3.95680755703385        1.06519548134305
H            1.46000604004938       -1.61897832496184        1.43544839204100
H           -2.67477613490689        0.59106330415345        2.54232402704658
H           -1.28061682611113        1.60872418496166        2.96586251800609
H           -1.96707203812581        0.51406714426568        4.13340682416348
H            0.29095797261578        0.02945218673295        4.46590837081086
H            1.20931793564084        0.39009019569751        3.01959701470974
H            1.05201781733916       -1.27277594572396        3.57423384976966
H           -1.40962968010635       -1.65424731084409        4.38978911792602
H           -0.88016554843413       -2.67203441506636        3.06321504264093
H           -2.45948818971478       -1.90166085901550        3.00858694942423
H            1.30477931566086        3.33710623806397       -0.34490156514311
H           -0.31941363990438        4.01753917404303       -0.41709800352117
H            0.80535038133608        4.28243003712190       -1.72378765077353
H            1.08617031190057        0.87361616086362       -3.05126324422345
H            1.58251816317091        2.54854831203372       -3.20378637284734
H            2.06250505456034        1.62513714786596       -1.79337183061621
H           -1.93391128940744        3.09062493209163       -2.44102601969211
H           -1.10259777395349        2.14145252697209       -3.66804849425662
H           -0.54512533419032        3.75778211575073       -3.28964504237499
H           -0.64972286266281       -0.09495780174701       -2.80113105647303
H           -2.95201372126793       -0.30634653900299       -3.32611430508378
H           -4.70125357006051        0.83198400267384       -2.07004569128782
H           -6.21120870883672        2.06332703667991        1.24283611827700
H           -4.89449035485915        0.91398071610538        1.47398377646998
H           -5.86701708980137        0.85435593989910        0.00655508475434
H           -5.96465487070231        3.96588366423405       -0.43477771011331
H           -4.53609279362744        4.03539760133165       -1.46939659910588
H           -5.72341235791182        2.75261960432940       -1.68730245372842
H           -3.25718487872773        4.20991815275769        0.71254928007779
H           -3.34116664181742        2.90338969236247        1.90540107184820
H           -4.72808867985614        3.94515757061853        1.63290331535736
H           -1.74038555386286        2.84165587241271       -0.01305033883955
H           -1.97471252303604        1.31600514377107        0.80975759023963
H           -0.41452693090707        2.44007055196053        1.51915903194448
H            1.00668450691009        3.76953203288146        2.93911902086391
H            3.44895250411827        3.28823223365181        3.03643600623226
H            4.37403650378852        1.53985997138207        1.59792858880878
H            4.49038940841950       -1.82435500460616        1.12304236622994
H            6.95265992557231       -2.05212885633182        1.12094927999652
H            8.33776289530117       -0.42665090876649       -0.11250597417040
H            7.26639163463189        1.42335986570366       -1.34188947914358
H            4.80542084834800        1.64793049789832       -1.33523333374589
H            4.08821789917767       -1.52236934612521       -1.90247156434096
H            2.87345493421577       -3.11587550415147       -3.31129291460978
H            0.40380469946812       -3.31715598030909       -3.04879640226794
H           -0.76475861612708       -1.87350432200590       -1.53580480869110
H           -2.10974237754274       -0.85470983997970       -0.42084842276991
H           -2.72208238979527       -0.90474012633764        1.18908231741487

          :  Hamiltonian                  GFN2-xTB          :
         :: gradient norm              0.000046363775 Eh/a0 ::
         :: HOMO-LUMO gap              2.760099804521 eV    ::
         :: SCC energy              -135.863878456972 Eh    ::
         :: -> dispersion             -0.164876454061 Eh    ::
         :: repulsion energy           2.266424648633 Eh    ::

    * Orbital Energies and Occupations

         #    Occupation            Energy/Eh            Energy/eV
      -------------------------------------------------------------
         1        2.0000           -0.6646963             -18.0873
       ...           ...                  ...                  ...
       114        2.0000           -0.4100496             -11.1580
       115        2.0000           -0.4087129             -11.1216
       116        2.0000           -0.4050226             -11.0212
       117        2.0000           -0.4010485             -10.9131
       118        2.0000           -0.3968617             -10.7992
       119        2.0000           -0.3933172             -10.7027
       120        2.0000           -0.3915229             -10.6539
       121        2.0000           -0.3877439             -10.5510
       122        2.0000           -0.3826346             -10.4120
       123        2.0000           -0.3741372             -10.1808
       124        2.0000           -0.3532056              -9.6112
       125        2.0000           -0.3396747              -9.2430
       126        2.0000           -0.3359797              -9.1425 (HOMO)
       127                         -0.2345478              -6.3824 (LUMO)
       128                         -0.2338531              -6.3635
       129                         -0.2332947              -6.3483
       130                         -0.2302217              -6.2647
       131                         -0.2139956              -5.8231
       132                         -0.2130446              -5.7972
       133                         -0.2031653              -5.5284
       134                         -0.1806920              -4.9169
       135                         -0.1312888              -3.5726
       136                         -0.1202672              -3.2726
       137                         -0.1042469              -2.8367
       ...                                ...                  ...
       251                          0.7069715              19.2377
      -------------------------------------------------------------
                  HL-Gap            0.1014319 Eh            2.7601 eV

     #   Z          covCN         q      C6AA      α(0)
     1   6 C        3.761    -0.106    22.574     6.773
     2   6 C        3.903     0.023    20.125     6.377
     3   6 C        3.763    -0.103    22.503     6.762
     4   6 C        3.761    -0.105    22.562     6.771
     5   6 C        2.955     0.002    27.981     8.676
     6   6 C        2.908    -0.051    29.265     8.870
     7   6 C        2.900    -0.043    29.062     8.839
     8   6 C        2.936    -0.030    28.758     8.795
     9   6 C        3.864     0.005    20.445     6.430
    10   6 C        3.898     0.023    20.138     6.379
    11   6 C        3.765    -0.104    22.528     6.765
    12   6 C        3.764    -0.111    22.660     6.785
    13   6 C        3.771    -0.109    22.619     6.777
    14   6 C        3.860     0.000    20.541     6.445
    15   6 C        3.871     0.010    20.366     6.417
    16   6 C        3.898     0.023    20.135     6.379
    17   6 C        3.768    -0.107    22.576     6.772
    18   6 C        3.765    -0.102    22.485     6.759
    19   6 C        3.764    -0.108    22.605     6.777
    20   6 C        2.912    -0.036    28.884     8.813
    21   6 C        2.903    -0.042    29.040     8.836
    22   6 C        2.907    -0.053    29.315     8.878
    23   6 C        2.958     0.001    28.012     8.681
    24   6 C        3.903     0.024    20.121     6.376
    25   6 C        3.762    -0.103    22.512     6.764
    26   6 C        3.762    -0.105    22.547     6.769
    27   6 C        3.761    -0.106    22.568     6.772
    28   6 C        3.810    -0.079    21.994     6.676
    29   6 C        2.965    -0.006    28.159     8.704
    30   6 C        2.933    -0.041    29.031     8.836
    31   6 C        2.918    -0.049    29.221     8.864
    32   6 C        2.918    -0.035    28.873     8.812
    33   6 C        2.927    -0.063    29.570     8.918
    34   6 C        2.934     0.058    26.705     8.475
    35   7 N        2.758    -0.075    22.691     7.075
    36   6 C        2.928     0.072    26.401     8.426
    37   6 C        2.922    -0.037    28.914     8.818
    38   6 C        2.920    -0.028    28.694     8.784
    39   6 C        2.920    -0.031    28.770     8.796
    40   6 C        2.920    -0.028    28.704     8.786
    41   6 C        2.922    -0.038    28.933     8.821
    42   6 C        2.936     0.060    26.655     8.467
    43   6 C        2.927    -0.062    29.537     8.913
    44   6 C        2.918    -0.034    28.856     8.809
    45   6 C        2.919    -0.048    29.196     8.861
    46   6 C        2.932    -0.039    28.974     8.828
    47   6 C        2.986    -0.005    28.138     8.701
    48   6 C        3.810    -0.076    21.939     6.667
    49   1 H        0.925     0.031     2.570     2.507
    50   1 H        0.925     0.042     2.426     2.435
    51   1 H        0.925     0.028     2.616     2.529
    52   1 H        0.925     0.034     2.530     2.487
    53   1 H        0.925     0.034     2.527     2.486
    54   1 H        0.925     0.033     2.539     2.492
    55   1 H        0.925     0.034     2.533     2.489
    56   1 H        0.925     0.035     2.513     2.479
    57   1 H        0.925     0.033     2.545     2.495
    58   1 H        0.926     0.019     2.749     2.593
    59   1 H        0.926     0.012     2.850     2.640
    60   1 H        0.926     0.024     2.667     2.554
    61   1 H        0.925     0.027     2.635     2.538
    62   1 H        0.925     0.040     2.443     2.444
    63   1 H        0.925     0.033     2.540     2.492
    64   1 H        0.925     0.030     2.589     2.516
    65   1 H        0.926     0.040     2.452     2.449
    66   1 H        0.925     0.032     2.555     2.499
    67   1 H        0.925     0.030     2.583     2.513
    68   1 H        0.925     0.039     2.467     2.456
    69   1 H        0.925     0.032     2.553     2.499
    70   1 H        0.925     0.039     2.466     2.456
    71   1 H        0.925     0.029     2.595     2.519
    72   1 H        0.925     0.033     2.542     2.493
    73   1 H        0.925     0.031     2.567     2.506
    74   1 H        0.925     0.030     2.580     2.512
    75   1 H        0.925     0.032     2.553     2.499
    76   1 H        0.925     0.038     2.475     2.460
    77   1 H        0.925     0.034     2.533     2.489
    78   1 H        0.925     0.030     2.583     2.513
    79   1 H        0.926     0.036     2.508     2.476
    80   1 H        0.925     0.016     2.801     2.617
    81   1 H        0.926     0.017     2.773     2.604
    82   1 H        0.925     0.035     2.515     2.480
    83   1 H        0.925     0.030     2.591     2.517
    84   1 H        0.925     0.038     2.480     2.463
    85   1 H        0.925     0.035     2.516     2.481
    86   1 H        0.925     0.032     2.565     2.504
    87   1 H        0.925     0.036     2.497     2.471
    88   1 H        0.925     0.031     2.577     2.510
    89   1 H        0.925     0.036     2.500     2.472
    90   1 H        0.925     0.034     2.532     2.488
    91   1 H        0.925     0.053     2.281     2.362
    92   1 H        0.925     0.073     2.047     2.238
    93   1 H        0.927     0.049     2.334     2.389
    94   1 H        0.926     0.020     2.727     2.582
    95   1 H        0.926     0.022     2.705     2.572
    96   1 H        0.926     0.020     2.738     2.588
    97   1 H        0.926     0.041     2.442     2.444
    98   1 H        0.926     0.037     2.488     2.467
    99   1 H        0.926     0.036     2.506     2.476
   100   1 H        0.926     0.037     2.493     2.469
   101   1 H        0.926     0.040     2.448     2.447
   102   1 H        0.926     0.021     2.722     2.580
   103   1 H        0.926     0.023     2.690     2.565
   104   1 H        0.926     0.022     2.705     2.572
   105   1 H        0.926     0.051     2.307     2.375
   106   1 H        0.925     0.067     2.124     2.279
   107   1 H        0.925     0.049     2.331     2.388

molecular dipole:
                 x           y           z       tot (Debye)
 q only:        0.010       0.440       0.134
   full:        0.164       0.408       0.099       1.145

 projected vibrational frequencies (cm⁻¹)
eigval :       -0.00    -0.00    -0.00     0.00     0.00     0.00
eigval :       16.55    25.13    31.27    33.36    36.99    41.66
eigval :       52.60    59.68    64.37    70.64    75.90    84.15
eigval :       89.40   101.51   112.42   119.17   128.66   140.10
eigval :      143.12   154.38   168.11   176.07   182.06   186.62
eigval :      194.73   199.77   206.17   220.77   222.74   229.81
eigval :      231.61   234.84   236.71   238.80   245.92   252.15
eigval :      257.23   273.97   274.90   282.10   286.10   299.03
eigval :      306.89   308.63   317.06   326.01   329.20   337.55
eigval :      343.29   350.23   356.28   362.49   367.54   371.11
eigval :      374.17   375.73   377.17   382.64   389.98   397.05
eigval :      399.63   405.93   414.58   430.18   432.75   445.39
eigval :      452.87   455.99   460.51   473.23   482.41   486.81
eigval :      490.81   497.63   502.21   513.09   515.80   521.08
eigval :      529.49   532.27   538.82   557.39   565.03   590.77
eigval :      593.98   595.59   604.19   614.54   619.55   643.33
eigval :      653.62   674.23   682.65   705.46   730.36   735.45
eigval :      739.13   753.94   763.94   771.76   779.88   816.16
eigval :      820.80   849.52   859.17   862.71   863.99   866.23
eigval :      872.98   876.06   876.29   882.83   884.49   891.01
eigval :      896.98   898.76   909.09   910.38   913.65   914.13
eigval :      916.57   923.43   928.86   930.72   932.81   936.08
eigval :      950.59   953.39   956.57   957.24   957.93   959.53
eigval :      959.93   960.29   962.65   963.15   963.89   969.80
eigval :      974.02   977.57   989.96   996.06  1005.21  1010.38
eigval :     1015.88  1030.56  1031.19  1034.85  1036.48  1039.61
eigval :     1041.06  1046.67  1052.20  1079.10  1083.11  1088.93
eigval :     1089.97  1093.46  1112.88  1114.80  1121.28  1121.79
eigval :     1128.88  1149.57  1152.99  1180.83  1182.51  1184.93
eigval :     1187.60  1189.69  1193.64  1205.73  1213.15  1216.73
eigval :     1220.32  1220.86  1224.09  1225.69  1225.77  1229.06
eigval :     1230.28  1232.12  1234.17  1241.35  1245.15  1247.91
eigval :     1260.78  1272.09  1274.22  1274.98  1277.15  1299.75
eigval :     1301.95  1309.36  1317.26  1319.54  1328.89  1343.65
eigval :     1344.78  1351.14  1369.12  1375.75  1402.58  1405.35
eigval :     1407.32  1408.58  1410.40  1415.05  1418.68  1419.35
eigval :     1429.36  1429.87  1431.46  1432.17  1436.52  1438.53
eigval :     1445.07  1466.60  1469.62  1477.06  1484.88  1491.58
eigval :     1493.09  1493.89  1494.95  1495.80  1496.47  1497.64
eigval :     1499.66  1500.26  1502.91  1505.38  1506.23  1506.69
eigval :     1509.96  1513.23  1517.06  1518.58  1519.98  1520.84
eigval :     1522.22  1524.15  1527.42  1532.70  1534.68  1538.86
eigval :     1567.41  1580.22  1582.64  1587.95  1594.90  1599.09
eigval :     1636.55  1638.78  1692.77  1694.58  2997.65  3001.75
eigval :     3005.28  3010.46  3013.41  3015.72  3017.09  3019.04
eigval :     3019.79  3020.53  3021.45  3023.08  3023.72  3024.90
eigval :     3025.85  3027.67  3028.35  3030.71  3031.27  3033.36
eigval :     3034.53  3039.56  3041.66  3044.48  3049.98  3051.58
eigval :     3052.23  3052.67  3053.37  3054.11  3054.80  3055.87
eigval :     3059.78  3060.03  3064.33  3067.99  3077.67  3078.64
eigval :     3079.76  3080.51  3081.81  3082.47  3083.89  3087.67
eigval :     3088.59  3089.18  3090.29  3091.76  3092.26  3095.61
eigval :     3098.51  3099.96  3102.35  3102.60  3104.48  3116.19
eigval :     3135.22  3187.19  3222.73

   temp. (K)  partition function   enthalpy   heat capacity  entropy
                                   cal/mol     cal/K/mol   cal/K/mol   J/K/mol
 298.15  VIB  0.417E+19            27978.131    182.279    168.041
         ROT  0.467E+08              888.752      2.981     38.076
         INT  0.195E+27            28866.884    185.260    206.118
         TR   0.156E+29             1481.254      4.968     45.221
         TOT                       30348.1375   190.2281   251.3389  1051.6020

       T/K    H(0)-H(T)+PV         H(T)/Eh          T*S/Eh         G(T)/Eh
   ------------------------------------------------------------------------
    298.15    0.483628E-01    0.975793E+00    0.119419E+00    0.856373E+00
   ------------------------------------------------------------------------

         :::::::::::::::::::::::::::::::::::::::::::::::::::::
         ::                  THERMODYNAMIC                  ::
         :::::::::::::::::::::::::::::::::::::::::::::::::::::
         :: total free energy        -132.741080488649 Eh   ::
         ::.................................................::
         :: total energy             -133.597453808334 Eh   ::
         :: zero point energy           0.927429705865 Eh   ::
         :: G(RRHO) w/o ZPVE           -0.071056386179 Eh   ::
         :: G(RRHO) contrib.            0.856373319685 Eh   ::
         :::::::::::::::::::::::::::::::::::::::::::::::::::::

           -------------------------------------------------
          | TOTAL ENERGY             -133.597453808334 Eh   |
          | TOTAL ENTHALPY           -132.621661266865 Eh   |
          | TOTAL FREE ENERGY        -132.741080488649 Eh   |
          | GRADIENT NORM               0.000046313790 Eh/α |
          | HOMO-LUMO GAP               2.760102351530 eV   |
           -------------------------------------------------

 * finished run on 2025/09/10 at 00:11:39.272
