   * xtb version 6.7.1 (edcfbbe) compiled by 'albert@albert-system' on 2024-07-22

   ID    Z sym.   atoms
    1    6 C      1-34, 36-48
    2    7 N      35
    3    1 H      49-107

          program call               : xtb data2507/gas/TBAc/TBAc_gas_S0_finalOpt.xtbopt.xyz --gfn 2 --spinpol --tblite --uhf 2 --ohess vtight --parallel 40 --molden --ceasefiles --namespace data2507/gas/TBAc/TBAc_gas_T1_preOpt
 * total energy  :  -133.4958720 Eh     change       -0.3372790E-07 Eh
 * total energy  :  -133.5111208 Eh     change       -0.1524880E-01 Eh
 * total energy  :  -133.5213917 Eh     change       -0.1027090E-01 Eh
 * total energy  :  -133.5324900 Eh     change       -0.1109829E-01 Eh
 * total energy  :  -133.5396294 Eh     change       -0.7139391E-02 Eh
 * total energy  :  -133.5458274 Eh     change       -0.6198014E-02 Eh
 * total energy  :  -133.5489721 Eh     change       -0.3144641E-02 Eh
 * total energy  :  -133.5496092 Eh     change       -0.6371127E-03 Eh
 * total energy  :  -133.5506117 Eh     change       -0.1002548E-02 Eh
 * total energy  :  -133.5509493 Eh     change       -0.3376115E-03 Eh
 * total energy  :  -133.5534942 Eh     change       -0.6147488E-06 Eh
 * total energy  :  -133.5534949 Eh     change       -0.6471166E-06 Eh
 * total energy  :  -133.5534954 Eh     change       -0.4871369E-06 Eh
 * total energy  :  -133.5534953 Eh     change        0.2793766E-07 Eh
 * total energy  :  -133.5534956 Eh     change       -0.2756264E-06 Eh
 * total energy  :  -133.5534958 Eh     change       -0.1579425E-06 Eh
 * total energy  :  -133.5534958 Eh     change        0.7470959E-08 Eh
 * total energy  :  -133.5534959 Eh     change       -0.1421878E-06 Eh
 * total energy  :  -133.5534960 Eh     change       -0.9315639E-07 Eh
   *** GEOMETRY OPTIMIZATION CONVERGED AFTER 58 ITERATIONS ***

 final structure:
================
107
 xtb: 6.7.1 (edcfbbe)
C           -4.60940759445208       -2.22805294976022        0.27060284248087
C           -3.49322726013249       -3.27018347817617        0.15019437848103
C           -3.48602725770613       -3.78927978503100       -1.29914255239662
C           -3.82897628518603       -4.42945303578355        1.10209737216471
C           -2.11609707363273       -2.71378808804939        0.45682278574696
C           -1.02485000664065       -3.56165921013038        0.50524018136814
C            0.26273749098753       -3.11467291739819        0.66761429566690
C            0.57090023567740       -1.67384139749433        0.75756098562394
C           -0.58524120778115       -0.70536583694147        1.07316252703298
C           -0.73737399382474       -0.51638891747874        2.63991442834683
C           -1.70235033526148        0.59366330283754        3.08379249442875
C            0.57150271682621       -0.30619491619780        3.42421205569710
C           -1.29981522353081       -1.83340704359872        3.21666620305393
C            0.09595850915827        0.32497358493993        0.00026104874649
C           -0.78747875553656        1.20299898277781       -1.01399937664564
C            0.02279573372936        2.33232971471682       -1.81663665201579
C            0.41269370817816        3.62199562417494       -1.07308033204555
C            1.32870312388114        1.79312819587326       -2.41132462221021
C           -0.86995396789276        2.80816346364968       -2.98305008307961
C           -1.31750764020268        0.35278219087021       -2.14341546055110
C           -2.60227121162827        0.22636672009174       -2.48329067851813
C           -3.65658992691872        0.90813148486232       -1.77959268136509
C           -3.37462464904183        1.71597629539530       -0.75339930814622
C           -4.47696865712992        2.50020071083592       -0.05077381180453
C           -5.47031795033321        1.51284502803614        0.57984206070734
C           -5.20895833223398        3.36789738884774       -1.08639880522404
C           -3.97096335702983        3.42991020198030        1.05755311015715
C           -1.96920598512368        1.84598033425114       -0.23158742916086
C            1.07445493248420        1.18829910817999        0.77104476879950
C            0.62060162880635        2.27084837933599        1.52114493519460
C            1.43229659443171        3.00007629703858        2.37209656443389
C            2.75521037499485        2.62699943909511        2.53207330701207
C            3.25272695607616        1.58733108272849        1.77969662715384
C            2.45042780814071        0.89793966091135        0.85998167667553
N            3.04448096276845       -0.04843205287019        0.04684246180518
C            4.45446750952554       -0.19408523745252        0.03211019933127
C            5.01359540065838       -1.41194000503152        0.40259382688563
C            6.38579508268315       -1.57781677689984        0.37861064254640
C            7.20708987603585       -0.53388944350105       -0.01502686753338
C            6.65109533129436        0.67813785707526       -0.39064197242158
C            5.27964445164727        0.85109020467476       -0.37137563081583
C            2.31292122870301       -0.75757036560810       -0.88560719133244
C            2.94234166357202       -1.28498524490204       -1.98910139104651
C            2.25977592844946       -2.04284060773248       -2.93325699831391
C            0.89493210666366       -2.28347447559135       -2.73473255310971
C            0.22297937298591       -1.74970822201932       -1.68278643971090
C            0.86220349857783       -0.93759336507898       -0.60498271914540
C           -1.93461760901465       -1.22699403009841        0.53348530149408
H           -5.55931182471114       -2.68425513054671       -0.00196503556162
H           -4.43791122168412       -1.38468635604624       -0.39272662766874
H           -4.70016036369589       -1.86436912829848        1.29215069359937
H           -2.70921322584254       -4.53609391830753       -1.44047478670807
H           -4.44641305781362       -4.23784544868147       -1.54541544084394
H           -3.30132854118046       -2.96871910080569       -1.98963384356083
H           -4.83851291658835       -4.78759731500177        0.91075257447100
H           -3.14656983377222       -5.26396015593467        0.97274283648022
H           -3.77110898329633       -4.09934298559821        2.13721906880207
H           -1.17935282969392       -4.62770203493482        0.42008480539099
H            1.08757254881553       -3.81042240209425        0.69225382194102
H            1.42284174659860       -1.50890956304980        1.41590365713893
H           -2.66032153052851        0.54557140362271        2.57103973470115
H           -1.26912407074831        1.57857307166048        2.95294274258699
H           -1.90920994789469        0.47273597954801        4.14630185171215
H            0.31856950840732       -0.13374833760592        4.46929417346213
H            1.14905370913641        0.54189020177898        3.08877289393474
H            1.19886603978907       -1.19320363510527        3.39485892303629
H           -1.30945220020948       -1.76705037092082        4.30332760345121
H           -0.67664522717579       -2.67732403759901        2.93801028654886
H           -2.31433893014833       -2.03643019458956        2.89109427433235
H            1.14348041354987        3.45384382594740       -0.29284427767697
H           -0.43972202545182        4.14706082595823       -0.65057369300440
H            0.86677549490685        4.29691654780933       -1.79729071228194
H            1.20436506938088        0.84107067045564       -2.91548934288308
H            1.70949163696347        2.50577691254689       -3.14144031170168
H            2.08373149539363        1.67757777902881       -1.64118807798926
H           -1.87401896431248        3.04098827813661       -2.63894427626413
H           -0.94234564387593        2.06366551692133       -3.76962483801902
H           -0.44725877524985        3.70862682930291       -3.42459267950361
H           -0.57435395322650       -0.09360887451639       -2.77932823875105
H           -2.87613426616496       -0.37094067507415       -3.34218351113219
H           -4.66245751141992        0.78192663413203       -2.15068295312947
H           -6.28625403123348        2.05188139324065        1.05669957078422
H           -4.97489639684514        0.90644407415851        1.33495037436218
H           -5.89162869300292        0.84744658532748       -0.16800187819337
H           -5.98450403788065        3.95769605290875       -0.60213720803735
H           -4.51090382468536        4.04844349634756       -1.56997180538600
H           -5.67541903224364        2.75793331827189       -1.85427698780024
H           -3.32369912199721        4.20834005834542        0.65997091785488
H           -3.43599060244737        2.88406251467956        1.82986578170793
H           -4.82195849794191        3.91991442801783        1.52702013944692
H           -1.77815093779547        2.90998134349314       -0.11555334985816
H           -1.98541358792044        1.41382258078734        0.76503177617268
H           -0.40208866552170        2.57859327245112        1.43196809601882
H            1.02405641531105        3.83478870445772        2.92104234520662
H            3.39684501850891        3.14378069730373        3.22944649251542
H            4.28397743746958        1.29431536638904        1.90016284018586
H            4.36399347461129       -2.22148603791988        0.70088487883997
H            6.81592178500101       -2.52437646933668        0.67017201478778
H            8.27843938173086       -0.66549528059502       -0.03261729648093
H            7.28790796146146        1.49128055632048       -0.70607297063075
H            4.83958162111495        1.79194169504414       -0.66846697401616
H            3.99694684122271       -1.09877330951472       -2.13155735647224
H            2.77747595136908       -2.44548459814462       -3.78824853422648
H            0.35900146309027       -2.90511676694833       -3.43851358813934
H           -0.80237501729713       -2.03273925483074       -1.54285983437459
H           -2.09240610634341       -0.83529436888940       -0.46911206418719
H           -2.74219977481496       -0.80795342178942        1.13066494779100

 projected vibrational frequencies (cm⁻¹)
eigval :       -0.00    -0.00    -0.00    -0.00     0.00     0.00
eigval :       20.12    26.39    32.03    37.13    38.61    43.63
eigval :       51.02    57.93    64.44    73.03    79.10    91.23
eigval :      100.25   104.26   108.24   113.68   129.91   146.84
eigval :      158.98   165.37   168.73   176.82   177.04   195.11
eigval :      200.81   204.09   211.43   222.31   225.02   225.73
eigval :      231.95   235.59   237.64   239.65   244.85   249.34
eigval :      260.01   266.42   270.06   283.74   290.20   298.12
eigval :      303.18   309.01   316.57   321.44   328.37   338.58
eigval :      345.14   349.88   352.88   353.95   358.09   362.69
eigval :      369.51   373.48   376.54   377.16   394.34   395.87
eigval :      402.39   411.62   422.17   427.09   437.49   443.22
eigval :      451.92   454.22   461.80   469.75   478.39   484.55
eigval :      486.71   492.84   505.78   506.91   515.10   523.50
eigval :      529.49   537.46   544.56   553.79   580.66   589.91
eigval :      594.73   599.16   610.20   615.19   632.89   648.53
eigval :      670.62   671.91   701.42   705.48   727.70   728.33
eigval :      738.37   749.32   757.46   771.44   781.86   813.01
eigval :      835.03   844.68   859.25   863.88   867.75   868.51
eigval :      873.18   876.27   878.46   882.41   883.88   888.37
eigval :      898.86   900.15   901.15   906.91   913.27   916.81
eigval :      917.13   922.02   928.37   931.29   937.87   940.13
eigval :      947.19   952.13   954.56   956.35   957.12   958.67
eigval :      959.34   959.67   960.62   961.13   962.45   963.42
eigval :      965.91   970.30   991.82  1006.23  1015.98  1021.11
eigval :     1028.31  1030.13  1032.19  1034.87  1037.83  1039.93
eigval :     1047.49  1053.91  1058.07  1072.16  1079.60  1085.60
eigval :     1088.91  1092.07  1095.38  1104.51  1115.36  1116.57
eigval :     1134.02  1148.16  1156.29  1166.21  1180.38  1182.73
eigval :     1185.42  1198.33  1198.65  1201.02  1208.31  1210.67
eigval :     1213.14  1219.50  1220.00  1222.56  1226.47  1226.70
eigval :     1229.30  1229.62  1237.68  1242.06  1243.92  1247.44
eigval :     1254.21  1264.70  1274.63  1275.77  1277.05  1290.50
eigval :     1298.31  1306.10  1313.46  1319.32  1320.10  1330.55
eigval :     1341.81  1344.27  1356.46  1369.00  1383.76  1391.43
eigval :     1400.71  1403.21  1405.70  1406.19  1408.25  1412.89
eigval :     1414.34  1417.04  1425.33  1427.79  1428.15  1433.10
eigval :     1437.15  1438.57  1440.14  1461.08  1462.25  1469.06
eigval :     1477.88  1484.13  1489.60  1490.80  1492.55  1493.17
eigval :     1493.53  1494.73  1496.41  1496.91  1498.55  1500.33
eigval :     1502.36  1502.97  1504.32  1505.33  1507.07  1514.78
eigval :     1517.11  1517.69  1519.15  1519.51  1521.51  1522.34
eigval :     1528.07  1529.27  1531.59  1558.85  1568.60  1579.24
eigval :     1584.59  1592.61  1630.60  1690.04  2984.86  2997.32
eigval :     3007.19  3007.70  3012.34  3014.07  3015.38  3016.30
eigval :     3018.32  3019.87  3020.14  3020.76  3022.26  3023.13
eigval :     3025.41  3027.13  3027.44  3027.70  3027.94  3030.45
eigval :     3032.69  3034.46  3037.13  3037.76  3039.62  3044.16
eigval :     3045.79  3047.46  3047.79  3049.89  3052.54  3053.54
eigval :     3056.54  3058.35  3059.15  3059.49  3064.51  3066.28
eigval :     3068.18  3070.41  3076.88  3077.97  3078.66  3080.79
eigval :     3081.48  3081.74  3082.42  3083.68  3087.99  3092.35
eigval :     3092.41  3099.35  3103.58  3104.07  3105.96  3133.07
eigval :     3154.54  3173.02  3194.75

   temp. (K)  partition function   enthalpy   heat capacity  entropy
                                   cal/mol     cal/K/mol   cal/K/mol   J/K/mol
 298.15  VIB  0.201E+19            27914.130    182.675    167.088
         ROT  0.463E+08              888.752      2.981     38.058
         INT  0.933E+26            28802.882    185.656    205.146
         TR   0.156E+29             1481.254      4.968     45.221
         TOT                       30284.1363   190.6245   250.3670  1047.5355

       T/K    H(0)-H(T)+PV         H(T)/Eh          T*S/Eh         G(T)/Eh
   ------------------------------------------------------------------------
    298.15    0.482608E-01    0.973125E+00    0.118957E+00    0.854167E+00
   ------------------------------------------------------------------------

         :::::::::::::::::::::::::::::::::::::::::::::::::::::
         ::                  THERMODYNAMIC                  ::
         :::::::::::::::::::::::::::::::::::::::::::::::::::::
         :: total free energy        -132.699328831891 Eh   ::
         ::.................................................::
         :: total energy             -133.553496023271 Eh   ::
         :: zero point energy           0.924863786648 Eh   ::
         :: G(RRHO) w/o ZPVE           -0.070696595268 Eh   ::
         :: G(RRHO) contrib.            0.854167191380 Eh   ::
         :::::::::::::::::::::::::::::::::::::::::::::::::::::

           -------------------------------------------------
          | TOTAL ENERGY             -133.553496023271 Eh   |
          | TOTAL ENTHALPY           -132.580371393521 Eh   |
          | TOTAL FREE ENERGY        -132.699328831891 Eh   |
          | GRADIENT NORM               0.000072490206 Eh/α |
           -------------------------------------------------

 * finished run on 2025/09/10 at 00:11:54.376
