   * xtb version 6.7.1 (edcfbbe) compiled by 'albert@albert-system' on 2024-07-22

   ID    Z sym.   atoms
    1    6 C      1-34, 36-48
    2    7 N      35
    3    1 H      49-107

          program call               : xtb data2507/gas/TBAc/TBAc.xyz --gfn 2 --ohess vtight --parallel 40 --molden --ceasefiles --namespace data2507/gas/TBAc/TBAc_gas_S0_preOpt
          :  Hamiltonian                  GFN2-xTB          :
 * total energy  :  -133.5053725 Eh     change       -0.5051533E-08 Eh
 * total energy  :  -133.5347253 Eh     change       -0.2935276E-01 Eh
 * total energy  :  -133.5513283 Eh     change       -0.1660306E-01 Eh
 * total energy  :  -133.5597011 Eh     change       -0.8372770E-02 Eh
 * total energy  :  -133.5651532 Eh     change       -0.5452107E-02 Eh
 * total energy  :  -133.5681615 Eh     change       -0.3008243E-02 Eh
 * total energy  :  -133.5694064 Eh     change       -0.1244915E-02 Eh
 * total energy  :  -133.5701144 Eh     change       -0.7080661E-03 Eh
 * total energy  :  -133.5706435 Eh     change       -0.5290811E-03 Eh
 * total energy  :  -133.5709512 Eh     change       -0.3076276E-03 Eh
 * total energy  :  -133.5747361 Eh     change       -0.1594329E-06 Eh
 * total energy  :  -133.5747364 Eh     change       -0.3091176E-06 Eh
 * total energy  :  -133.5747367 Eh     change       -0.2160472E-06 Eh
 * total energy  :  -133.5747369 Eh     change       -0.1850222E-06 Eh
 * total energy  :  -133.5747370 Eh     change       -0.1346114E-06 Eh
 * total energy  :  -133.5747372 Eh     change       -0.1815846E-06 Eh
 * total energy  :  -133.5747373 Eh     change       -0.1345753E-06 Eh
 * total energy  :  -133.5747374 Eh     change       -0.1049831E-06 Eh
 * total energy  :  -133.5747375 Eh     change       -0.7898302E-07 Eh
   *** GEOMETRY OPTIMIZATION CONVERGED AFTER 130 ITERATIONS ***

 final structure:
================
107
 xtb: 6.7.1 (edcfbbe)
C           -4.73741036783295       -1.15504881610014        1.74378797390808
C           -4.97262832298841        0.25419996001163        1.18518859970900
C           -5.59085113839506        1.09292543127229        2.31103234858335
C           -5.99810757477569        0.16605742536039        0.04277360008212
C           -3.68948443342686        0.88052408889727        0.65174688616777
C           -3.37277357565615        2.15896067992076        0.87691633445503
C           -2.18766344797762        2.75918081144637        0.31662307310860
C           -1.36849051947648        2.07786983249680       -0.47971306830982
C           -1.59781144589993        0.64830154563065       -0.92514554180331
C           -2.07979124077310        0.82381700205352       -2.44631924677546
C           -2.28017779782048       -0.48259121236130       -3.23517001357102
C           -1.24088913394277        1.80457784621733       -3.28868587681063
C           -3.47255255925124        1.50390781286832       -2.42876206794822
C           -0.17996569659576       -0.01582623441149       -0.41949415677496
C            0.18268757654792       -1.63656228658349       -0.23168594016047
C           -0.65128740970909       -2.75509779928546        0.57320116156873
C           -1.03185040328554       -2.44093127799268        2.02938497325106
C           -1.91107835707627       -3.24522108795390       -0.17161482941200
C            0.22460260509901       -4.02707132471745        0.68444079228412
C            0.25400898986029       -2.28008533659073       -1.58842724295859
C            1.32858192823475       -2.89978843467817       -2.07449141529591
C            2.58250189818147       -2.94634438597405       -1.36457055739130
C            2.72034253467922       -2.36900352504320       -0.16936005161271
C            4.01760904229622       -2.39004396474796        0.62495728176347
C            3.84738751760783       -3.26548487031279        1.87632831877598
C            4.40437148482616       -0.96621661632363        1.05156004939648
C            5.18059739148018       -2.96128613009729       -0.19398885312711
C            1.58991208604018       -1.57977082627435        0.44042128701787
C            0.94042459206482        0.43984902598097       -1.37529902977997
C            1.01538407469179       -0.04514398949094       -2.67721688805003
C            2.05003584633966        0.23453648777183       -3.55190537935720
C            3.07665305356131        1.06408670576867       -3.14923038708593
C            3.02044553897385        1.61080863767638       -1.88835844367191
C            1.97487983495340        1.31399708019150       -1.00655183785566
N            2.02109904136745        1.89225949924623        0.24756708823543
C            2.88173756118057        3.00874590849366        0.45432554957201
C            2.46109555494238        4.27021262205366        0.05302391245125
C            3.28508120633271        5.36537417868123        0.24067680433707
C            4.52854848520338        5.20647442261497        0.82879937934835
C            4.94797224986075        3.94916378787581        1.23076915360934
C            4.12917604767824        2.84942711783510        1.04563485294545
C            1.09208264445448        1.56416343522811        1.21767104979686
C            1.25455333184450        2.16034154454523        2.47207620942515
C            0.37046654168581        1.93579767802822        3.50101750641185
C           -0.70873259850905        1.11227305034995        3.25942713588759
C           -0.85690553351688        0.51555976475454        2.02138079844320
C            0.02430475612511        0.68200339404021        0.95628399071360
C           -2.79667376990262       -0.00594080459963       -0.18673086616567
H           -4.36866224047407       -1.83717718737743        0.98355558828855
H           -5.67483965556767       -1.55878748183547        2.12191214701449
H           -4.03186808249081       -1.12209271250379        2.57169039935255
H           -4.86437614480317        1.27512061686786        3.09948887806921
H           -5.95548902093247        2.04648776513588        1.93886838828602
H           -6.43668812634453        0.56038214805634        2.74148161706446
H           -6.14163657660604        1.14257311844253       -0.41434347415677
H           -5.67683525262146       -0.53496955098316       -0.72418648215826
H           -6.95549697367949       -0.17798401633860        0.42889787451404
H           -3.99316176285731        2.80273663033013        1.47781893947301
H           -1.97488554903441        3.78637289228150        0.57846344054301
H           -0.49244762465113        2.55331729301246       -0.89296258136291
H           -3.07843584848948       -0.34084484522529       -3.96274298384136
H           -2.57049320460496       -1.31088915957119       -2.59495258200770
H           -1.40038686962270       -0.77369092019409       -3.79851359869931
H           -1.43809727903219        2.82823854067252       -2.97904213250587
H           -1.54374908346708        1.71243965988183       -4.33068556500664
H           -0.17494967359170        1.63465030981810       -3.23756558554854
H           -4.27537383335270        0.83399135897278       -2.14301164981519
H           -3.69404783661855        1.85499612976475       -3.43541433204737
H           -3.48961650402391        2.36262191870284       -1.76665259894438
H           -2.01302538170598       -1.98862122523295        2.11287337007752
H           -0.30686352577802       -1.79755157792995        2.51828620639265
H           -1.07690620885482       -3.37334234134595        2.59075149967449
H           -1.64364404531993       -3.97158430528584       -0.93568172333015
H           -2.57031825146659       -3.74646585356950        0.53583489840273
H           -2.46950526064975       -2.45307001618569       -0.65145175202294
H            0.64342742010711       -4.32422613874480       -0.27004515426274
H           -0.40490697553224       -4.84276242177499        1.03797186284112
H            1.03546034191968       -3.91053507790854        1.39433057576808
H           -0.66885556608934       -2.30643870252111       -2.14105835612875
H            1.28474845254983       -3.38990229635692       -3.03788418404815
H            3.38516020859260       -3.48275424498507       -1.84242331508252
H            4.78994291292101       -3.32862949213632        2.41647479302105
H            3.54512835927214       -4.27211227394951        1.59490284054959
H            3.10193210207233       -2.85332407007656        2.55215991894062
H            5.39291643215747       -0.97335365130949        1.50780111000826
H            4.43056163497365       -0.31364044073962        0.18044531203257
H            3.70263643932120       -0.56430776463050        1.77861188631272
H            6.09855458342498       -2.91055615060462        0.38851020487488
H            5.32441180186463       -2.38983213106148       -1.10783487054497
H            5.00599351808509       -4.00329462522780       -0.44945868987601
H            1.48935608521957       -1.84984787183623        1.49194082626152
H            1.95102410960621       -0.55724079837499        0.44884712760508
H            0.22448581615923       -0.65575854119732       -3.05228164929653
H            2.03942651993933       -0.19284239533738       -4.54291578624059
H            3.90297316844193        1.29330001107236       -3.80507741795631
H            3.80546858061668        2.27545970509226       -1.56175659643283
H            1.48865183760996        4.38349033831087       -0.40336910955049
H            2.95494329478284        6.34479347863490       -0.07212312382916
H            5.17075875264492        6.06207878878274        0.97469872085703
H            5.91712111259259        3.82299026892360        1.69029952596827
H            4.44928516913552        1.86710772793342        1.35800730570722
H            2.09208200621370        2.82142371528044        2.63088237978954
H            0.51819488552899        2.40720290337215        4.46090478847719
H           -1.44636822350782        0.92782662832328        4.02601185907745
H           -1.74112069487084       -0.06535318292718        1.90867390862364
H           -2.41825524217798       -0.79964921645925        0.44395217910138
H           -3.43475611631653       -0.50410411960885       -0.91621149549473

          :  Hamiltonian                  GFN2-xTB          :
         :: gradient norm              0.000072153312 Eh/a0 ::
         :: HOMO-LUMO gap              2.771953143131 eV    ::
         :: SCC energy              -135.840563779640 Eh    ::
         :: -> dispersion             -0.163776302044 Eh    ::
         :: repulsion energy           2.265826289487 Eh    ::

    * Orbital Energies and Occupations

         #    Occupation            Energy/Eh            Energy/eV
      -------------------------------------------------------------
         1        2.0000           -0.6631960             -18.0465
       ...           ...                  ...                  ...
       114        2.0000           -0.4055106             -11.0345
       115        2.0000           -0.4039802             -10.9929
       116        2.0000           -0.4014141             -10.9230
       117        2.0000           -0.3981250             -10.8335
       118        2.0000           -0.3944162             -10.7326
       119        2.0000           -0.3930815             -10.6963
       120        2.0000           -0.3923793             -10.6772
       121        2.0000           -0.3877080             -10.5501
       122        2.0000           -0.3833444             -10.4313
       123        2.0000           -0.3761321             -10.2351
       124        2.0000           -0.3488321              -9.4922
       125        2.0000           -0.3432756              -9.3410
       126        2.0000           -0.3357402              -9.1360 (HOMO)
       127                         -0.2338729              -6.3640 (LUMO)
       128                         -0.2322964              -6.3211
       129                         -0.2319086              -6.3106
       130                         -0.2260303              -6.1506
       131                         -0.2136775              -5.8145
       132                         -0.2064911              -5.6189
       133                         -0.2032693              -5.5312
       134                         -0.1804800              -4.9111
       135                         -0.1249141              -3.3991
       136                         -0.1206838              -3.2840
       137                         -0.1028645              -2.7991
       ...                                ...                  ...
       251                          0.7110247              19.3480
      -------------------------------------------------------------
                  HL-Gap            0.1018673 Eh            2.7720 eV

     #   Z          covCN         q      C6AA      α(0)
     1   6 C        3.761    -0.103    22.518     6.765
     2   6 C        3.902     0.024    20.117     6.375
     3   6 C        3.762    -0.107    22.599     6.776
     4   6 C        3.762    -0.101    22.474     6.758
     5   6 C        2.953     0.001    27.998     8.679
     6   6 C        2.907    -0.051    29.275     8.872
     7   6 C        2.900    -0.042    29.054     8.838
     8   6 C        2.931    -0.029    28.719     8.789
     9   6 C        3.874     0.009    20.382     6.419
    10   6 C        3.896     0.024    20.116     6.376
    11   6 C        3.760    -0.102    22.497     6.762
    12   6 C        3.766    -0.113    22.709     6.792
    13   6 C        3.772    -0.111    22.651     6.782
    14   6 C        3.861    -0.001    20.554     6.447
    15   6 C        3.861     0.006    20.442     6.430
    16   6 C        3.903     0.025    20.104     6.373
    17   6 C        3.764    -0.107    22.593     6.775
    18   6 C        3.763    -0.108    22.610     6.778
    19   6 C        3.771    -0.112    22.670     6.785
    20   6 C        2.917    -0.035    28.866     8.810
    21   6 C        2.902    -0.041    29.027     8.834
    22   6 C        2.906    -0.054    29.348     8.883
    23   6 C        2.955     0.003    27.964     8.674
    24   6 C        3.902     0.023    20.128     6.377
    25   6 C        3.761    -0.101    22.473     6.758
    26   6 C        3.761    -0.100    22.458     6.756
    27   6 C        3.762    -0.107    22.597     6.776
    28   6 C        3.813    -0.071    21.842     6.652
    29   6 C        2.964    -0.009    28.244     8.717
    30   6 C        2.938    -0.040    28.995     8.831
    31   6 C        2.920    -0.048    29.199     8.861
    32   6 C        2.918    -0.034    28.838     8.806
    33   6 C        2.930    -0.063    29.577     8.919
    34   6 C        2.940     0.058    26.701     8.475
    35   7 N        2.760    -0.081    22.822     7.095
    36   6 C        2.928     0.073    26.378     8.423
    37   6 C        2.923    -0.036    28.904     8.816
    38   6 C        2.920    -0.028    28.689     8.783
    39   6 C        2.920    -0.031    28.769     8.796
    40   6 C        2.920    -0.029    28.720     8.788
    41   6 C        2.921    -0.040    28.996     8.830
    42   6 C        2.939     0.058    26.710     8.476
    43   6 C        2.932    -0.063    29.571     8.918
    44   6 C        2.917    -0.035    28.863     8.810
    45   6 C        2.922    -0.048    29.187     8.860
    46   6 C        2.937    -0.047    29.156     8.856
    47   6 C        2.970    -0.008    28.223     8.714
    48   6 C        3.810    -0.074    21.898     6.661
    49   1 H        0.925     0.037     2.493     2.469
    50   1 H        0.925     0.033     2.546     2.495
    51   1 H        0.925     0.030     2.586     2.515
    52   1 H        0.925     0.036     2.502     2.474
    53   1 H        0.925     0.035     2.512     2.479
    54   1 H        0.925     0.034     2.530     2.487
    55   1 H        0.925     0.035     2.520     2.483
    56   1 H        0.925     0.030     2.587     2.515
    57   1 H        0.925     0.035     2.511     2.478
    58   1 H        0.926     0.025     2.659     2.550
    59   1 H        0.926     0.013     2.841     2.636
    60   1 H        0.926     0.024     2.668     2.554
    61   1 H        0.925     0.033     2.549     2.497
    62   1 H        0.925     0.029     2.594     2.519
    63   1 H        0.925     0.037     2.489     2.467
    64   1 H        0.925     0.032     2.555     2.500
    65   1 H        0.925     0.031     2.573     2.509
    66   1 H        0.926     0.043     2.412     2.429
    67   1 H        0.925     0.035     2.518     2.481
    68   1 H        0.925     0.031     2.574     2.509
    69   1 H        0.925     0.038     2.479     2.462
    70   1 H        0.925     0.035     2.512     2.478
    71   1 H        0.925     0.037     2.492     2.469
    72   1 H        0.925     0.034     2.525     2.485
    73   1 H        0.925     0.034     2.533     2.489
    74   1 H        0.925     0.031     2.574     2.509
    75   1 H        0.925     0.037     2.489     2.467
    76   1 H        0.925     0.038     2.481     2.463
    77   1 H        0.925     0.030     2.582     2.513
    78   1 H        0.925     0.038     2.482     2.464
    79   1 H        0.926     0.038     2.480     2.463
    80   1 H        0.925     0.015     2.805     2.619
    81   1 H        0.926     0.024     2.674     2.557
    82   1 H        0.925     0.035     2.519     2.482
    83   1 H        0.925     0.034     2.536     2.490
    84   1 H        0.925     0.031     2.572     2.508
    85   1 H        0.925     0.032     2.556     2.500
    86   1 H        0.925     0.033     2.549     2.497
    87   1 H        0.925     0.033     2.549     2.497
    88   1 H        0.925     0.033     2.538     2.491
    89   1 H        0.925     0.037     2.495     2.470
    90   1 H        0.925     0.036     2.508     2.477
    91   1 H        0.924     0.041     2.440     2.443
    92   1 H        0.925     0.059     2.216     2.328
    93   1 H        0.927     0.056     2.248     2.344
    94   1 H        0.926     0.021     2.719     2.578
    95   1 H        0.926     0.022     2.703     2.571
    96   1 H        0.926     0.019     2.745     2.591
    97   1 H        0.926     0.038     2.469     2.457
    98   1 H        0.926     0.037     2.495     2.470
    99   1 H        0.926     0.035     2.512     2.479
   100   1 H        0.926     0.036     2.500     2.473
   101   1 H        0.926     0.046     2.374     2.409
   102   1 H        0.926     0.021     2.714     2.576
   103   1 H        0.926     0.022     2.708     2.574
   104   1 H        0.926     0.019     2.747     2.592
   105   1 H        0.927     0.056     2.244     2.342
   106   1 H        0.925     0.068     2.106     2.269
   107   1 H        0.925     0.044     2.397     2.421

molecular dipole:
                 x           y           z       tot (Debye)
 q only:       -0.057      -0.098       0.193
   full:        0.030       0.066       0.215       0.577

 projected vibrational frequencies (cm⁻¹)
eigval :       -0.00    -0.00    -0.00    -0.00    -0.00     0.00
eigval :       12.23    18.72    24.93    28.92    32.70    40.12
eigval :       51.47    54.11    70.10    70.20    76.05    84.89
eigval :       97.94   114.61   118.32   129.88   139.30   141.78
eigval :      147.99   153.31   168.30   176.68   182.28   190.22
eigval :      195.44   203.02   205.29   205.92   225.75   238.43
eigval :      243.47   245.15   247.65   254.28   264.67   271.60
eigval :      278.84   284.70   289.16   297.44   301.89   305.15
eigval :      310.78   313.33   318.24   321.92   330.30   334.61
eigval :      337.45   348.98   355.43   358.15   362.31   368.82
eigval :      374.72   376.85   389.32   393.43   399.22   399.53
eigval :      407.89   411.92   426.47   435.45   441.48   448.75
eigval :      452.16   464.10   471.59   481.83   484.95   491.90
eigval :      494.20   500.57   502.53   514.16   519.24   524.27
eigval :      528.45   533.78   552.15   563.86   570.45   591.42
eigval :      595.13   599.27   603.47   611.29   617.36   639.88
eigval :      659.21   674.55   683.49   704.49   724.35   733.94
eigval :      748.48   756.51   765.36   772.86   780.52   812.56
eigval :      820.26   844.89   859.23   860.77   864.32   864.62
eigval :      866.67   874.50   876.50   876.76   879.45   884.39
eigval :      893.89   899.26   906.42   907.67   910.50   914.91
eigval :      915.89   928.93   929.38   931.30   932.42   934.19
eigval :      947.98   949.93   954.57   957.54   958.22   960.16
eigval :      960.93   961.45   965.29   969.86   970.43   974.00
eigval :      978.81   980.23   986.99   990.22   995.06  1006.70
eigval :     1020.63  1028.49  1030.91  1033.72  1035.42  1039.66
eigval :     1040.67  1047.31  1048.16  1078.68  1079.94  1084.34
eigval :     1092.96  1095.62  1108.42  1114.81  1115.88  1119.38
eigval :     1131.12  1150.88  1155.06  1178.99  1180.82  1182.49
eigval :     1186.46  1187.20  1191.65  1195.80  1205.15  1207.42
eigval :     1211.97  1216.73  1218.25  1220.42  1224.70  1225.36
eigval :     1228.30  1231.96  1232.60  1242.01  1246.69  1249.19
eigval :     1255.86  1269.30  1271.48  1274.28  1275.59  1300.72
eigval :     1308.64  1309.12  1314.62  1316.99  1329.78  1335.58
eigval :     1347.84  1353.51  1368.57  1370.38  1401.35  1402.22
eigval :     1404.56  1405.18  1410.26  1414.49  1418.20  1419.47
eigval :     1427.06  1428.21  1429.91  1432.68  1435.75  1437.76
eigval :     1439.87  1468.84  1472.08  1479.96  1489.37  1494.12
eigval :     1496.40  1496.61  1497.45  1497.91  1500.86  1501.13
eigval :     1504.01  1504.91  1506.17  1507.53  1512.29  1513.84
eigval :     1514.96  1516.76  1518.69  1520.32  1521.19  1525.45
eigval :     1527.11  1529.55  1531.44  1536.26  1540.39  1565.54
eigval :     1573.46  1581.77  1583.63  1591.70  1595.52  1601.99
eigval :     1644.98  1646.17  1700.37  1700.72  2978.90  2982.99
eigval :     3007.52  3009.82  3011.15  3013.08  3014.02  3015.82
eigval :     3017.35  3018.64  3019.10  3019.22  3021.50  3022.98
eigval :     3025.74  3027.71  3029.06  3030.20  3033.15  3034.34
eigval :     3035.18  3035.23  3036.58  3037.48  3038.21  3040.41
eigval :     3042.80  3043.46  3053.57  3054.78  3055.07  3059.31
eigval :     3064.03  3072.75  3075.02  3076.12  3076.71  3076.79
eigval :     3078.41  3078.69  3080.11  3081.42  3081.47  3087.37
eigval :     3089.07  3089.36  3089.80  3094.91  3096.52  3100.37
eigval :     3104.47  3104.93  3110.66  3112.85  3114.06  3126.95
eigval :     3130.05  3250.84  3292.87

   temp. (K)  partition function   enthalpy   heat capacity  entropy
                                   cal/mol     cal/K/mol   cal/K/mol   J/K/mol
 298.15  VIB  0.581E+19            27739.104    181.429    166.296
         ROT  0.465E+08              888.752      2.981     38.066
         INT  0.270E+27            28627.857    184.409    204.362
         TR   0.156E+29             1481.254      4.968     45.221
         TOT                       30109.1108   189.3775   249.5832  1044.2563

       T/K    H(0)-H(T)+PV         H(T)/Eh          T*S/Eh         G(T)/Eh
   ------------------------------------------------------------------------
    298.15    0.479819E-01    0.976463E+00    0.118585E+00    0.857878E+00
   ------------------------------------------------------------------------

         :::::::::::::::::::::::::::::::::::::::::::::::::::::
         ::                  THERMODYNAMIC                  ::
         :::::::::::::::::::::::::::::::::::::::::::::::::::::
         :: total free energy        -132.716859926554 Eh   ::
         ::.................................................::
         :: total energy             -133.574737490151 Eh   ::
         :: zero point energy           0.928480696049 Eh   ::
         :: G(RRHO) w/o ZPVE           -0.070603132452 Eh   ::
         :: G(RRHO) contrib.            0.857877563597 Eh   ::
         :::::::::::::::::::::::::::::::::::::::::::::::::::::

           -------------------------------------------------
          | TOTAL ENERGY             -133.574737490151 Eh   |
          | TOTAL ENTHALPY           -132.598274871902 Eh   |
          | TOTAL FREE ENERGY        -132.716859926554 Eh   |
          | GRADIENT NORM               0.000072100242 Eh/α |
          | HOMO-LUMO GAP               2.771951632902 eV   |
           -------------------------------------------------

 * finished run on 2025/09/10 at 00:00:20.296
