   * xtb version 6.7.1 (edcfbbe) compiled by 'albert@albert-system' on 2024-07-22

   ID    Z sym.   atoms
    1    6 C      1-34, 36-48
    2    7 N      35
    3    1 H      49-107

          program call               : xtb data2507/gas/TBAc/TBAc_gas_T1_crest.xyz --gfn 2 --spinpol --tblite --uhf 2 --ohess vtight --parallel 40 --molden --ceasefiles --namespace data2507/gas/TBAc/TBAc_gas_T1_finalOpt
 * total energy  :  -133.5535283 Eh     change       -0.2117412E-07 Eh
 * total energy  :  -133.5535472 Eh     change       -0.1894783E-04 Eh
 * total energy  :  -133.5535538 Eh     change       -0.6606559E-05 Eh
 * total energy  :  -133.5535550 Eh     change       -0.1142911E-05 Eh
 * total energy  :  -133.5535554 Eh     change       -0.4352253E-06 Eh
 * total energy  :  -133.5535554 Eh     change       -0.3406683E-08 Eh
 * total energy  :  -133.5535558 Eh     change       -0.3737524E-06 Eh
 * total energy  :  -133.5535560 Eh     change       -0.2485248E-06 Eh
 * total energy  :  -133.5535562 Eh     change       -0.2031235E-06 Eh
 * total energy  :  -133.5535565 Eh     change       -0.2473748E-06 Eh
 * total energy  :  -133.5535567 Eh     change       -0.2223156E-06 Eh
 * total energy  :  -133.5535568 Eh     change       -0.1278354E-06 Eh
 * total energy  :  -133.5535570 Eh     change       -0.2214302E-06 Eh
 * total energy  :  -133.5535572 Eh     change       -0.1166480E-06 Eh
 * total energy  :  -133.5535573 Eh     change       -0.1910332E-06 Eh
 * total energy  :  -133.5535574 Eh     change       -0.3809797E-07 Eh
   *** GEOMETRY OPTIMIZATION CONVERGED AFTER 16 ITERATIONS ***

 final structure:
================
107
 xtb: 6.7.1 (edcfbbe)
C           -3.70985247698381       -4.59863659628133        0.86606940798631
C           -3.42527225187708       -3.35516604270750        0.00868224872198
C           -4.55143476190341       -2.34606348348777        0.25937504523191
C           -3.46321104519863       -3.74540363607053       -1.47997279003054
C           -2.04556948329638       -2.80471660926759        0.31433976239852
C           -0.93803039983129       -3.62988973743313        0.25670752800414
C            0.34605356647005       -3.16908322292082        0.41392072094998
C            0.63228188671246       -1.73457915487128        0.61733673366754
C           -0.53202481008155       -0.82049813772230        1.04353371365213
C           -0.63274140049736       -0.76362192995428        2.62499118929928
C           -1.61130953701522        0.27590729195900        3.18990707414965
C            0.69601470738194       -0.57839662004896        3.38184033866624
C           -1.13905492150362       -2.13959704524412        3.10826517597627
C            0.09066957682333        0.30902055595911        0.03647762834689
C           -0.84000695441789        1.23861849213259       -0.88989183569770
C           -0.08676510700175        2.46284542352113       -1.60360616888438
C            0.23334279530718        3.71356561548693       -0.76656397794876
C            1.24445442703734        2.03480667605660       -2.23191135331773
C           -1.00117356761663        2.97935790672914       -2.73565104240174
C           -1.33904354552326        0.45802138720793       -2.08077621314742
C           -2.61920526941874        0.29010549763963       -2.41769048368255
C           -3.69774665694111        0.89413603807302       -1.67834484238204
C           -3.44387538175236        1.64854265857660       -0.60581729563087
C           -4.51748284682590        2.46077130033574        0.10279909603672
C           -4.37481196860243        2.39573960148731        1.62849159214975
C           -5.92856897064140        1.97321285715565       -0.24824356949071
C           -4.38929786081973        3.92380844078190       -0.35352506599428
C           -2.04475233532067        1.75786412581341       -0.05011410352728
C            1.06280327082895        1.13846386406794        0.84804799541826
C            0.59140751027233        2.14203647771424        1.69007183829170
C            1.40010247332414        2.83092039191274        2.57703729135116
C            2.73880103335407        2.49400111616627        2.67368186778321
C            3.25145417717440        1.53260493377830        1.83206358026113
C            2.44829875707342        0.88627611768822        0.88259984694893
N            3.04643250150116        0.02024314551498       -0.01275468860482
C            4.45851401793707       -0.09304038309028       -0.06366912197648
C            5.04869137367965       -1.32289458867350        0.20531607038708
C            6.42318215674713       -1.45745548842253        0.14582407473572
C            7.21611441133343       -0.36987994914809       -0.18249543851812
C            6.62916844820843        0.85448765125492       -0.45737194564509
C            5.25505953639183        0.99640612993688       -0.40216962597275
C            2.31175620011135       -0.63718594370523       -0.98034441077586
C            2.92896335206383       -1.06312072691071       -2.13335827819708
C            2.24538320833847       -1.76977369180317       -3.11618559833715
C            0.89227197401857       -2.06293154662944       -2.90885204197731
C            0.22949299436063       -1.62480632944728       -1.80771432096763
C            0.87330773884302       -0.88034336891664       -0.68455033304564
C           -1.88741308913982       -1.32631773717917        0.50486008730142
H           -4.71968698962590       -4.95773986857061        0.67811102275243
H           -3.62070336926430       -4.35905236443736        1.92364957778793
H           -3.01916198241099       -5.40551831737213        0.64089538371830
H           -4.42063354054592       -1.44663183428075       -0.33724319594291
H           -5.50419974510935       -2.79579064504704       -0.01431491852440
H           -4.60680868385860       -2.07068557676926        1.31096864425895
H           -2.68144917015151       -4.46373536973388       -1.71247036140975
H           -4.42540290991921       -4.18708434084137       -1.73149110820945
H           -3.31469879963298       -2.86467472062091       -2.10153487807070
H           -1.07459371736732       -4.68848772508317        0.08822841068449
H            1.18390147820117       -3.84689027536774        0.35285064836447
H            1.49914240202960       -1.60985302767073        1.26485978996088
H           -2.59022071543380        0.22465173183395        2.72182272797875
H           -1.22395068179095        1.28384519017796        3.10481742385331
H           -1.75951022986046        0.07704453295137        4.25027476655702
H            1.35188696889198       -1.43544698875301        3.25334689523932
H            0.47423703331032       -0.50948041015796        4.44577216218997
H            1.23258948802117        0.31700121498808        3.10694704494753
H           -1.12101893327452       -2.15997165879333        4.19659442282208
H           -0.49918642446965       -2.93879842299394        2.74738040200843
H           -2.15554339478262       -2.34837928089023        2.79266984585953
H            0.95539573144458        3.52458578240445        0.01693445711887
H           -0.65085210779600        4.17105765556821       -0.33092445955447
H            0.67069711701751        4.45499494895582       -1.43372436391090
H            1.16767755757096        1.11376269883565       -2.79936206041488
H            1.58495337396133        2.81410631711432       -2.91217224454001
H            2.00708045703074        1.90773809018456       -1.47105161803092
H           -2.01446258320466        3.13751347535458       -2.37748280145850
H           -1.03690095712277        2.29346061764313       -3.57620595523656
H           -0.62249257894972        3.92984025096913       -3.10676011846362
H           -0.58125702336926        0.10444805596569       -2.75626160064991
H           -2.87275164271120       -0.25690074643259       -3.31549134636131
H           -4.69028763614617        0.77197044622174       -2.07934633417787
H           -5.16704237380748        2.97769811342668        2.09514269812698
H           -3.42525754841597        2.79798506512669        1.96850814207512
H           -4.46694465699792        1.36809762548248        1.97290989001410
H           -6.66072219429093        2.51361812054063        0.34817485707368
H           -6.15964639821006        2.15055857259505       -1.29513149559674
H           -6.03387167870435        0.91136289533566       -0.03739033316852
H           -4.46763701772624        3.99062776808427       -1.43673040423769
H           -3.43633974292944        4.35187906057853       -0.05187285513331
H           -5.18289799644295        4.52344276806212        0.08710738058637
H           -1.88615204162786        2.80582513795480        0.19555532222662
H           -2.05249370075737        1.21121972458946        0.88901176583131
H           -0.44522048823454        2.41281652224993        1.64759472988357
H            0.97952384995372        3.60495696988190        3.20060112417345
H            3.38130586023782        2.97887387704136        3.39285954028253
H            4.29483257246109        1.26848649271269        1.90564990446784
H            4.42097946468121       -2.16599853884612        0.45336569956909
H            6.87735186492257       -2.41365025402225        0.35898054408493
H            8.28939193355882       -0.47692804846770       -0.22758941549903
H            7.24371859157972        1.70207884467905       -0.72227814988511
H            4.79106205898598        1.94699031685202       -0.62170927918364
H            3.97444134398723       -0.83637628073141       -2.28422192065304
H            2.75450015205670       -2.09398590096994       -4.00889058783881
H            0.35748157432464       -2.64579330596580       -3.64578744258486
H           -0.78561127643248       -1.94298522716336       -1.66777887990187
H           -2.08526289086761       -0.86156177432610       -0.45863798087675
H           -2.68247255206966       -0.97492921286813        1.15954047915466

 projected vibrational frequencies (cm⁻¹)
eigval :       -0.00    -0.00    -0.00    -0.00    -0.00     0.00
eigval :       19.57    25.86    28.34    32.02    37.93    40.49
eigval :       49.61    60.68    71.63    71.97    79.54    84.96
eigval :       99.83   105.43   112.97   113.98   129.49   149.20
eigval :      159.86   165.22   167.82   176.57   187.73   190.58
eigval :      201.44   203.30   208.23   220.34   222.64   225.32
eigval :      228.30   231.19   236.00   245.18   248.71   256.89
eigval :      264.21   266.95   273.25   287.95   289.40   298.45
eigval :      306.89   311.59   317.53   323.83   332.25   336.65
eigval :      340.32   344.60   350.28   353.52   359.96   363.37
eigval :      368.16   376.52   379.43   387.45   394.44   396.80
eigval :      402.28   410.78   422.41   427.16   437.17   443.27
eigval :      453.36   454.49   461.58   468.40   479.13   484.38
eigval :      486.67   492.11   505.57   506.60   515.90   524.44
eigval :      533.54   538.60   544.98   554.19   580.45   589.71
eigval :      594.60   598.79   610.40   615.11   632.56   648.39
eigval :      670.29   671.79   701.05   705.34   727.38   728.20
eigval :      739.11   747.22   757.18   771.30   781.53   811.82
eigval :      834.98   845.07   855.79   861.33   867.23   867.98
eigval :      871.37   875.73   876.22   882.30   883.30   887.63
eigval :      898.43   899.72   900.89   906.69   912.32   916.12
eigval :      916.87   922.81   928.07   930.99   937.40   940.17
eigval :      946.89   952.21   954.41   955.92   957.10   958.36
eigval :      959.11   959.44   960.69   961.18   961.78   962.58
eigval :      965.79   968.77   991.86  1003.66  1017.37  1020.50
eigval :     1027.76  1029.75  1030.55  1032.09  1037.60  1040.08
eigval :     1047.48  1053.23  1057.96  1071.77  1079.39  1085.71
eigval :     1088.67  1092.91  1096.05  1104.66  1113.35  1116.16
eigval :     1134.43  1148.32  1156.25  1165.31  1179.36  1181.18
eigval :     1184.46  1198.41  1198.84  1200.90  1207.56  1210.41
eigval :     1212.31  1219.10  1220.30  1221.94  1225.57  1226.48
eigval :     1229.14  1231.49  1237.83  1240.51  1244.81  1248.00
eigval :     1252.96  1263.90  1274.48  1275.30  1276.83  1290.21
eigval :     1299.60  1305.83  1314.30  1319.56  1320.40  1330.37
eigval :     1340.63  1342.47  1356.36  1367.86  1382.73  1389.88
eigval :     1399.85  1400.73  1403.53  1406.71  1407.63  1411.97
eigval :     1413.01  1416.10  1424.97  1426.99  1428.07  1432.89
eigval :     1436.93  1437.94  1439.05  1459.71  1464.19  1468.67
eigval :     1477.32  1484.51  1489.95  1490.70  1491.71  1492.69
eigval :     1494.08  1494.85  1496.15  1496.86  1499.04  1501.37
eigval :     1501.87  1504.70  1504.98  1506.33  1510.13  1513.73
eigval :     1517.38  1517.54  1518.22  1518.56  1521.05  1525.24
eigval :     1527.21  1529.71  1532.22  1558.97  1567.48  1579.36
eigval :     1584.79  1592.93  1634.04  1693.79  2984.41  2998.24
eigval :     3007.07  3008.23  3009.82  3012.49  3012.96  3013.02
eigval :     3017.58  3020.60  3020.70  3020.84  3021.35  3021.70
eigval :     3025.58  3026.07  3027.09  3028.48  3029.81  3030.64
eigval :     3034.34  3035.01  3035.72  3037.80  3038.03  3040.39
eigval :     3041.69  3042.46  3043.11  3049.61  3051.32  3051.88
eigval :     3054.01  3056.63  3057.47  3058.86  3064.53  3065.09
eigval :     3066.85  3069.01  3074.75  3077.45  3078.12  3080.30
eigval :     3080.47  3080.86  3087.50  3091.04  3091.83  3092.49
eigval :     3098.94  3102.97  3104.47  3104.85  3110.32  3133.81
eigval :     3154.82  3170.96  3186.45

   temp. (K)  partition function   enthalpy   heat capacity  entropy
                                   cal/mol     cal/K/mol   cal/K/mol   J/K/mol
 298.15  VIB  0.256E+19            27898.552    182.491    166.892
         ROT  0.465E+08              888.752      2.981     38.064
         INT  0.119E+27            28787.304    185.472    204.956
         TR   0.156E+29             1481.254      4.968     45.221
         TOT                       30268.5583   190.4401   250.1773  1046.7417

       T/K    H(0)-H(T)+PV         H(T)/Eh          T*S/Eh         G(T)/Eh
   ------------------------------------------------------------------------
    298.15    0.482360E-01    0.973017E+00    0.118867E+00    0.854150E+00
   ------------------------------------------------------------------------

         :::::::::::::::::::::::::::::::::::::::::::::::::::::
         ::                  THERMODYNAMIC                  ::
         :::::::::::::::::::::::::::::::::::::::::::::::::::::
         :: total free energy        -132.699407630549 Eh   ::
         ::.................................................::
         :: total energy             -133.553557375174 Eh   ::
         :: zero point energy           0.924781022100 Eh   ::
         :: G(RRHO) w/o ZPVE           -0.070631277476 Eh   ::
         :: G(RRHO) contrib.            0.854149744625 Eh   ::
         :::::::::::::::::::::::::::::::::::::::::::::::::::::

           -------------------------------------------------
          | TOTAL ENERGY             -133.553557375174 Eh   |
          | TOTAL ENTHALPY           -132.580540335111 Eh   |
          | TOTAL FREE ENERGY        -132.699407630549 Eh   |
          | GRADIENT NORM               0.000149611580 Eh/α |
           -------------------------------------------------

 * finished run on 2025/09/10 at 00:24:43.716
