   * xtb version 6.7.1 (edcfbbe) compiled by 'albert@albert-system' on 2024-07-22

   ID    Z sym.   atoms
    1    6 C      1-9, 11-22, 24, 25, 27-32, 34-44
    2    7 N      10, 23, 26, 33
    3    1 H      45-72

          program call               : xtb data2507/gas/PyDCN–DMAC/PyDCN–DMAC_gas_S0_crest.xyz --gfn 2 --ohess vtight --parallel 40 --molden --ceasefiles --namespace data2507/gas/PyDCN–DMAC/PyDCN–DMAC_gas_S0_finalOpt
          :  Hamiltonian                  GFN2-xTB          :
 * total energy  :  -111.5758888 Eh     change       -0.3901846E-08 Eh
 * total energy  :  -111.5758884 Eh     change        0.4465237E-06 Eh
 * total energy  :  -111.5758887 Eh     change       -0.3721845E-06 Eh
 * total energy  :  -111.5758909 Eh     change       -0.2173819E-05 Eh
 * total energy  :  -111.5758917 Eh     change       -0.7565653E-06 Eh
 * total energy  :  -111.5758929 Eh     change       -0.1243854E-05 Eh
 * total energy  :  -111.5758945 Eh     change       -0.1599532E-05 Eh
 * total energy  :  -111.5758991 Eh     change       -0.4564819E-05 Eh
 * total energy  :  -111.5759026 Eh     change       -0.3553774E-05 Eh
 * total energy  :  -111.5759041 Eh     change       -0.1429418E-05 Eh
 * total energy  :  -111.5759226 Eh     change       -0.3805532E-06 Eh
 * total energy  :  -111.5759231 Eh     change       -0.4233015E-06 Eh
 * total energy  :  -111.5759235 Eh     change       -0.3967970E-06 Eh
 * total energy  :  -111.5759238 Eh     change       -0.2991434E-06 Eh
 * total energy  :  -111.5759241 Eh     change       -0.2976484E-06 Eh
 * total energy  :  -111.5759244 Eh     change       -0.3048391E-06 Eh
 * total energy  :  -111.5759247 Eh     change       -0.3391536E-06 Eh
 * total energy  :  -111.5759251 Eh     change       -0.4089426E-06 Eh
 * total energy  :  -111.5759251 Eh     change       -0.1475854E-08 Eh
   *** GEOMETRY OPTIMIZATION CONVERGED AFTER 44 ITERATIONS ***

 final structure:
================
72
 xtb: 6.7.1 (edcfbbe)
C           -8.10914970384215       -0.97844686866508        0.78374754596711
C           -7.21953385648473       -0.02055668146579       -0.02942408804054
C           -8.09019327522055        0.94079289438551       -0.85895614081782
C           -6.37780411590253        0.79717328506214        0.93186705588016
C           -7.00335276666781        1.60856192563242        1.86833983393515
C           -6.28908880002963        2.38923667304065        2.75826339713798
C           -4.90704426694198        2.37353030937363        2.71306737192390
C           -4.25946265553683        1.57626265313312        1.79298037610262
C           -4.97970213217415        0.77419600172678        0.90316607186914
N           -4.30060054038294       -0.02063249105476       -0.00716418960137
C           -2.88089284346542       -0.01484338164930       -0.00225410715677
C           -2.18355624364547        0.74520742031414       -0.93416885722338
C           -0.80268378964851        0.75317102632175       -0.92628568713842
C           -0.09500548829421       -0.00304508110002        0.00528905103926
C            1.37482766928045        0.00424404857323        0.00868731281918
C            2.08414812870509        1.18875516903564       -0.16738790006000
C            3.47730541722921        1.15454671401131       -0.13954161463968
C            4.29526362885083        2.36611116313825       -0.29489958345569
C            5.58760297514564        2.24729990244645       -0.80880158122717
C            6.38636749215061        3.35809890642143       -0.97263163329196
C            5.90072977608237        4.61738931845351       -0.61485500763050
C            6.71073854690769        5.76359393334085       -0.78129350200522
N            7.36565389371330        6.69478369304069       -0.91713102090815
C            4.61533068041779        4.74459660902258       -0.08668012700331
C            3.82288700040338        3.62635245442582        0.07019088711739
N            4.14987375257349        0.01954032077605        0.01122541127939
C            3.48960352345654       -1.12286902469655        0.16159088027745
C            4.32170533344929       -2.32471007541624        0.31771289699827
C            3.86268258825626       -3.59194678312271       -0.04021090152024
C            4.66941897551378       -4.69999377618993        0.11639049023291
C            5.95614179739040       -4.55547785230378        0.63680256100522
C            6.78114450362123       -5.69103510277316        0.80243662626307
N            7.44847093976983       -6.61348244315525        0.93769786048686
C            6.42839037543130       -3.28914201571549        0.98758369944151
C            5.61528286452505       -2.18875108113221        0.82442746224850
C            2.09675345446193       -1.17230554895632        0.18703917746795
C           -0.80119686760838       -0.76538710432862        0.93291690689422
C           -2.18222565097711       -0.76909209908985        0.93336283382060
C           -4.96589327587438       -0.81738223041332       -0.92596790968855
C           -4.23209356865906       -1.62106594628543       -1.80317613889440
C           -4.86551781046219       -2.42052968203025       -2.73116185696761
C           -6.24672087014647       -2.43657107782682       -2.79726109468435
C           -6.97452735374810       -1.65423170491150       -1.91985684687315
C           -6.36337111540723       -0.84108653165158       -0.97543460920720
H           -7.48746773088123       -1.65677241377651        1.36532077076592
H           -8.74851008067108       -0.42774583229894        1.46806833674536
H           -8.74241914411363       -1.57056438517207        0.12900871158916
H           -8.71874590362936        0.39239763474671       -1.55508251893666
H           -7.45521195636340        1.61667742006563       -1.42891193902369
H           -8.73306281517007        1.53545045371823       -0.21593772743135
H           -8.08170403408127        1.63799473236786        1.90862367701751
H           -6.80805931522632        3.00726415182822        3.47483747880000
H           -4.32921396507855        2.98298166312367        3.39192627932813
H           -3.18051619821127        1.57529209093017        1.75834017815466
H           -2.73223371901470        1.32370094920093       -1.66244164901638
H           -0.26649618015990        1.33411089982708       -1.66232445111083
H            1.55658716206692        2.11710482794697       -0.31821629656469
H            5.94605673151333        1.26579803658045       -1.07712884670017
H            7.38443671914251        3.26580461286490       -1.37486858895510
H            4.25077644664514        5.72029947091863        0.19950229569723
H            2.83894651741431        3.73447354403249        0.50110844439160
H            2.87785063227692       -3.71385219653843       -0.46532741171568
H            4.31505041301136       -5.68105715589958       -0.16421636726569
H            7.42751473081411       -3.18329797324576        1.38382672010746
H            5.96328585196907       -1.20205490645117        1.08735869795415
H            1.57888102437946       -2.10623621836766        0.33696307814131
H           -0.26406636706231       -1.34198997193584        1.67168702357129
H           -2.72988430464483       -1.35244939918962        1.65851811221401
H           -3.15378361960732       -1.61957525998064       -1.75237513481297
H           -4.27735079182449       -3.03133224348225       -3.39985139471337
H           -6.75465367081221       -3.05605102143889       -3.52045696670281
H           -8.05212841979439       -1.68338334131325       -1.97691630970453

          :  Hamiltonian                  GFN2-xTB          :
         :: gradient norm              0.000105664381 Eh/a0 ::
         :: HOMO-LUMO gap              1.500489989104 eV    ::
         :: SCC energy              -113.708808600331 Eh    ::
         :: -> dispersion             -0.096102735988 Eh    ::
         :: repulsion energy           2.132883488056 Eh    ::

    * Orbital Energies and Occupations

         #    Occupation            Energy/Eh            Energy/eV
      -------------------------------------------------------------
         1        2.0000           -0.6831895             -18.5905
       ...           ...                  ...                  ...
        92        2.0000           -0.4300875             -11.7033
        93        2.0000           -0.4249493             -11.5635
        94        2.0000           -0.4245850             -11.5535
        95        2.0000           -0.4228923             -11.5075
        96        2.0000           -0.4184243             -11.3859
        97        2.0000           -0.4103594             -11.1664
        98        2.0000           -0.4102318             -11.1630
        99        2.0000           -0.4090368             -11.1305
       100        2.0000           -0.4061524             -11.0520
       101        2.0000           -0.4007754             -10.9057
       102        2.0000           -0.3954906             -10.7618
       103        2.0000           -0.3860513             -10.5050
       104        2.0000           -0.3497253              -9.5165 (HOMO)
       105                         -0.2945833              -8.0160 (LUMO)
       106                         -0.2943277              -8.0091
       107                         -0.2695431              -7.3346
       108                         -0.2494079              -6.7867
       109                         -0.2492442              -6.7823
       110                         -0.2490160              -6.7761
       111                         -0.2399819              -6.5302
       112                         -0.2313223              -6.2946
       113                         -0.2268486              -6.1729
       114                         -0.2218796              -6.0377
       115                         -0.2209027              -6.0111
       ...                                ...                  ...
       204                          1.1672737              31.7631
      -------------------------------------------------------------
                  HL-Gap            0.0551420 Eh            1.5005 eV

     #   Z          covCN         q      C6AA      α(0)
     1   6 C        3.761    -0.103    22.512     6.764
     2   6 C        3.909     0.021    20.156     6.381
     3   6 C        3.761    -0.103    22.511     6.764
     4   6 C        2.979    -0.014    28.357     8.735
     5   6 C        2.928    -0.036    28.893     8.815
     6   6 C        2.917    -0.045    29.107     8.847
     7   6 C        2.920    -0.033    28.825     8.804
     8   6 C        2.924    -0.059    29.478     8.904
     9   6 C        2.928     0.058    26.701     8.474
    10   7 N        2.755    -0.073    22.656     7.069
    11   6 C        2.928     0.073    26.366     8.421
    12   6 C        2.920    -0.037    28.919     8.819
    13   6 C        2.924    -0.031    28.783     8.798
    14   6 C        2.977     0.006    27.881     8.661
    15   6 C        2.981     0.026    27.415     8.589
    16   6 C        2.922    -0.051    29.259     8.870
    17   6 C        2.952     0.094    25.917     8.350
    18   6 C        2.981     0.014    27.697     8.633
    19   6 C        2.925    -0.024    28.596     8.769
    20   6 C        2.924    -0.019    28.483     8.752
    21   6 C        2.974     0.021    27.532     8.607
    22   6 C        1.912     0.112    28.333     8.596
    23   7 N        0.911    -0.230    26.034     7.380
    24   6 C        2.925    -0.020    28.512     8.757
    25   6 C        2.921    -0.030    28.750     8.793
    26   7 N        1.856    -0.244    27.209     7.731
    27   6 C        2.952     0.094    25.918     8.350
    28   6 C        2.981     0.014    27.698     8.633
    29   6 C        2.921    -0.030    28.750     8.793
    30   6 C        2.925    -0.020    28.513     8.757
    31   6 C        2.974     0.021    27.532     8.607
    32   6 C        1.912     0.112    28.333     8.596
    33   7 N        0.911    -0.230    26.035     7.380
    34   6 C        2.924    -0.019    28.483     8.752
    35   6 C        2.925    -0.024    28.596     8.770
    36   6 C        2.922    -0.051    29.258     8.870
    37   6 C        2.924    -0.031    28.783     8.798
    38   6 C        2.920    -0.037    28.920     8.819
    39   6 C        2.928     0.058    26.701     8.474
    40   6 C        2.924    -0.059    29.477     8.904
    41   6 C        2.920    -0.033    28.825     8.804
    42   6 C        2.917    -0.045    29.107     8.847
    43   6 C        2.928    -0.036    28.893     8.815
    44   6 C        2.979    -0.014    28.357     8.735
    45   1 H        0.925     0.031     2.573     2.509
    46   1 H        0.925     0.039     2.457     2.451
    47   1 H        0.925     0.039     2.458     2.451
    48   1 H        0.925     0.039     2.457     2.451
    49   1 H        0.925     0.031     2.574     2.509
    50   1 H        0.925     0.039     2.458     2.452
    51   1 H        0.926     0.030     2.582     2.513
    52   1 H        0.926     0.026     2.637     2.540
    53   1 H        0.926     0.026     2.638     2.540
    54   1 H        0.926     0.020     2.729     2.584
    55   1 H        0.926     0.045     2.381     2.413
    56   1 H        0.926     0.040     2.451     2.448
    57   1 H        0.926     0.038     2.471     2.458
    58   1 H        0.926     0.061     2.190     2.314
    59   1 H        0.926     0.046     2.366     2.405
    60   1 H        0.926     0.044     2.392     2.418
    61   1 H        0.926     0.040     2.446     2.446
    62   1 H        0.926     0.040     2.446     2.446
    63   1 H        0.926     0.044     2.392     2.418
    64   1 H        0.926     0.046     2.366     2.405
    65   1 H        0.926     0.061     2.188     2.313
    66   1 H        0.926     0.038     2.472     2.458
    67   1 H        0.926     0.040     2.451     2.448
    68   1 H        0.926     0.045     2.379     2.412
    69   1 H        0.926     0.020     2.730     2.584
    70   1 H        0.926     0.026     2.638     2.540
    71   1 H        0.926     0.026     2.637     2.540
    72   1 H        0.926     0.030     2.582     2.513

molecular dipole:
                 x           y           z       tot (Debye)
 q only:       -1.583      -0.008      -0.001
   full:       -2.499      -0.013      -0.002       6.352

 projected vibrational frequencies (cm⁻¹)
eigval :       -0.00    -0.00    -0.00     0.00     0.00     0.00
eigval :        3.76    12.88    15.47    26.70    27.62    31.50
eigval :       39.38    44.16    44.87    53.25    65.28    79.08
eigval :       97.90   101.39   104.82   111.23   128.61   134.68
eigval :      135.48   144.58   160.86   190.27   198.62   209.59
eigval :      218.83   223.51   232.62   246.65   259.16   264.40
eigval :      290.77   301.99   313.31   330.96   344.10   344.42
eigval :      362.60   363.45   373.95   378.74   379.51   395.80
eigval :      408.63   412.11   430.65   431.39   450.53   485.84
eigval :      490.26   511.51   515.41   524.47   528.48   532.90
eigval :      536.61   537.95   547.44   550.45   554.12   579.09
eigval :      588.38   601.25   604.02   614.12   619.91   621.02
eigval :      625.58   666.78   682.24   686.27   693.20   700.72
eigval :      704.67   717.78   729.73   737.44   776.25   776.46
eigval :      777.49   806.53   817.80   820.76   826.71   841.62
eigval :      844.14   864.82   865.38   867.86   869.27   869.47
eigval :      871.54   882.00   912.87   913.73   914.76   916.38
eigval :      916.69   920.70   920.97   921.23   923.97   925.86
eigval :      928.18   929.52   939.16   957.29   987.98  1012.05
eigval :     1014.33  1014.47  1018.24  1077.37  1081.25  1087.02
eigval :     1110.26  1113.66  1119.74  1126.10  1133.10  1135.44
eigval :     1141.03  1146.97  1160.64  1172.34  1185.92  1187.37
eigval :     1187.74  1187.82  1188.00  1208.24  1220.46  1226.01
eigval :     1240.44  1246.33  1249.30  1250.15  1264.10  1265.20
eigval :     1265.30  1269.42  1292.52  1294.83  1307.67  1317.19
eigval :     1320.44  1320.68  1326.24  1335.56  1345.21  1362.70
eigval :     1383.63  1387.00  1398.41  1402.98  1408.47  1421.20
eigval :     1428.93  1437.10  1444.47  1480.31  1480.46  1481.86
eigval :     1488.96  1490.15  1491.05  1499.82  1500.72  1505.59
eigval :     1533.79  1551.84  1554.24  1562.94  1563.70  1576.15
eigval :     1589.07  1589.69  1590.75  1593.53  1596.16  1603.53
eigval :     2373.73  2374.63  3025.98  3028.19  3039.65  3042.42
eigval :     3048.55  3053.03  3077.67  3077.75  3080.35  3081.95
eigval :     3082.85  3083.06  3084.07  3084.15  3089.48  3089.61
eigval :     3092.20  3092.50  3094.36  3094.66  3094.94  3095.53
eigval :     3098.31  3099.17  3100.10  3100.81  3107.27  3107.95

   temp. (K)  partition function   enthalpy   heat capacity  entropy
                                   cal/mol     cal/K/mol   cal/K/mol   J/K/mol
 298.15  VIB  0.749E+18            21680.399    132.485    136.866
         ROT  0.512E+08              888.752      2.981     38.256
         INT  0.383E+26            22569.151    135.466    175.122
         TR   0.130E+29             1481.254      4.968     44.858
         TOT                       24050.4052   140.4337   219.9796   920.3946

       T/K    H(0)-H(T)+PV         H(T)/Eh          T*S/Eh         G(T)/Eh
   ------------------------------------------------------------------------
    298.15    0.383268E-01    0.590271E+00    0.104519E+00    0.485751E+00
   ------------------------------------------------------------------------

         :::::::::::::::::::::::::::::::::::::::::::::::::::::
         ::                  THERMODYNAMIC                  ::
         :::::::::::::::::::::::::::::::::::::::::::::::::::::
         :: total free energy        -111.090173796939 Eh   ::
         ::.................................................::
         :: total energy             -111.575925112196 Eh   ::
         :: zero point energy           0.551943960703 Eh   ::
         :: G(RRHO) w/o ZPVE           -0.066192645446 Eh   ::
         :: G(RRHO) contrib.            0.485751315257 Eh   ::
         :::::::::::::::::::::::::::::::::::::::::::::::::::::

           -------------------------------------------------
          | TOTAL ENERGY             -111.575925112196 Eh   |
          | TOTAL ENTHALPY           -110.985654391134 Eh   |
          | TOTAL FREE ENERGY        -111.090173796939 Eh   |
          | GRADIENT NORM               0.000105636558 Eh/α |
          | HOMO-LUMO GAP               1.500489839929 eV   |
           -------------------------------------------------

 * finished run on 2025/09/05 at 01:42:23.404
