   * xtb version 6.7.1 (edcfbbe) compiled by 'albert@albert-system' on 2024-07-22

   ID    Z sym.   atoms
    1    6 C      1-9, 11-22, 24, 25, 27-32, 34-44
    2    7 N      10, 23, 26, 33
    3    1 H      45-72

          program call               : xtb data2507/gas/PyDCN–DMAC/PyDCN–DMAC.xyz --gfn 2 --ohess vtight --parallel 40 --molden --ceasefiles --namespace data2507/gas/PyDCN–DMAC/PyDCN–DMAC_gas_S0_preOpt
          :  Hamiltonian                  GFN2-xTB          :
 * total energy  :  -111.5545989 Eh     change       -0.3977334E-08 Eh
 * total energy  :  -111.5688871 Eh     change       -0.1428813E-01 Eh
 * total energy  :  -111.5731289 Eh     change       -0.4241801E-02 Eh
 * total energy  :  -111.5741708 Eh     change       -0.1041889E-02 Eh
 * total energy  :  -111.5748300 Eh     change       -0.6592808E-03 Eh
 * total energy  :  -111.5750470 Eh     change       -0.2169894E-03 Eh
 * total energy  :  -111.5751030 Eh     change       -0.5596795E-04 Eh
 * total energy  :  -111.5752443 Eh     change       -0.1413013E-03 Eh
 * total energy  :  -111.5753074 Eh     change       -0.6306554E-04 Eh
 * total energy  :  -111.5753934 Eh     change       -0.8605161E-04 Eh
 * total energy  :  -111.5758616 Eh     change       -0.2636056E-05 Eh
 * total energy  :  -111.5758624 Eh     change       -0.8164777E-06 Eh
 * total energy  :  -111.5758631 Eh     change       -0.6533468E-06 Eh
 * total energy  :  -111.5758636 Eh     change       -0.5670937E-06 Eh
 * total energy  :  -111.5758640 Eh     change       -0.4123069E-06 Eh
 * total energy  :  -111.5758643 Eh     change       -0.2129543E-06 Eh
 * total energy  :  -111.5758644 Eh     change       -0.1276055E-06 Eh
 * total energy  :  -111.5758645 Eh     change       -0.1152676E-06 Eh
 * total energy  :  -111.5758646 Eh     change       -0.8658427E-07 Eh
   *** GEOMETRY OPTIMIZATION CONVERGED AFTER 35 ITERATIONS ***

 final structure:
================
72
 xtb: 6.7.1 (edcfbbe)
C           -7.34989388279472       -0.57750915313216        1.12271899694040
C           -6.46911206854875        0.00009271455440       -0.00019938370005
C           -7.34851247448051        0.57813367208777       -1.12397868046125
C           -5.62012110872915        1.11618051938827        0.57797009695006
C           -6.23960450020209        2.21737395392837        1.15291466598096
C           -5.51992064642960        3.25403374122096        1.71736457291662
C           -4.13849360775067        3.19158649593402        1.72502400803768
C           -3.49712718498690        2.10973492772036        1.15959171039199
C           -4.22232056033674        1.07128639214162        0.56814586394001
N           -3.54904091646618       -0.00017949758048        0.00034100734756
C           -2.13057783408223       -0.00004693535276        0.00016692813157
C           -1.43168995324482        0.79515872530577       -0.90126951987292
C           -0.05105898458074        0.79851778195974       -0.89581141560391
C            0.65751056539789        0.00018177553762       -0.00035895690330
C            2.12656963876865        0.00013721639048       -0.00061773769675
C            2.84299704996846        1.18280161494537       -0.16255841021245
C            4.23607483526510        1.13569790015662       -0.17296218614250
C            5.06110661323466        2.33878612199059       -0.35428715787945
C            6.35497264159219        2.35601630996206        0.16921937525397
C            7.16071807309786        3.46414926577815        0.02259652049444
C            6.68079004685714        4.58185647168337       -0.66297550143336
C            7.49797033852789        5.72469210534350       -0.81693162239972
N            8.15871172937919        6.65327142812218       -0.94184849971447
C            5.39381904309836        4.56910706951537       -1.20234369017486
C            4.59463151815819        3.45551830535270       -1.04707415654991
N            4.90244318954784        0.00001868510391       -0.00059524400313
C            4.23597615789035       -1.13560884964412        0.17171552893561
C            5.06088184550831       -2.33872355654179        0.35341706590628
C            4.59414011453152       -3.45524681687691        1.04636477517793
C            5.39325671310834       -4.56879374558614        1.20227138874733
C            6.68043003302790       -4.58171109364453        0.66339069296194
C            7.49759671752286       -5.72444324547100        0.81817949632823
N            8.15835378989346       -6.65291927872086        0.94385169012106
C            7.16059816374619       -3.46424029564468       -0.02239608400383
C            6.35491492770759       -2.35614456146662       -0.16966442774793
C            2.84289863635902       -1.18259439754909        0.16124420372127
C           -0.05061534326423       -0.79822350229924        0.89539723467144
C           -1.43123882945235       -0.79509477336992        0.90138970623276
C           -4.22230227423799       -1.07173408570295       -0.56732761527140
C           -3.49710445409456       -2.11052882615431       -1.15815883542706
C           -4.13847733886213       -3.19245142222378       -1.72344941121315
C           -5.51991919345786       -3.25460417814852       -1.71631944870826
C           -6.23960159185316       -2.21760845499731       -1.15248607048487
C           -5.62011078744059       -1.11638379302252       -0.57760815491255
H           -6.72192530371990       -0.98057307539403        1.91521664115619
H           -7.98883520995693        0.19061466236513        1.54938999074979
H           -7.98311363910740       -1.37653866551221        0.74729606307857
H           -7.98740566686697       -0.18969079750747       -1.55126844676176
H           -6.71957012385331        0.98087959620372       -1.91586717599719
H           -7.98167772509230        1.37749298280518       -0.74915612770851
H           -7.31759626831162        2.27270624171804        1.16553052150270
H           -6.03409499271176        4.09665720928294        2.15365115408467
H           -3.55618657380001        3.98266864315229        2.17362841492553
H           -2.41893170359534        2.06353759713927        1.18052609090685
H           -1.97973571016875        1.40859779373163       -1.60088860290083
H            0.48446136844099        1.40496103518910       -1.61133330240569
H            2.32145651087608        2.12331956343868       -0.24292350061690
H            6.70896113471681        1.48226664653436        0.69365669589176
H            8.15992339883966        3.47814615783993        0.43229693612648
H            5.03348638206557        5.43276524480405       -1.74185139991217
H            3.60913834291392        3.44974752949885       -1.48768876495866
H            3.60848996265108       -3.44933301648170        1.48662308819713
H            5.03271985589725       -5.43227426083675        1.74192652589087
H            8.15994779581622       -3.47838021070423       -0.43173970102478
H            6.70909671441767       -1.48257109176123       -0.69426535407705
H            2.32127225429698       -2.12306272909795        0.24161161772200
H            0.48527263217864       -1.40456118989456        1.61073284293581
H           -1.97891822882726       -1.40860580605058        1.60123237697625
H           -2.41889375974773       -2.06456412255244       -1.17872785441049
H           -3.55615824097655       -3.98381583023604       -2.17154042996969
H           -6.03410099014558       -4.09725342000600       -2.15254738054288
H           -7.31760106312305       -2.27267841865847       -1.16558023753221

          :  Hamiltonian                  GFN2-xTB          :
         :: gradient norm              0.000056244480 Eh/a0 ::
         :: HOMO-LUMO gap              1.518953097786 eV    ::
         :: SCC energy              -113.708713930097 Eh    ::
         :: -> dispersion             -0.096273741072 Eh    ::
         :: repulsion energy           2.132849344181 Eh    ::

    * Orbital Energies and Occupations

         #    Occupation            Energy/Eh            Energy/eV
      -------------------------------------------------------------
         1        2.0000           -0.6828756             -18.5820
       ...           ...                  ...                  ...
        92        2.0000           -0.4303364             -11.7101
        93        2.0000           -0.4248828             -11.5616
        94        2.0000           -0.4246644             -11.5557
        95        2.0000           -0.4228131             -11.5053
        96        2.0000           -0.4182801             -11.3820
        97        2.0000           -0.4105324             -11.1712
        98        2.0000           -0.4103731             -11.1668
        99        2.0000           -0.4089559             -11.1283
       100        2.0000           -0.4064755             -11.0608
       101        2.0000           -0.4010284             -10.9125
       102        2.0000           -0.3957420             -10.7687
       103        2.0000           -0.3858727             -10.5001
       104        2.0000           -0.3501760              -9.5288 (HOMO)
       105                         -0.2943555              -8.0098 (LUMO)
       106                         -0.2943154              -8.0087
       107                         -0.2705184              -7.3612
       108                         -0.2493575              -6.7854
       109                         -0.2491892              -6.7808
       110                         -0.2487459              -6.7687
       111                         -0.2398393              -6.5264
       112                         -0.2305652              -6.2740
       113                         -0.2272052              -6.1826
       114                         -0.2221336              -6.0446
       115                         -0.2211968              -6.0191
       ...                                ...                  ...
       204                          1.1674453              31.7678
      -------------------------------------------------------------
                  HL-Gap            0.0558205 Eh            1.5190 eV

     #   Z          covCN         q      C6AA      α(0)
     1   6 C        3.761    -0.103    22.512     6.764
     2   6 C        3.909     0.021    20.156     6.381
     3   6 C        3.761    -0.103    22.512     6.764
     4   6 C        2.979    -0.014    28.353     8.734
     5   6 C        2.928    -0.036    28.893     8.815
     6   6 C        2.917    -0.044    29.103     8.846
     7   6 C        2.920    -0.033    28.824     8.804
     8   6 C        2.924    -0.059    29.475     8.903
     9   6 C        2.928     0.058    26.703     8.474
    10   7 N        2.754    -0.072    22.641     7.067
    11   6 C        2.928     0.073    26.372     8.422
    12   6 C        2.920    -0.037    28.926     8.820
    13   6 C        2.924    -0.031    28.777     8.797
    14   6 C        2.977     0.006    27.888     8.662
    15   6 C        2.981     0.026    27.418     8.589
    16   6 C        2.922    -0.051    29.257     8.870
    17   6 C        2.951     0.094    25.918     8.350
    18   6 C        2.981     0.014    27.696     8.633
    19   6 C        2.925    -0.024    28.595     8.769
    20   6 C        2.924    -0.019    28.482     8.752
    21   6 C        2.974     0.021    27.532     8.607
    22   6 C        1.912     0.112    28.333     8.596
    23   7 N        0.911    -0.230    26.035     7.380
    24   6 C        2.925    -0.020    28.514     8.757
    25   6 C        2.922    -0.030    28.745     8.792
    26   7 N        1.856    -0.244    27.211     7.732
    27   6 C        2.951     0.094    25.918     8.350
    28   6 C        2.981     0.014    27.696     8.633
    29   6 C        2.922    -0.030    28.745     8.792
    30   6 C        2.925    -0.020    28.514     8.757
    31   6 C        2.974     0.021    27.532     8.607
    32   6 C        1.912     0.112    28.333     8.596
    33   7 N        0.911    -0.230    26.035     7.380
    34   6 C        2.924    -0.019    28.482     8.752
    35   6 C        2.925    -0.024    28.595     8.769
    36   6 C        2.922    -0.051    29.257     8.870
    37   6 C        2.924    -0.031    28.777     8.797
    38   6 C        2.920    -0.037    28.926     8.820
    39   6 C        2.928     0.058    26.703     8.474
    40   6 C        2.924    -0.059    29.475     8.903
    41   6 C        2.920    -0.033    28.824     8.804
    42   6 C        2.917    -0.044    29.103     8.846
    43   6 C        2.928    -0.036    28.893     8.815
    44   6 C        2.979    -0.014    28.353     8.734
    45   1 H        0.925     0.031     2.573     2.508
    46   1 H        0.925     0.039     2.457     2.451
    47   1 H        0.925     0.039     2.456     2.451
    48   1 H        0.925     0.039     2.457     2.451
    49   1 H        0.925     0.031     2.573     2.508
    50   1 H        0.925     0.039     2.456     2.451
    51   1 H        0.926     0.030     2.580     2.512
    52   1 H        0.926     0.027     2.635     2.538
    53   1 H        0.926     0.027     2.635     2.538
    54   1 H        0.926     0.021     2.720     2.579
    55   1 H        0.926     0.045     2.383     2.414
    56   1 H        0.926     0.039     2.465     2.455
    57   1 H        0.926     0.038     2.471     2.458
    58   1 H        0.926     0.061     2.189     2.313
    59   1 H        0.926     0.046     2.366     2.405
    60   1 H        0.926     0.044     2.393     2.419
    61   1 H        0.926     0.039     2.457     2.451
    62   1 H        0.926     0.039     2.457     2.451
    63   1 H        0.926     0.044     2.393     2.419
    64   1 H        0.926     0.046     2.366     2.405
    65   1 H        0.926     0.061     2.189     2.313
    66   1 H        0.926     0.038     2.471     2.458
    67   1 H        0.926     0.039     2.465     2.455
    68   1 H        0.926     0.045     2.383     2.414
    69   1 H        0.926     0.021     2.720     2.579
    70   1 H        0.926     0.027     2.635     2.538
    71   1 H        0.926     0.027     2.635     2.538
    72   1 H        0.926     0.030     2.580     2.512

molecular dipole:
                 x           y           z       tot (Debye)
 q only:       -1.622       0.000      -0.001
   full:       -2.539       0.000      -0.001       6.453

 projected vibrational frequencies (cm⁻¹)
eigval :       -0.00    -0.00     0.00     0.00     0.00     0.00
eigval :        6.47    13.16    15.50    27.73    28.47    31.92
eigval :       37.40    40.18    44.11    57.34    64.46    78.65
eigval :       97.97    99.47   108.43   114.27   128.34   130.97
eigval :      133.15   146.77   168.38   189.97   198.72   208.57
eigval :      218.22   224.34   234.32   245.99   251.34   264.37
eigval :      288.82   302.51   322.72   331.28   345.13   346.73
eigval :      362.61   363.33   373.65   376.72   378.64   403.20
eigval :      409.23   409.51   425.54   429.48   451.13   487.08
eigval :      493.29   510.73   515.32   524.45   528.70   532.73
eigval :      537.78   537.92   547.44   550.58   554.38   578.16
eigval :      590.44   601.57   601.59   614.01   619.35   620.97
eigval :      627.79   666.71   682.47   682.85   693.43   700.76
eigval :      705.31   718.12   729.80   737.71   776.49   776.57
eigval :      777.69   805.96   819.52   820.05   827.13   842.06
eigval :      842.43   865.44   866.03   867.59   868.99   869.72
eigval :      870.04   882.56   913.01   913.90   914.39   915.83
eigval :      915.94   920.29   921.13   921.37   924.01   925.60
eigval :      928.00   929.10   939.17   957.32   987.92  1011.97
eigval :     1014.37  1014.39  1017.93  1077.30  1081.37  1087.01
eigval :     1110.01  1114.13  1120.00  1125.94  1134.28  1135.32
eigval :     1141.16  1146.72  1160.59  1172.71  1186.22  1187.55
eigval :     1187.61  1187.76  1188.25  1208.04  1219.67  1225.59
eigval :     1240.69  1246.49  1249.20  1250.37  1263.98  1264.86
eigval :     1265.27  1269.55  1292.69  1294.95  1308.56  1317.34
eigval :     1319.99  1320.84  1326.17  1335.36  1343.77  1362.46
eigval :     1383.71  1387.08  1398.79  1402.94  1408.75  1421.32
eigval :     1428.75  1436.94  1443.97  1480.30  1480.48  1481.27
eigval :     1489.02  1490.09  1490.91  1499.60  1500.62  1505.47
eigval :     1533.04  1551.60  1554.18  1562.57  1562.61  1576.17
eigval :     1589.09  1589.76  1590.58  1593.49  1595.44  1603.42
eigval :     2373.91  2374.79  3026.08  3028.26  3039.85  3042.57
eigval :     3048.69  3052.73  3078.03  3078.13  3080.70  3082.34
eigval :     3083.21  3083.40  3084.09  3084.15  3089.48  3089.61
eigval :     3093.05  3093.35  3094.36  3094.60  3094.84  3095.49
eigval :     3098.87  3099.55  3099.80  3100.24  3107.45  3108.11

   temp. (K)  partition function   enthalpy   heat capacity  entropy
                                   cal/mol     cal/K/mol   cal/K/mol   J/K/mol
 298.15  VIB  0.423E+18            21668.510    132.422    136.163
         ROT  0.511E+08              888.752      2.981     38.253
         INT  0.216E+26            22557.262    135.403    174.416
         TR   0.130E+29             1481.254      4.968     44.858
         TOT                       24038.5161   140.3709   219.2739   917.4420

       T/K    H(0)-H(T)+PV         H(T)/Eh          T*S/Eh         G(T)/Eh
   ------------------------------------------------------------------------
    298.15    0.383078E-01    0.590276E+00    0.104184E+00    0.486092E+00
   ------------------------------------------------------------------------

         :::::::::::::::::::::::::::::::::::::::::::::::::::::
         ::                  THERMODYNAMIC                  ::
         :::::::::::::::::::::::::::::::::::::::::::::::::::::
         :: total free energy        -111.089772802686 Eh   ::
         ::.................................................::
         :: total energy             -111.575864585856 Eh   ::
         :: zero point energy           0.551968076069 Eh   ::
         :: G(RRHO) w/o ZPVE           -0.065876292898 Eh   ::
         :: G(RRHO) contrib.            0.486091783171 Eh   ::
         :::::::::::::::::::::::::::::::::::::::::::::::::::::

           -------------------------------------------------
          | TOTAL ENERGY             -111.575864585856 Eh   |
          | TOTAL ENTHALPY           -110.985588695981 Eh   |
          | TOTAL FREE ENERGY        -111.089772802686 Eh   |
          | GRADIENT NORM               0.000056046573 Eh/α |
          | HOMO-LUMO GAP               1.518953079272 eV   |
           -------------------------------------------------

 * finished run on 2025/09/05 at 01:38:38.277
