   * xtb version 6.7.1 (edcfbbe) compiled by 'albert@albert-system' on 2024-07-22

   ID    Z sym.   atoms
    1    6 C      1-9, 11-22, 24, 25, 27-32, 34-44
    2    7 N      10, 23, 26, 33
    3    1 H      45-72

          program call               : xtb data2507/gas/PyDCN–DMAC/PyDCN–DMAC_gas_T1_crest.xyz --gfn 2 --spinpol --tblite --uhf 2 --ohess vtight --parallel 40 --molden --ceasefiles --namespace data2507/gas/PyDCN–DMAC/PyDCN–DMAC_gas_T1_finalOpt
 * total energy  :  -111.4952469 Eh     change       -0.4108790E-07 Eh
 * total energy  :  -111.4953437 Eh     change       -0.9688441E-04 Eh
 * total energy  :  -111.4953358 Eh     change        0.7898546E-05 Eh
 * total energy  :  -111.4953608 Eh     change       -0.2500183E-04 Eh
 * total energy  :  -111.4953681 Eh     change       -0.7259927E-05 Eh
 * total energy  :  -111.4953687 Eh     change       -0.6354724E-06 Eh
 * total energy  :  -111.4953712 Eh     change       -0.2431604E-05 Eh
 * total energy  :  -111.4953722 Eh     change       -0.1030793E-05 Eh
 * total energy  :  -111.4953739 Eh     change       -0.1669984E-05 Eh
 * total energy  :  -111.4953789 Eh     change       -0.5009685E-05 Eh
 * total energy  :  -111.4953908 Eh     change        0.2964710E-06 Eh
 * total energy  :  -111.4953911 Eh     change       -0.3506962E-06 Eh
 * total energy  :  -111.4953917 Eh     change       -0.6430749E-06 Eh
 * total energy  :  -111.4953922 Eh     change       -0.4609588E-06 Eh
 * total energy  :  -111.4953922 Eh     change        0.6427740E-08 Eh
 * total energy  :  -111.4953924 Eh     change       -0.1912990E-06 Eh
 * total energy  :  -111.4953923 Eh     change        0.6734156E-07 Eh
 * total energy  :  -111.4953926 Eh     change       -0.2584712E-06 Eh
 * total energy  :  -111.4953926 Eh     change       -0.8748259E-08 Eh
   *** GEOMETRY OPTIMIZATION CONVERGED AFTER 26 ITERATIONS ***

 final structure:
================
72
 xtb: 6.7.1 (edcfbbe)
C           -8.13072570273126       -1.08887073660738       -0.60276768503371
C           -7.24358047435968        0.00787120729786        0.01687040172967
C           -8.11979293224546        1.10913742002481        0.64401900877893
C           -6.39401501295875       -0.61480612481286        1.10416908588239
C           -7.00410645991704       -1.22946275678906        2.18869663052566
C           -6.27179299131951       -1.81989086613908        3.20231850076579
C           -4.88663668749687       -1.80845396213518        3.14147375742335
C           -4.25308039438523       -1.20607335528518        2.07875276956045
C           -4.99156497099265       -0.59844400172716        1.05308432791732
N           -4.32773645750020        0.00109730656504        0.00485972921905
C           -2.90167806700306        0.00037551354024        0.00066255524553
C           -2.19931623946160        0.98126038901978        0.69653784813251
C           -0.82375702516887        0.97995927676574        0.69042784958362
C           -0.09659729405502       -0.00062333941861       -0.00613986735171
C            1.35162955693580       -0.00108691328470       -0.00884022295139
C            2.08317976833102        1.19082543019473        0.14787138520817
C            3.46651693605932        1.17694893457070        0.13853513096402
C            4.29004530860138        2.36459165104238        0.24650197367486
C            5.67055093802415        2.25126968943193        0.00595355840238
C            6.50324880095006        3.33798023132114        0.09631643455073
C            5.98166020261428        4.59207015327879        0.43889857001966
C            6.82499609569096        5.71356165868871        0.53646114439864
N            7.51119336111525        6.63204125898943        0.61455952607157
C            4.60887571852108        4.71917740559009        0.68724678108809
C            3.78262036607816        3.62557589006811        0.59168573696308
N            4.09637616527091       -0.00163830451006       -0.00992466468211
C            3.46583354424638       -1.17979153929601       -0.15801692973903
C            4.28887253743484       -2.36808266406136       -0.26399339100187
C            5.66794768609554       -2.25672133797577       -0.01485259421273
C            6.49974766970164       -3.34448748843560       -0.10097981142269
C            5.97862906684373       -4.59748425482674       -0.44812445838796
C            6.82100665329925       -5.72019387110644       -0.54005578859156
N            7.50647150607529       -6.63955008677981       -0.61412228154556
C            4.60742740141044       -4.72238899558743       -0.70598972680177
C            3.78200495505519       -3.62776527195665       -0.61444598686105
C            2.08251218322559       -1.19336746826202       -0.16682960074285
C           -0.82778161653641       -0.98063195219252       -0.69925524044748
C           -2.20342614372771       -0.98094287433001       -0.69870688732557
C           -4.99736672609513        0.60348113834485       -1.03801899142895
C           -4.26454018739904        1.20760840406531       -2.06978973365147
C           -4.90402801109094        1.81303013333174       -3.12721914647963
C           -6.28957202559278        1.83104373498925       -3.17656785742930
C           -7.01624667841196        1.24391356078547       -2.15698845976647
C           -6.40010365734842        0.62628807626444       -1.07758167087721
H           -7.50819638369637       -1.86485129038487       -1.04401100325036
H           -8.76482821162933       -1.54523976499868        0.15166134198901
H           -8.76837538551787       -0.67717615913371       -1.37957877405341
H           -8.75282072609135        0.70071641235177        1.42632084885279
H           -8.75801993294079        1.56870393983280       -0.10497311306905
H           -7.48956476402689        1.88196317461376        1.07984254591422
H           -8.08117579800104       -1.25232054503205        2.25009711749945
H           -6.77821682475139       -2.28829917317320        4.03183674848879
H           -4.30178437559308       -2.27007484759759        3.92200182161566
H           -3.17577079430778       -1.20005359630205        2.02881726230122
H           -2.74594778759743        1.73585606656997        1.24342889257049
H           -0.29874439043648        1.73170806686379        1.25898461133203
H            1.56840930743221        2.13490273489247        0.21123948842572
H            6.06425607600565        1.28186886841512       -0.26160961539916
H            7.56208679015556        3.23792424652223       -0.09371481519556
H            4.20861459672364        5.68587779428818        0.95710238669598
H            2.73091569316097        3.75096563553718        0.79943009875994
H            6.06125227323668       -1.28817752338172        0.25636294064287
H            7.55745059945114       -3.24610652096711        0.09611965691913
H            4.20770397621541       -5.68820109261352       -0.97979992139262
H            2.73156028210071       -3.75115228985350       -0.82969968138436
H            1.56743887622915       -2.13733388671902       -0.22957914381891
H           -0.30599122411601       -1.73289290690289       -1.27011696607211
H           -2.75322622408561       -1.73523266190166       -1.24283912877462
H           -3.18689391611889        1.19649733735654       -2.02875777327479
H           -4.32349318074274        2.27195211621543       -3.91254804188324
H           -6.80063487633414        2.30202367820424       -4.00177406833190
H           -8.09366823630429        1.27194046274794       -2.20941601848016

 projected vibrational frequencies (cm⁻¹)
eigval :       -0.00    -0.00    -0.00    -0.00     0.00     0.00
eigval :       -1.81    11.60    16.59    20.78    21.50    29.28
eigval :       36.37    38.04    41.98    62.64    63.69    78.41
eigval :       94.17    99.42   111.51   114.53   117.87   128.36
eigval :      138.97   146.64   167.57   189.86   192.69   208.42
eigval :      216.16   224.21   225.74   232.36   242.26   254.75
eigval :      294.29   301.60   326.14   329.52   339.79   358.87
eigval :      362.96   364.43   372.48   373.58   381.19   392.47
eigval :      393.29   408.68   412.64   426.14   448.36   475.19
eigval :      501.54   504.72   511.96   512.20   514.91   515.83
eigval :      524.25   535.87   542.62   543.80   548.19   551.09
eigval :      555.88   579.26   590.25   606.80   613.91   614.70
eigval :      615.10   616.33   663.52   670.65   671.04   682.63
eigval :      687.18   701.00   725.74   729.07   768.07   773.76
eigval :      775.39   781.18   787.22   802.77   804.28   806.39
eigval :      826.12   835.78   847.47   848.24   851.92   860.12
eigval :      869.43   869.74   900.00   902.41   902.66   911.39
eigval :      912.92   913.35   914.30   914.80   915.84   916.44
eigval :      923.01   923.37   937.09   945.72   958.21   991.55
eigval :     1001.09  1006.66  1013.04  1058.03  1075.02  1076.80
eigval :     1086.28  1106.67  1112.60  1120.72  1130.64  1135.87
eigval :     1136.60  1138.22  1150.43  1159.67  1167.56  1182.76
eigval :     1183.39  1184.21  1188.58  1199.56  1212.50  1232.30
eigval :     1237.79  1239.91  1241.84  1245.01  1257.84  1261.93
eigval :     1267.44  1268.96  1289.90  1293.92  1309.68  1315.18
eigval :     1317.32  1319.03  1324.83  1330.24  1335.57  1344.95
eigval :     1351.68  1383.08  1385.14  1402.09  1412.22  1412.76
eigval :     1419.77  1420.16  1422.35  1430.12  1456.61  1460.74
eigval :     1471.01  1471.16  1476.83  1486.04  1487.14  1487.74
eigval :     1497.36  1500.42  1505.95  1510.27  1512.14  1554.09
eigval :     1568.08  1570.34  1575.01  1578.95  1590.81  1593.71
eigval :     2340.01  2347.45  3030.47  3032.02  3046.46  3048.88
eigval :     3054.80  3058.46  3078.14  3078.30  3078.73  3079.74
eigval :     3079.75  3080.60  3088.62  3088.78  3089.49  3090.58
eigval :     3091.12  3091.68  3093.79  3093.93  3096.36  3098.25
eigval :     3103.19  3103.35  3107.40  3107.98  3110.67  3110.76

   temp. (K)  partition function   enthalpy   heat capacity  entropy
                                   cal/mol     cal/K/mol   cal/K/mol   J/K/mol
 298.15  VIB  0.436E+19            21987.366    134.153    139.473
         ROT  0.514E+08              888.752      2.981     38.264
         INT  0.224E+27            22876.118    137.134    177.737
         TR   0.130E+29             1481.254      4.968     44.858
         TOT                       24357.3719   142.1021   222.5948   931.3366

       T/K    H(0)-H(T)+PV         H(T)/Eh          T*S/Eh         G(T)/Eh
   ------------------------------------------------------------------------
    298.15    0.388159E-01    0.586635E+00    0.105762E+00    0.480873E+00
   ------------------------------------------------------------------------

         :::::::::::::::::::::::::::::::::::::::::::::::::::::
         ::                  THERMODYNAMIC                  ::
         :::::::::::::::::::::::::::::::::::::::::::::::::::::
         :: total free energy        -111.014519315278 Eh   ::
         ::.................................................::
         :: total energy             -111.495392604836 Eh   ::
         :: zero point energy           0.547819314064 Eh   ::
         :: G(RRHO) w/o ZPVE           -0.066946024505 Eh   ::
         :: G(RRHO) contrib.            0.480873289559 Eh   ::
         :::::::::::::::::::::::::::::::::::::::::::::::::::::

           -------------------------------------------------
          | TOTAL ENERGY             -111.495392604836 Eh   |
          | TOTAL ENTHALPY           -110.908757347982 Eh   |
          | TOTAL FREE ENERGY        -111.014519315278 Eh   |
          | GRADIENT NORM               0.000153833405 Eh/α |
           -------------------------------------------------

 * finished run on 2025/09/05 at 01:48:00.485
