   * xtb version 6.7.1 (edcfbbe) compiled by 'albert@albert-system' on 2024-07-22

   ID    Z sym.   atoms
    1    6 C      1-9, 11-22, 24, 25, 27-32, 34-44
    2    7 N      10, 23, 26, 33
    3    1 H      45-72

          program call               : xtb data2507/gas/PyDCN–DMAC/PyDCN–DMAC_gas_S0_finalOpt.xtbopt.xyz --gfn 2 --spinpol --tblite --uhf 2 --ohess vtight --parallel 40 --molden --ceasefiles --namespace data2507/gas/PyDCN–DMAC/PyDCN–DMAC_gas_T1_preOpt
 * total energy  :  -111.4890533 Eh     change        0.2346030E-07 Eh
 * total energy  :  -111.4923162 Eh     change       -0.3262983E-02 Eh
 * total energy  :  -111.4932136 Eh     change       -0.8973500E-03 Eh
 * total energy  :  -111.4933957 Eh     change       -0.1820883E-03 Eh
 * total energy  :  -111.4937064 Eh     change       -0.3107348E-03 Eh
 * total energy  :  -111.4939805 Eh     change       -0.2740366E-03 Eh
 * total energy  :  -111.4943343 Eh     change       -0.3538769E-03 Eh
 * total energy  :  -111.4946920 Eh     change       -0.3576875E-03 Eh
 * total energy  :  -111.4949248 Eh     change       -0.2327782E-03 Eh
 * total energy  :  -111.4950369 Eh     change       -0.1121414E-03 Eh
 * total energy  :  -111.4953891 Eh     change       -0.7898502E-06 Eh
 * total energy  :  -111.4953898 Eh     change       -0.6524938E-06 Eh
 * total energy  :  -111.4953904 Eh     change       -0.5989702E-06 Eh
 * total energy  :  -111.4953909 Eh     change       -0.4501733E-06 Eh
 * total energy  :  -111.4953919 Eh     change       -0.1003472E-05 Eh
 * total energy  :  -111.4953920 Eh     change       -0.1661902E-06 Eh
 * total energy  :  -111.4953921 Eh     change       -0.4638049E-07 Eh
 * total energy  :  -111.4953920 Eh     change        0.4073293E-07 Eh
 * total energy  :  -111.4953921 Eh     change       -0.5977360E-07 Eh
   *** GEOMETRY OPTIMIZATION CONVERGED AFTER 45 ITERATIONS ***

 final structure:
================
72
 xtb: 6.7.1 (edcfbbe)
C           -8.12246155269178       -0.97814805873803        0.80699816139473
C           -7.24049776231743       -0.02700490173849       -0.02444477592852
C           -8.12188153246217        0.91832842718453       -0.86313007013724
C           -6.40059208209196        0.80415285023375        0.92182138461310
C           -7.02013866280098        1.62332239819191        1.85526859917230
C           -6.29667398620001        2.39447187284027        2.74648108305834
C           -4.91100842946379        2.35248425076824        2.71950226883456
C           -4.26817872749536        1.55034758816155        1.80466043745362
C           -4.99772430156854        0.77290702242574        0.89365923567268
N           -4.32473244875453       -0.01610657969135       -0.01360376141059
C           -2.89858267874601       -0.00997602992674       -0.00905784468993
C           -2.20036066707076        0.96275239617547       -0.72032937420340
C           -0.82473756788417        0.96752929623671       -0.71406537426075
C           -0.09371820665524        0.00210395586180       -0.00065494807401
C            1.35483663955810        0.00849542679787        0.00363415147434
C            2.08093303115073        1.20290404051922       -0.15782244860829
C            3.46408025617723        1.19600915083041       -0.14230848763208
C            4.28297150684301        2.38187295584563       -0.29692804886519
C            5.66564988893350        2.22307253852128       -0.49519913359119
C            6.49334246495488        3.30536797569049       -0.65704176477159
C            5.96425342379984        4.60177484003326       -0.62173806787828
C            6.80206549248475        5.71954938132667       -0.78657326148629
N            7.48333277351021        6.63503420189977       -0.92202828137730
C            4.58932028628739        4.77581609111513       -0.41782902417348
C            3.76813305562876        3.68568654769674       -0.25901651304254
N            4.09899372149529        0.02093419596960        0.01089437220266
C            3.47395328817725       -1.15992736261860        0.16102665909246
C            4.30295694048311       -2.33809811104133        0.31967969443336
C            3.80009274672677       -3.64665179865654        0.28365351507188
C            4.63089166765362       -4.72892447231657        0.44607582583283
C            6.00386059948471       -4.54203027544573        0.65184937978607
C            6.85157104849851       -5.65179009617644        0.82009488089430
N            7.54113858955289       -6.56057814058333        0.95863474258150
C            6.52104763361670       -3.24077998312474        0.68555917705017
C            5.68381676087610       -2.16642123221025        0.52018969940154
C            2.09080476850589       -1.17920731154094        0.16920454567987
C           -0.82063798372459       -0.96961302841067        0.70837646286927
C           -2.19628161180705       -0.97667747016717        0.70640722802716
C           -4.98504322155236       -0.81048803026020       -0.92549821545031
C           -4.24296731671368       -1.58262540007060       -1.83087226652391
C           -4.87296736989978       -2.38992921908311       -2.75008134612840
C           -6.25803761095321       -2.44243294177684       -2.78720695657248
C           -6.99384338722122       -1.67647747598097       -1.90163750982639
C           -6.38738961233082       -0.85240446607361       -0.96391747422270
H           -7.49630655042717       -1.64395678953423        1.39777181837299
H           -8.76280414167977       -0.41939945184216        1.48321882957922
H           -8.75366590854571       -1.58260726580588        0.16223194982867
H           -8.75292013506485        0.35535133362603       -1.54457786163561
H           -7.49530834733928        1.58827121557892       -1.44876900859795
H           -8.76229900407123        1.51860187497661       -0.22355019712828
H           -8.09769966609595        1.66495644319864        1.89389963265540
H           -6.81033185898153        3.02108822702259        3.45885371069436
H           -4.33311554968346        2.94429076561624        3.41244757106880
H           -3.19047897451439        1.51396704759156        1.78539844584077
H           -2.75004811697801        1.70539572235686       -1.28033844119613
H           -0.30284099473727        1.71059307049903       -1.29682978331639
H            1.56179909896548        2.14036209212691       -0.26616118711303
H            6.06486274229357        1.22014559997193       -0.52820471099994
H            7.55382276777239        3.16934893962601       -0.81244065720706
H            4.18340672607658        5.77660752404014       -0.38322820483619
H            2.71508589679776        3.85047507439272       -0.08864788721671
H            2.74884395696796       -3.82143743228842        0.11215557966175
H            4.23412670845111       -5.73343249056316        0.41299394529690
H            7.57997067205690       -3.09479668146623        0.84253815529706
H            6.07378840204001       -1.15981234256905        0.55186486153810
H            1.57954397890143       -2.12132709811429        0.27458168835333
H           -0.29583206691540       -1.70822490148410        1.29418695506611
H           -2.74289794558225       -1.72407244102120        1.26309143813194
H           -3.16574763727008       -1.53803404258984       -1.80378636670373
H           -4.28552634758468       -2.97755069571257       -3.43854445130926
H           -6.76168804970818       -3.07313983749721       -3.50310549902892
H           -8.07074611429174       -1.72615789008358       -1.94827266710744

 projected vibrational frequencies (cm⁻¹)
eigval :       -0.00    -0.00    -0.00     0.00     0.00     0.00
eigval :       -3.46    11.69    15.05    20.01    22.33    28.26
eigval :       38.21    40.07    41.70    60.23    61.74    80.90
eigval :       94.18   100.58   107.06   112.99   119.77   128.33
eigval :      141.44   142.51   164.56   190.07   192.34   210.68
eigval :      216.23   223.13   225.30   228.89   244.18   258.75
eigval :      295.72   301.28   322.88   326.05   340.88   356.15
eigval :      363.56   364.52   375.01   376.67   379.79   389.21
eigval :      393.60   411.03   413.97   426.17   448.26   474.71
eigval :      501.76   504.72   511.45   511.98   514.32   515.49
eigval :      524.07   535.96   542.59   543.14   546.90   548.12
eigval :      555.78   579.59   590.86   604.19   614.39   614.98
eigval :      616.06   617.13   663.54   669.70   671.00   682.49
eigval :      687.21   701.03   725.52   729.08   768.20   773.87
eigval :      775.58   778.65   784.12   802.07   804.86   805.44
eigval :      826.08   835.58   847.39   848.41   851.01   859.99
eigval :      869.59   869.96   899.89   902.16   902.52   911.72
eigval :      913.11   913.27   914.18   914.51   915.72   916.31
eigval :      923.13   923.43   937.11   944.72   958.12   992.69
eigval :     1001.17  1007.16  1012.86  1057.95  1074.95  1077.51
eigval :     1086.62  1106.46  1112.33  1120.56  1135.10  1135.71
eigval :     1136.24  1138.13  1150.36  1162.81  1167.81  1179.99
eigval :     1183.13  1183.98  1188.83  1199.06  1211.60  1233.35
eigval :     1238.15  1239.41  1241.58  1244.63  1258.56  1262.18
eigval :     1267.04  1269.35  1291.42  1293.75  1309.67  1315.64
eigval :     1317.22  1318.48  1324.58  1330.23  1335.66  1345.06
eigval :     1351.25  1383.36  1385.35  1402.07  1412.21  1412.56
eigval :     1419.78  1420.03  1422.30  1429.71  1456.55  1461.03
eigval :     1471.08  1471.95  1476.84  1486.10  1486.55  1489.56
eigval :     1496.72  1500.51  1505.82  1510.36  1512.15  1554.02
eigval :     1567.86  1570.82  1575.84  1578.85  1590.50  1594.25
eigval :     2340.40  2347.69  3030.42  3031.97  3046.36  3048.75
eigval :     3054.44  3058.07  3077.81  3077.98  3078.31  3079.20
eigval :     3079.50  3080.12  3088.71  3088.83  3089.34  3090.29
eigval :     3090.73  3091.37  3093.66  3093.81  3095.74  3097.73
eigval :     3103.30  3103.34  3108.57  3108.74  3110.31  3110.50

   temp. (K)  partition function   enthalpy   heat capacity  entropy
                                   cal/mol     cal/K/mol   cal/K/mol   J/K/mol
 298.15  VIB  0.256E+19            21997.546    134.189    139.048
         ROT  0.513E+08              888.752      2.981     38.262
         INT  0.131E+27            22886.299    137.170    177.310
         TR   0.130E+29             1481.254      4.968     44.858
         TOT                       24367.5524   142.1380   222.1681   929.5513

       T/K    H(0)-H(T)+PV         H(T)/Eh          T*S/Eh         G(T)/Eh
   ------------------------------------------------------------------------
    298.15    0.388322E-01    0.586615E+00    0.105559E+00    0.481056E+00
   ------------------------------------------------------------------------

         :::::::::::::::::::::::::::::::::::::::::::::::::::::
         ::                  THERMODYNAMIC                  ::
         :::::::::::::::::::::::::::::::::::::::::::::::::::::
         :: total free energy        -111.014336530796 Eh   ::
         ::.................................................::
         :: total energy             -111.495392100165 Eh   ::
         :: zero point energy           0.547782631051 Eh   ::
         :: G(RRHO) w/o ZPVE           -0.066727061683 Eh   ::
         :: G(RRHO) contrib.            0.481055569368 Eh   ::
         :::::::::::::::::::::::::::::::::::::::::::::::::::::

           -------------------------------------------------
          | TOTAL ENERGY             -111.495392100165 Eh   |
          | TOTAL ENTHALPY           -110.908777302538 Eh   |
          | TOTAL FREE ENERGY        -111.014336530796 Eh   |
          | GRADIENT NORM               0.000070239987 Eh/α |
           -------------------------------------------------

 * finished run on 2025/09/05 at 01:42:33.686
