   * xtb version 6.7.1 (edcfbbe) compiled by 'albert@albert-system' on 2024-07-22

   ID    Z sym.   atoms
    1    7 N      1, 7, 17, 34
    2    6 C      2-6, 8-16, 18-33, 35-50
    3    1 H      51-78

          program call               : xtb data2507/gas/CPBPMCN/CPBPMCN.xyz --gfn 2 --ohess vtight --parallel 40 --molden --ceasefiles --namespace data2507/gas/CPBPMCN/CPBPMCN_gas_S0_preOpt
          :  Hamiltonian                  GFN2-xTB          :
 * total energy  :  -124.4968635 Eh     change       -0.2514469E-08 Eh
 * total energy  :  -124.5112213 Eh     change       -0.1435783E-01 Eh
 * total energy  :  -124.5147094 Eh     change       -0.3488123E-02 Eh
 * total energy  :  -124.5157182 Eh     change       -0.1008836E-02 Eh
 * total energy  :  -124.5165612 Eh     change       -0.8429427E-03 Eh
 * total energy  :  -124.5170545 Eh     change       -0.4932904E-03 Eh
 * total energy  :  -124.5174506 Eh     change       -0.3961307E-03 Eh
 * total energy  :  -124.5178240 Eh     change       -0.3733967E-03 Eh
 * total energy  :  -124.5181293 Eh     change       -0.3053166E-03 Eh
 * total energy  :  -124.5184202 Eh     change       -0.2908485E-03 Eh
 * total energy  :  -124.5197275 Eh     change       -0.3567368E-06 Eh
 * total energy  :  -124.5197279 Eh     change       -0.3692117E-06 Eh
 * total energy  :  -124.5197282 Eh     change       -0.3756448E-06 Eh
 * total energy  :  -124.5197287 Eh     change       -0.4161393E-06 Eh
 * total energy  :  -124.5197291 Eh     change       -0.4609453E-06 Eh
 * total energy  :  -124.5197296 Eh     change       -0.5006535E-06 Eh
 * total energy  :  -124.5197302 Eh     change       -0.5330228E-06 Eh
 * total energy  :  -124.5197306 Eh     change       -0.4553045E-06 Eh
 * total energy  :  -124.5197306 Eh     change       -0.1682977E-08 Eh
   *** GEOMETRY OPTIMIZATION CONVERGED AFTER 68 ITERATIONS ***

 final structure:
================
78
 xtb: 6.7.1 (edcfbbe)
N           -1.96368340076053        6.63971273031187       -1.13320747165541
C           -2.33191709278760        5.56776249032697       -0.96277703023034
C           -2.78447677689241        4.24526096131097       -0.74982868859424
C           -2.40903669146640        3.22990180911760       -1.63070302835891
C           -2.84770859352357        1.93956791174928       -1.41807445157390
C           -3.66335455483323        1.65290734862365       -0.32561717738741
N           -4.06472105632377        0.33020109336863       -0.08958959485964
C           -3.20114434331860       -0.72603155334101        0.13442871159604
C           -1.75196036745249       -0.61802843180617        0.15053195674341
C           -1.00432646756148       -1.67832044725586       -0.36280195511091
C            0.37287133236803       -1.62697233574791       -0.36964299899901
C            1.04893618778869       -0.51797907208466        0.13898544726115
C            2.51512701606537       -0.45403227955326        0.12110124643823
C            3.17237515815474        0.74129874696581       -0.16675890367021
C            4.55032181215559        0.80587996600945       -0.19007432311344
C            5.30908649222946       -0.32750490549219        0.09119908443339
N            6.70703456197604       -0.26329945716660        0.07872499490993
C            7.55077021496274       -1.12922958477973       -0.58947382685209
C            7.24412397068808       -2.19669781199330       -1.42103968197274
C            8.29300384677099       -2.88978471742501       -1.99441205987495
C            9.61812086058318       -2.53057740627660       -1.75848637959947
C            9.92870966296280       -1.45421319993921       -0.95184659951823
C            8.89161563716088       -0.74193551324832       -0.36428279868517
C            8.84551776866744        0.41236264428891        0.48902442020298
C            9.82236601621848        1.21641722677990        1.06127753552991
C            9.42746289756288        2.26062561450958        1.87327374099771
C            8.07890961733434        2.49799658311196        2.12953662197275
C            7.08883904274533        1.71196990131249        1.57171059679721
C            7.47863207014091        0.67622164851525        0.73486965450888
C            4.66168366139442       -1.52477226526457        0.38628590020462
C            3.28334384706370       -1.58523188072676        0.39259093444578
C            0.29833021636948        0.52628734457745        0.67664523619120
C           -1.08038299298703        0.47817109463586        0.68950987066274
N           -3.84157788321493       -1.84377935804664        0.35263316321834
C           -5.16513282862561       -1.54246385421531        0.28246356309676
C           -6.26942209875658       -2.41401296825918        0.49398600626794
C           -6.07715358273105       -3.75944684529944        0.82451473912035
C           -7.15532804861569       -4.57423723415837        1.06322571237112
C           -8.44289536524252       -4.04798678201542        0.97796773505609
C           -8.64325240622403       -2.72823962581674        0.64713431543800
C           -7.56762455267685       -1.86568246714950        0.38514512831188
C           -7.74565955401722       -0.47803530399224       -0.00586685089204
C           -9.02019628784450        0.06983577060688       -0.20929940313465
C           -9.19932389894820        1.36636435315528       -0.62948454299056
C           -8.09713840595154        2.17476688518517       -0.88804282631987
C           -6.83159602066433        1.68003287346482       -0.69189086326092
C           -6.62718574054276        0.37184296532464       -0.22993987414331
C           -5.33916767371753       -0.19050787594352       -0.00480382037682
C           -4.03835813980826        2.66719096926448        0.55567400596337
C           -3.60405407836098        3.95849950863257        0.34410292593026
H           -1.77825303073014        3.46081250033932       -2.47583705455039
H           -2.56217998734214        1.14509948827823       -2.09086572309547
H           -1.52793875814093       -2.53484595645525       -0.75788862861238
H            0.93532991247441       -2.44506108166261       -0.79455779830987
H            2.59566911265605        1.62297581889789       -0.40499518505194
H            5.04843691293624        1.72991595505391       -0.44288521460252
H            6.22027201453582       -2.47166025826994       -1.62543448660539
H            8.08024860228769       -3.72659535071511       -2.64335523422407
H           10.40964738724093       -3.09939945393897       -2.22325013894325
H           10.95488841676531       -1.16507511031602       -0.78203771160479
H           10.86789261321663        1.02168124199597        0.87573162679777
H           10.17090582180040        2.89942943155862        2.32635414508040
H            7.80072342168154        3.31251338020692        2.78206118781496
H            6.04749920129036        1.89293285503938        1.79190338779718
H            5.24666465233552       -2.39955403498270        0.62797656802305
H            2.79350177578117       -2.51423053253610        0.64387226881973
H            0.80279231127407        1.37449999659213        1.11561474958169
H           -1.63197459000524        1.28520511933790        1.14873574181830
H           -5.06346662782988       -4.12270079295145        0.89129926000095
H           -7.01258169678395       -5.61316259846122        1.32095401464495
H           -9.29446899436307       -4.68347019890113        1.17372881862583
H           -9.65757362669735       -2.36559395903404        0.59665058694697
H           -9.89606411965850       -0.53664528174206       -0.04557820366628
H          -10.19708967094565        1.75290840131360       -0.77506984593783
H           -8.23447235092207        3.18415593217105       -1.24638657178438
H           -5.98114567507829        2.30392844891597       -0.91782800005628
H           -4.66853988755874        2.43060603825791        1.40034598937074
H           -3.88812512772660        4.74925773787910        1.02214335522646

          :  Hamiltonian                  GFN2-xTB          :
         :: gradient norm              0.000030833077 Eh/a0 ::
         :: HOMO-LUMO gap              1.929856656695 eV    ::
         :: SCC energy              -126.905470270600 Eh    ::
         :: -> dispersion             -0.111748904425 Eh    ::
         :: repulsion energy           2.385739658986 Eh    ::

    * Orbital Energies and Occupations

         #    Occupation            Energy/Eh            Energy/eV
      -------------------------------------------------------------
         1        2.0000           -0.6970593             -18.9679
       ...           ...                  ...                  ...
       104        2.0000           -0.4193560             -11.4113
       105        2.0000           -0.4180278             -11.3751
       106        2.0000           -0.4174296             -11.3588
       107        2.0000           -0.4158119             -11.3148
       108        2.0000           -0.4133406             -11.2476
       109        2.0000           -0.4055351             -11.0352
       110        2.0000           -0.4044217             -11.0049
       111        2.0000           -0.3988407             -10.8530
       112        2.0000           -0.3868846             -10.5277
       113        2.0000           -0.3844948             -10.4626
       114        2.0000           -0.3778263             -10.2812
       115        2.0000           -0.3705306             -10.0827
       116        2.0000           -0.3616587              -9.8412 (HOMO)
       117                         -0.2907378              -7.9114 (LUMO)
       118                         -0.2705869              -7.3630
       119                         -0.2623481              -7.1389
       120                         -0.2537022              -6.9036
       121                         -0.2523145              -6.8658
       122                         -0.2439851              -6.6392
       123                         -0.2356358              -6.4120
       124                         -0.2348561              -6.3908
       125                         -0.2309288              -6.2839
       126                         -0.2210627              -6.0154
       127                         -0.2171701              -5.9095
       ...                                ...                  ...
       228                          1.1611291              31.5959
      -------------------------------------------------------------
                  HL-Gap            0.0709209 Eh            1.9299 eV

     #   Z          covCN         q      C6AA      α(0)
     1   7 N        0.911    -0.225    25.913     7.362
     2   6 C        1.912     0.112    28.329     8.596
     3   6 C        2.973     0.019    27.574     8.613
     4   6 C        2.926    -0.018    28.451     8.747
     5   6 C        2.921    -0.035    28.883     8.813
     6   6 C        2.912     0.078    26.265     8.404
     7   7 N        2.841    -0.047    22.141     6.989
     8   6 C        3.187     0.128    24.769     8.120
     9   6 C        2.974    -0.000    28.030     8.684
    10   6 C        2.926    -0.028    28.693     8.784
    11   6 C        2.923    -0.032    28.806     8.802
    12   6 C        2.976     0.012    27.735     8.639
    13   6 C        2.976     0.006    27.879     8.661
    14   6 C        2.925    -0.033    28.825     8.805
    15   6 C        2.920    -0.043    29.072     8.842
    16   6 C        2.913     0.064    26.565     8.452
    17   7 N        2.802    -0.044    22.081     6.979
    18   6 C        3.075     0.047    26.879     8.500
    19   6 C        2.910    -0.051    29.265     8.871
    20   6 C        2.924    -0.033    28.833     8.806
    21   6 C        2.920    -0.041    29.012     8.833
    22   6 C        2.913    -0.033    28.815     8.802
    23   6 C        3.068    -0.017    28.357     8.732
    24   6 C        3.068    -0.017    28.357     8.732
    25   6 C        2.913    -0.033    28.814     8.802
    26   6 C        2.920    -0.041    29.009     8.832
    27   6 C        2.924    -0.033    28.830     8.805
    28   6 C        2.910    -0.051    29.262     8.870
    29   6 C        3.075     0.047    26.879     8.500
    30   6 C        2.920    -0.043    29.069     8.841
    31   6 C        2.924    -0.033    28.821     8.804
    32   6 C        2.924    -0.034    28.855     8.809
    33   6 C        2.920    -0.035    28.862     8.810
    34   7 N        1.895    -0.285    28.240     7.878
    35   6 C        3.207     0.058    26.112     8.322
    36   6 C        2.986     0.003    27.948     8.672
    37   6 C        2.922    -0.031    28.763     8.795
    38   6 C        2.917    -0.029    28.733     8.790
    39   6 C        2.918    -0.032    28.792     8.799
    40   6 C        2.922    -0.034    28.854     8.809
    41   6 C        2.979    -0.001    28.042     8.686
    42   6 C        2.980     0.003    27.956     8.673
    43   6 C        2.922    -0.033    28.821     8.804
    44   6 C        2.917    -0.032    28.803     8.801
    45   6 C        2.917    -0.031    28.776     8.797
    46   6 C        2.919    -0.040    28.993     8.830
    47   6 C        2.978    -0.002    28.078     8.692
    48   6 C        3.069     0.020    27.501     8.599
    49   6 C        2.920    -0.034    28.851     8.808
    50   6 C        2.926    -0.019    28.483     8.752
    51   1 H        0.926     0.051     2.313     2.378
    52   1 H        0.926     0.048     2.346     2.395
    53   1 H        0.926     0.052     2.289     2.366
    54   1 H        0.926     0.040     2.452     2.449
    55   1 H        0.926     0.036     2.496     2.470
    56   1 H        0.926     0.042     2.419     2.432
    57   1 H        0.926     0.027     2.634     2.538
    58   1 H        0.926     0.029     2.602     2.522
    59   1 H        0.926     0.028     2.613     2.528
    60   1 H        0.926     0.031     2.571     2.507
    61   1 H        0.926     0.031     2.570     2.507
    62   1 H        0.926     0.028     2.611     2.527
    63   1 H        0.926     0.029     2.599     2.521
    64   1 H        0.926     0.027     2.634     2.538
    65   1 H        0.926     0.042     2.416     2.431
    66   1 H        0.926     0.040     2.455     2.450
    67   1 H        0.926     0.035     2.517     2.481
    68   1 H        0.926     0.024     2.677     2.559
    69   1 H        0.926     0.051     2.302     2.373
    70   1 H        0.926     0.032     2.558     2.501
    71   1 H        0.926     0.030     2.587     2.515
    72   1 H        0.926     0.032     2.558     2.501
    73   1 H        0.926     0.036     2.499     2.472
    74   1 H        0.926     0.031     2.572     2.508
    75   1 H        0.926     0.029     2.603     2.523
    76   1 H        0.926     0.021     2.711     2.575
    77   1 H        0.926     0.051     2.301     2.372
    78   1 H        0.926     0.051     2.307     2.375

molecular dipole:
                 x           y           z       tot (Debye)
 q only:       -0.366      -0.546       0.018
   full:       -0.738      -0.545       0.014       2.332

 projected vibrational frequencies (cm⁻¹)
eigval :       -0.00    -0.00    -0.00    -0.00    -0.00     0.00
eigval :        9.16     9.92    14.13    20.20    27.98    31.89
eigval :       41.37    51.69    55.83    70.64    78.37    83.75
eigval :       86.32    95.27   104.12   108.17   121.49   122.73
eigval :      130.99   145.43   174.04   180.17   197.75   205.20
eigval :      207.46   239.39   249.00   260.47   266.61   271.68
eigval :      274.38   300.37   316.16   347.07   371.27   373.39
eigval :      378.63   385.84   393.17   396.34   399.91   406.82
eigval :      417.22   425.22   426.29   431.57   435.22   443.05
eigval :      465.55   474.14   495.62   515.50   518.93   523.06
eigval :      532.33   532.95   535.16   540.80   541.17   547.95
eigval :      578.42   582.66   585.93   596.69   601.05   613.01
eigval :      617.11   629.88   642.02   652.03   670.26   673.61
eigval :      674.40   681.39   684.77   687.03   697.35   708.19
eigval :      709.68   722.76   735.04   755.22   764.44   766.88
eigval :      769.56   780.81   782.74   784.88   808.29   811.63
eigval :      825.69   833.96   862.34   866.29   868.58   871.75
eigval :      873.67   875.42   881.02   898.18   902.49   902.91
eigval :      907.63   914.37   915.29   917.38   921.07   921.38
eigval :      923.92   926.68   927.17   927.92   928.24   929.09
eigval :      935.82   939.16   961.66   993.82  1010.49  1012.22
eigval :     1017.27  1031.22  1068.30  1070.46  1073.84  1080.02
eigval :     1085.75  1108.51  1118.20  1127.90  1132.51  1135.29
eigval :     1144.43  1151.79  1153.04  1172.01  1177.01  1180.70
eigval :     1181.39  1182.95  1183.73  1185.84  1198.79  1206.00
eigval :     1207.61  1230.83  1236.68  1244.85  1254.30  1257.96
eigval :     1260.16  1266.52  1272.88  1283.66  1286.86  1300.57
eigval :     1302.89  1308.55  1313.74  1315.85  1320.38  1327.34
eigval :     1339.25  1346.85  1357.79  1362.16  1371.21  1375.62
eigval :     1394.58  1400.95  1407.82  1413.08  1419.84  1428.41
eigval :     1430.29  1431.41  1436.07  1467.08  1476.42  1484.57
eigval :     1488.31  1502.30  1513.91  1517.91  1543.98  1550.82
eigval :     1555.70  1562.10  1566.21  1571.36  1575.56  1585.20
eigval :     1588.68  1589.91  1594.73  1599.30  1602.56  1605.10
eigval :     1615.27  2376.14  3074.29  3076.08  3076.46  3077.89
eigval :     3078.34  3080.95  3081.61  3082.17  3083.16  3085.64
eigval :     3086.28  3088.24  3088.26  3089.46  3089.84  3091.20
eigval :     3092.55  3094.62  3095.37  3095.94  3097.00  3098.70
eigval :     3100.39  3102.84  3105.36  3105.78  3109.06  3112.61

   temp. (K)  partition function   enthalpy   heat capacity  entropy
                                   cal/mol     cal/K/mol   cal/K/mol   J/K/mol
 298.15  VIB  0.420E+18            22403.645    142.882    139.557
         ROT  0.129E+09              888.752      2.981     40.099
         INT  0.543E+26            23292.397    145.863    179.656
         TR   0.155E+29             1481.254      4.968     45.216
         TOT                       24773.6508   150.8312   224.8715   940.8622

       T/K    H(0)-H(T)+PV         H(T)/Eh          T*S/Eh         G(T)/Eh
   ------------------------------------------------------------------------
    298.15    0.394793E-01    0.629745E+00    0.106844E+00    0.522902E+00
   ------------------------------------------------------------------------

         :::::::::::::::::::::::::::::::::::::::::::::::::::::
         ::                  THERMODYNAMIC                  ::
         :::::::::::::::::::::::::::::::::::::::::::::::::::::
         :: total free energy        -123.996829000868 Eh   ::
         ::.................................................::
         :: total energy             -124.519730611613 Eh   ::
         :: zero point energy           0.590265972137 Eh   ::
         :: G(RRHO) w/o ZPVE           -0.067364361392 Eh   ::
         :: G(RRHO) contrib.            0.522901610745 Eh   ::
         :::::::::::::::::::::::::::::::::::::::::::::::::::::

           -------------------------------------------------
          | TOTAL ENERGY             -124.519730611613 Eh   |
          | TOTAL ENTHALPY           -123.889985313945 Eh   |
          | TOTAL FREE ENERGY        -123.996829000868 Eh   |
          | GRADIENT NORM               0.000030831663 Eh/α |
          | HOMO-LUMO GAP               1.929856573454 eV   |
           -------------------------------------------------

 * finished run on 2025/09/09 at 04:47:25.652
