   * xtb version 6.7.1 (edcfbbe) compiled by 'albert@albert-system' on 2024-07-22

   ID    Z sym.   atoms
    1    7 N      1, 7, 17, 34
    2    6 C      2-6, 8-16, 18-33, 35-50
    3    1 H      51-78

          program call               : xtb data2507/gas/CPBPMCN/CPBPMCN_gas_T1_crest.xyz --gfn 2 --spinpol --tblite --uhf 2 --ohess vtight --parallel 40 --molden --ceasefiles --namespace data2507/gas/CPBPMCN/CPBPMCN_gas_T1_finalOpt
 * total energy  :  -124.4396560 Eh     change       -0.7584561E-08 Eh
 * total energy  :  -124.4396645 Eh     change       -0.8478107E-05 Eh
 * total energy  :  -124.4396684 Eh     change       -0.3938824E-05 Eh
 * total energy  :  -124.4396691 Eh     change       -0.6752286E-06 Eh
 * total energy  :  -124.4396701 Eh     change       -0.9730118E-06 Eh
 * total energy  :  -124.4396709 Eh     change       -0.7940103E-06 Eh
 * total energy  :  -124.4396717 Eh     change       -0.8266835E-06 Eh
 * total energy  :  -124.4396722 Eh     change       -0.5233652E-06 Eh
 * total energy  :  -124.4396726 Eh     change       -0.4097784E-06 Eh
 * total energy  :  -124.4396730 Eh     change       -0.3184815E-06 Eh
 * total energy  :  -124.4396732 Eh     change       -0.2303520E-06 Eh
 * total energy  :  -124.4396733 Eh     change       -0.1559867E-06 Eh
 * total energy  :  -124.4396735 Eh     change       -0.1261079E-06 Eh
 * total energy  :  -124.4396735 Eh     change       -0.2992076E-07 Eh
   *** GEOMETRY OPTIMIZATION CONVERGED AFTER 14 ITERATIONS ***

 final structure:
================
78
 xtb: 6.7.1 (edcfbbe)
N           -2.50391905370797        6.86908653854048       -0.79988722717808
C           -2.76125846759329        5.75579925931647       -0.67672973920297
C           -3.07417129006939        4.39290390551049       -0.52360182656831
C           -2.61335008190757        3.45456017564368       -1.45740169667173
C           -2.91198502051960        2.12214819685962       -1.30136885606331
C           -3.68662763746907        1.69654758577637       -0.21420560175733
N           -3.96876275467627        0.34019327105772       -0.05372327831731
C           -3.00538989133620       -0.69180618169187       -0.01355536768783
C           -1.61185274415967       -0.56459117942254        0.04860316067658
C           -0.83355539889493       -1.74343215030244       -0.16527098763762
C            0.52415581044117       -1.71376478787874       -0.14465596247168
C            1.24068580094078       -0.51229310807643        0.10083612529733
C            2.67579762080273       -0.46864025207647        0.09093252106219
C            3.37318308867011        0.73066351028377       -0.16644295698496
C            4.74424038825315        0.77712621884700       -0.18090267504582
C            5.49680980680303       -0.37613466738814        0.06614902724333
N            6.89010116109149       -0.33075569881781        0.05469471112149
C            7.72322977751233       -1.21880516015369       -0.59892831351102
C            7.40304935523359       -2.29001628814484       -1.42152591701832
C            8.44359955557332       -3.00565724455511       -1.98357409022835
C            9.77268495599064       -2.66338694063254       -1.74754964839203
C           10.09734662006326       -1.57913378751482       -0.95431505303059
C            9.06975780999203       -0.84644261399538       -0.37864467819920
C            9.03840225352944        0.32382813586431        0.45597210196848
C           10.02537604574559        1.12121485724651        1.01657861644657
C            9.64364994551199        2.18298533563715        1.81479004518550
C            8.29899748595009        2.43966046653619        2.07044544461222
C            7.29823303726249        1.65842983725634        1.52371312848982
C            7.67423717602258        0.60931466284407        0.69628869338459
C            4.82544056585438       -1.57598650903708        0.32530933710136
C            3.45424079289252       -1.61965176049572        0.33467394298338
C            0.46587364191733        0.64204275503834        0.38042625794986
C           -0.89517341978410        0.62549041292014        0.36518595689241
N           -3.60824129500666       -1.89498692842479        0.05728618205159
C           -4.90947585373319       -1.66749484015492        0.12803569904129
C           -5.94955519481784       -2.62732767552828        0.30259404526125
C           -5.64925475647638       -3.98094724180636        0.47024443666308
C           -6.65561576305071       -4.89417532689679        0.69096893826403
C           -7.97128594491506       -4.45129855921599        0.75586357029956
C           -8.27785911349514       -3.11658255475774        0.58286687847363
C           -7.28320883927057       -2.16223807689463        0.33803638189927
C           -7.57493422460594       -0.75635742995874        0.09796214546307
C           -8.88782592354214       -0.29510538834963       -0.00656447739638
C           -9.18596668239115        1.02218757641962       -0.28912575332158
C           -8.15780450204145        1.93595540367158       -0.50775575273075
C           -6.85282439620890        1.53030193166326       -0.40526921150046
C           -6.52009655049629        0.19758201378271       -0.07851603789814
C           -5.19657153242424       -0.27178788861647        0.03397033034803
C           -4.15020668595511        2.63444458794097        0.71760211854937
C           -3.84537964521197        3.96638211843463        0.56723767407866
H           -2.02691395331974        3.78843749681550       -2.30031121798389
H           -2.55845109418794        1.39236448651681       -2.01422027111026
H           -1.36939231549911       -2.65541023312562       -0.37369945189582
H            1.07137399435635       -2.61794710270121       -0.36318811079992
H            2.82011943764266        1.62583150437242       -0.40474402512569
H            5.25401578223633        1.69850653618748       -0.42085359133991
H            6.37662993123106       -2.54973843724417       -1.63044744080841
H            8.22007708086361       -3.84569705188669       -2.62418536598082
H           10.55746375282207       -3.24882832172864       -2.20257719665208
H           11.12708570317702       -1.30121939708619       -0.78850667169733
H           11.06823925796215        0.90982603161479        0.83532905739199
H           10.39590430336527        2.81794433887281        2.25815690574701
H            8.03153920442759        3.26429412638429        2.71417213996115
H            6.26052096397228        1.85235837328890        1.74759870103642
H            5.39870385813606       -2.46186277182113        0.55561824561742
H            2.96581106870323       -2.54911421547627        0.58195183832751
H            0.96854303929545        1.55372061870189        0.66684010174500
H           -1.43201850440194        1.51329304299965        0.65744509289565
H           -4.61267433047265       -4.27677811660033        0.42945992442373
H           -6.42779983069896       -5.94135532647900        0.82103141683743
H           -8.76683323839097       -5.15786569551412        0.94316023805732
H           -9.31330069289810       -2.82268104919982        0.64745864840261
H           -9.70904055923612       -0.98181598413287        0.12084515643012
H          -10.21566524828171        1.33847292377997       -0.35952947278825
H           -8.38679616325261        2.95967491637150       -0.76341023594886
H           -6.06509462275633        2.23753477275690       -0.60468724439791
H           -4.73644843352903        2.29705262180668        1.55990734309348
H           -4.18918540085909        4.69096749052308        1.29032605856832

 projected vibrational frequencies (cm⁻¹)
eigval :       -0.00    -0.00    -0.00     0.00     0.00     0.00
eigval :        9.29    10.42    14.69    18.60    29.31    32.40
eigval :       45.12    51.00    55.22    67.35    80.93    84.25
eigval :       92.92    99.53   108.54   112.99   121.51   126.86
eigval :      136.70   147.77   169.81   180.54   199.60   202.97
eigval :      207.83   233.49   245.20   261.63   264.34   271.52
eigval :      276.79   301.95   307.90   327.46   364.73   374.52
eigval :      379.96   382.98   387.84   391.98   397.94   399.05
eigval :      410.05   413.89   419.22   423.10   434.17   440.85
eigval :      443.25   458.86   475.45   496.26   502.91   517.26
eigval :      519.49   526.82   531.54   537.87   538.91   539.35
eigval :      572.32   579.27   582.63   590.52   593.49   600.39
eigval :      614.65   617.45   623.41   642.12   656.77   664.64
eigval :      666.63   671.11   674.40   675.92   684.83   686.85
eigval :      709.16   718.33   729.31   750.65   756.13   759.47
eigval :      769.70   775.13   776.30   779.86   797.68   801.69
eigval :      814.95   816.52   820.84   847.83   851.06   860.67
eigval :      868.41   872.55   872.84   896.54   899.13   902.77
eigval :      903.10   908.18   911.41   912.81   913.94   916.23
eigval :      917.34   917.88   919.53   923.10   923.57   923.97
eigval :      926.15   930.65   942.20   959.85   996.30   998.07
eigval :     1007.26  1011.53  1041.12  1051.96  1070.11  1073.49
eigval :     1081.95  1091.91  1104.93  1115.68  1129.85  1134.31
eigval :     1137.25  1147.71  1152.80  1156.94  1168.00  1175.95
eigval :     1179.50  1179.95  1181.00  1183.38  1194.72  1198.44
eigval :     1205.23  1229.48  1233.22  1235.86  1243.76  1247.91
eigval :     1251.15  1259.76  1261.12  1272.26  1280.13  1286.69
eigval :     1291.33  1296.23  1309.12  1315.34  1326.30  1329.35
eigval :     1333.55  1335.44  1353.70  1357.20  1358.90  1363.80
eigval :     1390.98  1396.34  1406.33  1411.20  1414.57  1420.09
eigval :     1423.60  1427.16  1427.95  1440.91  1453.13  1464.04
eigval :     1466.90  1473.45  1479.66  1482.91  1485.23  1496.15
eigval :     1501.12  1515.98  1540.24  1546.75  1554.49  1565.00
eigval :     1571.52  1578.36  1581.69  1584.90  1588.50  1589.58
eigval :     1606.69  2338.98  3076.78  3080.61  3081.16  3081.83
eigval :     3082.01  3083.40  3083.70  3085.29  3086.07  3087.30
eigval :     3087.38  3088.55  3089.46  3091.81  3093.40  3094.94
eigval :     3095.93  3098.32  3098.98  3100.05  3100.08  3100.52
eigval :     3102.22  3107.92  3111.61  3112.89  3113.37  3126.45

   temp. (K)  partition function   enthalpy   heat capacity  entropy
                                   cal/mol     cal/K/mol   cal/K/mol   J/K/mol
 298.15  VIB  0.383E+18            22623.885    144.780    140.374
         ROT  0.134E+09              888.752      2.981     40.167
         INT  0.512E+26            23512.638    147.761    180.541
         TR   0.155E+29             1481.254      4.968     45.216
         TOT                       24993.8916   152.7292   225.7564   944.5646

       T/K    H(0)-H(T)+PV         H(T)/Eh          T*S/Eh         G(T)/Eh
   ------------------------------------------------------------------------
    298.15    0.398303E-01    0.626246E+00    0.107264E+00    0.518982E+00
   ------------------------------------------------------------------------

         :::::::::::::::::::::::::::::::::::::::::::::::::::::
         ::                  THERMODYNAMIC                  ::
         :::::::::::::::::::::::::::::::::::::::::::::::::::::
         :: total free energy        -123.920691412276 Eh   ::
         ::.................................................::
         :: total energy             -124.439673529855 Eh   ::
         :: zero point energy           0.586415943265 Eh   ::
         :: G(RRHO) w/o ZPVE           -0.067433825686 Eh   ::
         :: G(RRHO) contrib.            0.518982117580 Eh   ::
         :::::::::::::::::::::::::::::::::::::::::::::::::::::

           -------------------------------------------------
          | TOTAL ENERGY             -124.439673529855 Eh   |
          | TOTAL ENTHALPY           -123.813427285060 Eh   |
          | TOTAL FREE ENERGY        -123.920691412276 Eh   |
          | GRADIENT NORM               0.000087863097 Eh/α |
           -------------------------------------------------

 * finished run on 2025/09/09 at 04:56:35.872
