   * xtb version 6.7.1 (edcfbbe) compiled by 'albert@albert-system' on 2024-07-22

   ID    Z sym.   atoms
    1    7 N      1, 7, 17, 34
    2    6 C      2-6, 8-16, 18-33, 35-50
    3    1 H      51-78

          program call               : xtb data2507/gas/CPBPMCN/CPBPMCN_gas_S0_finalOpt.xtbopt.xyz --gfn 2 --spinpol --tblite --uhf 2 --ohess vtight --parallel 40 --molden --ceasefiles --namespace data2507/gas/CPBPMCN/CPBPMCN_gas_T1_preOpt
 * total energy  :  -124.4282555 Eh     change       -0.1474790E-07 Eh
 * total energy  :  -124.4337179 Eh     change       -0.5462350E-02 Eh
 * total energy  :  -124.4365032 Eh     change       -0.2785362E-02 Eh
 * total energy  :  -124.4372880 Eh     change       -0.7847156E-03 Eh
 * total energy  :  -124.4381292 Eh     change       -0.8412904E-03 Eh
 * total energy  :  -124.4385942 Eh     change       -0.4649995E-03 Eh
 * total energy  :  -124.4388797 Eh     change       -0.2854662E-03 Eh
 * total energy  :  -124.4390516 Eh     change       -0.1718957E-03 Eh
 * total energy  :  -124.4391739 Eh     change       -0.1223172E-03 Eh
 * total energy  :  -124.4392565 Eh     change       -0.8256275E-04 Eh
 * total energy  :  -124.4396711 Eh     change       -0.5225538E-06 Eh
 * total energy  :  -124.4396715 Eh     change       -0.4644928E-06 Eh
 * total energy  :  -124.4396719 Eh     change       -0.3389782E-06 Eh
 * total energy  :  -124.4396722 Eh     change       -0.3072113E-06 Eh
 * total energy  :  -124.4396725 Eh     change       -0.2908975E-06 Eh
 * total energy  :  -124.4396726 Eh     change       -0.1099480E-06 Eh
 * total energy  :  -124.4396728 Eh     change       -0.2154756E-06 Eh
 * total energy  :  -124.4396729 Eh     change       -0.1330415E-06 Eh
 * total energy  :  -124.4396730 Eh     change       -0.9376527E-07 Eh
   *** GEOMETRY OPTIMIZATION CONVERGED AFTER 58 ITERATIONS ***

 final structure:
================
78
 xtb: 6.7.1 (edcfbbe)
N           -2.38092670746227        6.92540365860243       -0.77803262692937
C           -2.65763521378330        5.81615722776240       -0.66066512851126
C           -2.99547909485007        4.45830908101551       -0.51556433192791
C           -2.54817440820359        3.51667889699108       -1.45258791076400
C           -2.87213793183517        2.18921326772608       -1.30506895736581
C           -3.65913520712906        1.77227126861946       -0.22348830316833
N           -3.96771003760272        0.42048543669543       -0.07243157369896
C           -3.02387390998481       -0.62946904338096       -0.03307731274849
C           -1.62879747450480       -0.52789759186281        0.04015617573889
C           -0.86995267284034       -1.71925506781108       -0.17462258473254
C            0.48789904411260       -1.71371337982664       -0.14503826200863
C            1.22404001689018       -0.52624812249443        0.11075877547230
C            2.65966153425701       -0.50735557553588        0.10767409439113
C            3.37868951773492        0.68109117300257       -0.14059737361737
C            4.75035609449678        0.70369395250425       -0.15107062855317
C            5.48211495709981       -0.46388209816499        0.09144099412172
N            6.87598787188948       -0.44291356995610        0.08221572854119
C            7.69437447705353       -1.34203956738537       -0.57499573295190
C            7.35673696075135       -2.40451721890822       -1.40193488837818
C            8.38542243796115       -3.13506787537577       -1.96666063376970
C            9.71994890987483       -2.81583619805266       -1.72911532741024
C           10.06232380628097       -1.74017994484124       -0.93164585527381
C            9.04686559522158       -0.99287049284970       -0.35326333645008
C            9.03486657639875        0.17457146677534        0.48577291689821
C           10.03497547624009        0.95364718746969        1.04881744402333
C            9.67097271331025        2.01864083902411        1.85100092499566
C            8.33079069626926        2.29618075217780        2.10830004513506
C            7.31717441644775        1.53346109113288        1.55910088771086
C            7.67561689589061        0.48154738575064        0.72742765635296
C            4.78910731525695       -1.65303856504263        0.34298186850034
C            3.41732895960881       -1.67288142008193        0.34812982727138
C            0.46778222897063        0.63996855151295        0.39217643096949
C           -0.89317762234116        0.64746945111229        0.36833452129886
N           -3.64942047815726       -1.82174764903200        0.02358019927338
C           -4.94682153146134       -1.57068021126651        0.08576950622696
C           -6.00595629537399       -2.51272706333962        0.24172553079363
C           -5.73220532032274       -3.87358637025472        0.39581194675387
C           -6.75717726025760       -4.77067765717787        0.59600098829888
C           -8.06510415400198       -4.30445274101130        0.65360914972402
C           -8.34539822399604       -2.96229603369243        0.49439176964386
C           -7.33109429468966       -2.02343055096366        0.27110203479231
C           -7.59477609633417       -0.60952595770767        0.04631078564879
C           -8.89813274876556       -0.12173281531859       -0.05770783106899
C           -9.16975837333953        1.20411841283741       -0.32647499633606
C           -8.12333550707272        2.10010640524220       -0.53162855412282
C           -6.82686742557967        1.66821169448855       -0.42854227238573
C           -6.52111107401107        0.32600994693968       -0.11449565854090
C           -5.20729739078305       -0.16920552269178        0.00126617555169
C           -4.10853470215088        2.71336841108545        0.71196654185877
C           -3.77844511155769        4.04024855458105        0.57012914164458
H           -1.95223882659977        3.84418628236228       -2.29132122249415
H           -2.52929958417933        1.45682662012397       -2.02047218047305
H           -1.42039282886616       -2.62057546277575       -0.39121613454434
H            1.02048103895121       -2.62636299573579       -0.36454250402492
H            2.84206099179509        1.58710794059340       -0.37544395768713
H            5.27671919525225        1.61732985440979       -0.38473230045831
H            6.32624806953637       -2.64640125026818       -1.61219076111090
H            8.14813225272954       -3.96871269738548       -2.61066156748376
H           10.49502600583809       -3.41241645553882       -2.18629755111057
H           11.09647318716146       -1.47993149105798       -0.76461861240647
H           11.07416808783639        0.72592296007790        0.86627683482329
H           10.43367177452028        2.63969372954629        2.29621270215444
H            8.07708474714916        3.12262442969703        2.75526335154493
H            6.28288155907907        1.74346037854263        1.78429566484226
H            5.34613411598808       -2.54992406093782        0.57052018393116
H            2.91205684486156       -2.59494209846917        0.58923717177151
H            0.98454409682104        1.54110232297136        0.68677983710590
H           -1.41608818531842        1.54304157093740        0.66213248622266
H           -4.70091994021444       -4.18805298990183        0.36072919482253
H           -6.54989546259797       -5.82339082344596        0.71527442190411
H           -8.87533537191137       -4.99848307919665        0.82406387308078
H           -9.37596299870749       -2.65040385560129        0.55201501049657
H           -9.73300537708906       -0.79358350352768        0.05964028360471
H          -10.19288867066915        1.54110184211295       -0.39659436065946
H           -8.33152016465329        3.13077554205052       -0.77693194350808
H           -6.02493212628554        2.36228581751263       -0.61712608187256
H           -4.70414412952255        2.38227239086339        1.55018943274254
H           -4.11157006773593        4.76712589492643        1.29591001575538

 projected vibrational frequencies (cm⁻¹)
eigval :       -0.00    -0.00    -0.00    -0.00     0.00     0.00
eigval :        9.31    10.02    14.68    18.56    29.05    32.50
eigval :       45.12    50.45    55.02    67.15    80.86    84.28
eigval :       92.88    99.28   108.11   112.98   121.45   126.89
eigval :      136.60   147.80   170.03   180.61   199.58   203.17
eigval :      207.82   233.39   245.28   261.65   264.34   271.42
eigval :      276.75   301.79   307.88   327.61   364.80   374.48
eigval :      379.96   383.08   387.78   391.89   398.06   399.05
eigval :      410.02   414.15   418.81   422.94   434.29   440.70
eigval :      443.14   458.85   475.34   496.29   502.88   517.26
eigval :      519.49   526.80   531.51   537.84   538.87   539.35
eigval :      572.27   579.23   582.56   590.46   593.47   600.37
eigval :      614.59   617.43   623.47   642.05   656.73   664.63
eigval :      666.65   671.05   674.40   675.89   684.69   686.77
eigval :      709.13   718.33   729.34   750.47   756.13   759.08
eigval :      769.62   775.02   776.12   779.79   797.86   801.57
eigval :      815.01   816.33   820.75   847.93   850.95   860.69
eigval :      868.37   872.52   872.82   896.53   899.10   902.72
eigval :      903.05   908.19   911.42   912.82   913.97   916.19
eigval :      917.31   917.81   919.49   923.15   923.60   924.00
eigval :      926.13   930.70   941.51   959.89   996.43   997.92
eigval :     1007.41  1011.61  1041.28  1052.12  1070.21  1073.66
eigval :     1081.94  1091.96  1105.05  1115.86  1129.81  1134.25
eigval :     1137.28  1147.72  1152.78  1156.99  1167.32  1175.68
eigval :     1179.42  1179.81  1180.88  1183.30  1194.69  1198.27
eigval :     1205.18  1229.06  1233.22  1235.81  1243.57  1247.68
eigval :     1251.15  1259.66  1260.91  1272.08  1280.03  1286.66
eigval :     1291.08  1296.18  1309.02  1315.28  1326.37  1329.34
eigval :     1333.54  1335.58  1353.69  1357.06  1358.88  1363.52
eigval :     1390.70  1396.11  1406.03  1411.00  1414.33  1419.85
eigval :     1423.75  1427.02  1427.90  1440.81  1453.20  1464.08
eigval :     1466.67  1473.35  1479.74  1482.99  1485.10  1496.27
eigval :     1500.98  1515.79  1540.05  1546.64  1554.68  1565.39
eigval :     1571.55  1578.57  1581.69  1584.77  1588.45  1589.40
eigval :     1606.38  2338.96  3076.66  3080.46  3081.03  3081.60
eigval :     3081.89  3083.29  3083.44  3085.12  3085.95  3087.16
eigval :     3087.28  3088.42  3089.32  3091.66  3093.25  3094.90
eigval :     3095.87  3098.31  3098.60  3099.77  3100.21  3100.40
eigval :     3102.00  3107.74  3111.73  3112.89  3114.05  3126.73

   temp. (K)  partition function   enthalpy   heat capacity  entropy
                                   cal/mol     cal/K/mol   cal/K/mol   J/K/mol
 298.15  VIB  0.409E+18            22627.634    144.768    140.439
         ROT  0.134E+09              888.752      2.981     40.167
         INT  0.548E+26            23516.386    147.749    180.606
         TR   0.155E+29             1481.254      4.968     45.216
         TOT                       24997.6400   152.7175   225.8214   944.8368

       T/K    H(0)-H(T)+PV         H(T)/Eh          T*S/Eh         G(T)/Eh
   ------------------------------------------------------------------------
    298.15    0.398363E-01    0.626223E+00    0.107295E+00    0.518928E+00
   ------------------------------------------------------------------------

         :::::::::::::::::::::::::::::::::::::::::::::::::::::
         ::                  THERMODYNAMIC                  ::
         :::::::::::::::::::::::::::::::::::::::::::::::::::::
         :: total free energy        -123.920744652675 Eh   ::
         ::.................................................::
         :: total energy             -124.439673051345 Eh   ::
         :: zero point energy           0.586387166066 Eh   ::
         :: G(RRHO) w/o ZPVE           -0.067458767396 Eh   ::
         :: G(RRHO) contrib.            0.518928398670 Eh   ::
         :::::::::::::::::::::::::::::::::::::::::::::::::::::

           -------------------------------------------------
          | TOTAL ENERGY             -124.439673051345 Eh   |
          | TOTAL ENTHALPY           -123.813449610311 Eh   |
          | TOTAL FREE ENERGY        -123.920744652675 Eh   |
          | GRADIENT NORM               0.000050299876 Eh/α |
           -------------------------------------------------

 * finished run on 2025/09/09 at 04:51:19.898
