   * xtb version 6.7.1 (edcfbbe) compiled by 'albert@albert-system' on 2024-07-22

   ID    Z sym.   atoms
    1    7 N      1, 7, 17, 34
    2    6 C      2-6, 8-16, 18-33, 35-50
    3    1 H      51-78

          program call               : xtb data2507/gas/CPBPMCN/CPBPMCN_gas_S0_crest.xyz --gfn 2 --ohess vtight --parallel 40 --molden --ceasefiles --namespace data2507/gas/CPBPMCN/CPBPMCN_gas_S0_finalOpt
          :  Hamiltonian                  GFN2-xTB          :
 * total energy  :  -124.5197295 Eh     change       -0.2060759E-08 Eh
 * total energy  :  -124.5197304 Eh     change       -0.9164981E-06 Eh
 * total energy  :  -124.5197307 Eh     change       -0.2948291E-06 Eh
 * total energy  :  -124.5197318 Eh     change       -0.1019298E-05 Eh
 * total energy  :  -124.5197325 Eh     change       -0.7784883E-06 Eh
 * total energy  :  -124.5197337 Eh     change       -0.1167672E-05 Eh
 * total energy  :  -124.5197345 Eh     change       -0.7591699E-06 Eh
 * total energy  :  -124.5197348 Eh     change       -0.3688354E-06 Eh
 * total energy  :  -124.5197351 Eh     change       -0.2431127E-06 Eh
 * total energy  :  -124.5197354 Eh     change       -0.2911481E-06 Eh
 * total energy  :  -124.5197366 Eh     change       -0.2787672E-06 Eh
 * total energy  :  -124.5197369 Eh     change       -0.3602163E-06 Eh
 * total energy  :  -124.5197372 Eh     change       -0.2550107E-06 Eh
 * total energy  :  -124.5197373 Eh     change       -0.1682480E-06 Eh
 * total energy  :  -124.5197375 Eh     change       -0.1698088E-06 Eh
 * total energy  :  -124.5197377 Eh     change       -0.2056575E-06 Eh
 * total energy  :  -124.5197379 Eh     change       -0.1575741E-06 Eh
 * total energy  :  -124.5197379 Eh     change        0.7522090E-09 Eh
 * total energy  :  -124.5197379 Eh     change       -0.3096990E-07 Eh
   *** GEOMETRY OPTIMIZATION CONVERGED AFTER 23 ITERATIONS ***

 final structure:
================
78
 xtb: 6.7.1 (edcfbbe)
N           -1.87438071867545        6.63970255359224       -0.77677442588424
C           -2.23621382895864        5.55851751536993       -0.65926877978740
C           -2.68103297896915        4.22441883413683       -0.51190871345227
C           -2.30895325483092        3.25837687064432       -1.44794000918582
C           -2.74044411876162        1.95664297167935       -1.29964863235022
C           -3.54556516476400        1.60953326106079       -0.21699439243495
N           -3.94131507441488        0.27479582298225       -0.04797476533761
C           -3.07478010066678       -0.78936880813884        0.11980254656217
C           -1.62572884790080       -0.68261801154830        0.13813509479863
C           -0.88185810320459       -1.72559468400007       -0.41520424367129
C            0.49534066768714       -1.67866498158073       -0.42196674495669
C            1.17560955516782       -0.59086422481897        0.12537270102431
C            2.64206296896615       -0.53250233116779        0.10715898346999
C            3.30468948878200        0.66715394048805       -0.14805577438923
C            4.68295852077646        0.72472645091227       -0.17526714052338
C            5.43645548052504       -0.42039680631694        0.07045965261731
N            6.83469145863613       -0.36481970866034        0.05161946385480
C            7.66828003248595       -1.21929042812496       -0.64370985379125
C            7.34924955761056       -2.26343660657978       -1.49989228700065
C            8.38976584464940       -2.94905358210374       -2.09699152999722
C            9.71876337320495       -2.60487379044852       -1.86055413404067
C           10.04167985168946       -1.55105843190762       -1.02936811862221
C            9.01313803270456       -0.84679065018885       -0.41760570386836
C            8.98036974700448        0.28608339035840        0.46450963283304
C            9.96647766540963        1.06905357517386        1.04993677851852
C            9.58412201074455        2.09536769657501        1.89024502802908
C            8.23894250637795        2.33518105812932        2.16148788556295
C            7.23983990992396        1.56987665863282        1.59106336445471
C            7.61692220997913        0.55279882354437        0.72596109349543
C            4.78343740317390       -1.62172203591986        0.33535567802434
C            3.40486283149656       -1.67496276307524        0.34446894855989
C            0.42924556109603        0.43577825244844        0.70120833051895
C           -0.94970550787170        0.39111019038521        0.71552641294499
N           -3.71265860558029       -1.91860579262915        0.28019643400540
C           -5.03679881865354       -1.61749836952644        0.22690301016594
C           -6.13871069773250       -2.50204805642193        0.39192047999096
C           -5.94274418021483       -3.86276567608219        0.64965839681975
C           -7.01868206503998       -4.69224832131400        0.84371489080870
C           -8.30768313463615       -4.16572286660651        0.78657305652302
C           -8.51165015494991       -2.83063838851217        0.52718440625969
C           -7.43838799195331       -1.95227988909249        0.31220051166500
C           -7.62019861529398       -0.54620600367225       -0.00416524934447
C           -8.89630819011240        0.00826004884825       -0.17758449630484
C           -9.07921088716676        1.32483438391237       -0.52802954545044
C           -7.97935705224108        2.14890293463280       -0.74335520987800
C           -6.71237534519834        1.64785336385036       -0.57437265342240
C           -6.50407454897267        0.31738485624422       -0.18320458878526
C           -5.21441653690735       -0.25279545134598        0.01076673510079
C           -3.91711070965768        2.57444600330939        0.71948221871973
C           -3.48983517773469        3.87701889981817        0.57242135552934
H           -1.68641688579645        3.53620573087620       -2.28502674033748
H           -2.45734427812061        1.19969158244551       -2.01534974807136
H           -1.40901747061924       -2.56532021101140       -0.84039876637949
H            1.05481427232579       -2.48268085397355       -0.87666526943315
H            2.73178027082762        1.55838776340616       -0.35834313988809
H            5.18519389380751        1.65275160127943       -0.40416798958311
H            6.32235409902070       -2.52630303771352       -1.70486761693055
H            8.16719593747616       -3.76792521077645       -2.76523945406594
H           10.50346401307202       -3.16724700080312       -2.34434915054788
H           11.07083917669791       -1.27308795504174       -0.85896020168938
H           11.00938395209331        0.87199913965988        0.85246696626772
H           10.33489089870403        2.71780678128167        2.35389790139390
H            7.97063995788420        3.13502443580175        2.83593196789709
H            6.20129598666402        1.75220025462415        1.82297888204500
H            5.36436585098797       -2.50596787426248        0.55091901172066
H            2.91047829054119       -2.60795270219940        0.57090042091066
H            0.93727944227096        1.26634629114777        1.16894129937766
H           -1.49743424589815        1.18244761507047        1.20553812007086
H           -4.92807186956661       -4.22631286453001        0.69705131955379
H           -6.87309209259253       -5.74318334881719        1.04497443527040
H           -9.15752694369354       -4.81319440767880        0.94746224960140
H           -9.52698269808734       -2.46866313770305        0.49589772015097
H           -9.77044916655916       -0.60843404722449       -0.04593851040600
H          -10.07810239428851        1.71583077693217       -0.65245643033915
H           -8.11957907960780        3.17562928204644       -1.04717037879363
H           -5.86383134819835        2.28540977474672       -0.76673417658690
H           -4.53935556655577        2.29102295371327        1.55557001989601
H           -3.77137750981712        4.62987958455861        1.29329765801821

          :  Hamiltonian                  GFN2-xTB          :
         :: gradient norm              0.000086323484 Eh/a0 ::
         :: HOMO-LUMO gap              1.928279665722 eV    ::
         :: SCC energy              -126.905427558409 Eh    ::
         :: -> dispersion             -0.111729958699 Eh    ::
         :: repulsion energy           2.385689660715 Eh    ::

    * Orbital Energies and Occupations

         #    Occupation            Energy/Eh            Energy/eV
      -------------------------------------------------------------
         1        2.0000           -0.6970275             -18.9671
       ...           ...                  ...                  ...
       104        2.0000           -0.4193194             -11.4103
       105        2.0000           -0.4179269             -11.3724
       106        2.0000           -0.4173982             -11.3580
       107        2.0000           -0.4157788             -11.3139
       108        2.0000           -0.4133232             -11.2471
       109        2.0000           -0.4055582             -11.0358
       110        2.0000           -0.4044211             -11.0049
       111        2.0000           -0.3988401             -10.8530
       112        2.0000           -0.3868618             -10.5270
       113        2.0000           -0.3844530             -10.4615
       114        2.0000           -0.3778258             -10.2812
       115        2.0000           -0.3704801             -10.0813
       116        2.0000           -0.3616376              -9.8407 (HOMO)
       117                         -0.2907746              -7.9124 (LUMO)
       118                         -0.2706298              -7.3642
       119                         -0.2624115              -7.1406
       120                         -0.2536901              -6.9033
       121                         -0.2522489              -6.8640
       122                         -0.2439919              -6.6394
       123                         -0.2355739              -6.4103
       124                         -0.2347579              -6.3881
       125                         -0.2309787              -6.2853
       126                         -0.2210660              -6.0155
       127                         -0.2172167              -5.9108
       ...                                ...                  ...
       228                          1.1610473              31.5937
      -------------------------------------------------------------
                  HL-Gap            0.0708630 Eh            1.9283 eV

     #   Z          covCN         q      C6AA      α(0)
     1   7 N        0.911    -0.225    25.911     7.362
     2   6 C        1.912     0.112    28.329     8.596
     3   6 C        2.973     0.019    27.573     8.613
     4   6 C        2.926    -0.018    28.451     8.747
     5   6 C        2.921    -0.035    28.881     8.813
     6   6 C        2.912     0.078    26.264     8.404
     7   7 N        2.841    -0.047    22.142     6.989
     8   6 C        3.187     0.128    24.774     8.121
     9   6 C        2.974    -0.000    28.031     8.685
    10   6 C        2.926    -0.028    28.693     8.784
    11   6 C        2.923    -0.032    28.805     8.801
    12   6 C        2.976     0.012    27.735     8.639
    13   6 C        2.976     0.006    27.879     8.661
    14   6 C        2.925    -0.033    28.825     8.805
    15   6 C        2.920    -0.043    29.073     8.842
    16   6 C        2.913     0.064    26.566     8.452
    17   7 N        2.802    -0.044    22.080     6.979
    18   6 C        3.075     0.046    26.879     8.500
    19   6 C        2.910    -0.051    29.265     8.871
    20   6 C        2.924    -0.033    28.833     8.806
    21   6 C        2.920    -0.041    29.011     8.833
    22   6 C        2.913    -0.033    28.815     8.802
    23   6 C        3.068    -0.017    28.357     8.732
    24   6 C        3.068    -0.017    28.357     8.732
    25   6 C        2.913    -0.033    28.814     8.802
    26   6 C        2.920    -0.041    29.009     8.832
    27   6 C        2.924    -0.033    28.830     8.805
    28   6 C        2.910    -0.051    29.262     8.870
    29   6 C        3.075     0.047    26.879     8.500
    30   6 C        2.920    -0.043    29.070     8.842
    31   6 C        2.924    -0.033    28.822     8.804
    32   6 C        2.924    -0.034    28.854     8.809
    33   6 C        2.920    -0.035    28.865     8.810
    34   7 N        1.895    -0.285    28.243     7.879
    35   6 C        3.206     0.058    26.115     8.322
    36   6 C        2.986     0.003    27.949     8.672
    37   6 C        2.922    -0.031    28.763     8.795
    38   6 C        2.917    -0.029    28.733     8.790
    39   6 C        2.918    -0.032    28.792     8.799
    40   6 C        2.922    -0.034    28.854     8.809
    41   6 C        2.979    -0.001    28.042     8.686
    42   6 C        2.980     0.003    27.956     8.673
    43   6 C        2.922    -0.033    28.821     8.804
    44   6 C        2.917    -0.032    28.803     8.801
    45   6 C        2.917    -0.031    28.776     8.797
    46   6 C        2.919    -0.040    28.993     8.830
    47   6 C        2.978    -0.002    28.078     8.692
    48   6 C        3.069     0.020    27.500     8.599
    49   6 C        2.920    -0.034    28.850     8.808
    50   6 C        2.926    -0.019    28.483     8.752
    51   1 H        0.926     0.051     2.313     2.378
    52   1 H        0.926     0.048     2.345     2.395
    53   1 H        0.926     0.053     2.284     2.363
    54   1 H        0.926     0.040     2.452     2.449
    55   1 H        0.926     0.036     2.496     2.471
    56   1 H        0.926     0.042     2.419     2.432
    57   1 H        0.926     0.027     2.633     2.538
    58   1 H        0.926     0.029     2.602     2.522
    59   1 H        0.926     0.028     2.613     2.528
    60   1 H        0.926     0.031     2.571     2.507
    61   1 H        0.926     0.031     2.570     2.507
    62   1 H        0.926     0.028     2.611     2.527
    63   1 H        0.926     0.029     2.599     2.521
    64   1 H        0.926     0.027     2.634     2.538
    65   1 H        0.926     0.042     2.416     2.431
    66   1 H        0.926     0.040     2.455     2.450
    67   1 H        0.926     0.035     2.518     2.482
    68   1 H        0.926     0.024     2.678     2.559
    69   1 H        0.926     0.051     2.303     2.373
    70   1 H        0.926     0.032     2.558     2.501
    71   1 H        0.926     0.030     2.587     2.515
    72   1 H        0.926     0.032     2.558     2.501
    73   1 H        0.926     0.036     2.499     2.472
    74   1 H        0.926     0.031     2.571     2.508
    75   1 H        0.926     0.029     2.603     2.523
    76   1 H        0.926     0.021     2.712     2.575
    77   1 H        0.926     0.051     2.301     2.372
    78   1 H        0.926     0.051     2.307     2.375

molecular dipole:
                 x           y           z       tot (Debye)
 q only:       -0.363      -0.546      -0.006
   full:       -0.734      -0.544      -0.009       2.322

 projected vibrational frequencies (cm⁻¹)
eigval :       -0.00    -0.00    -0.00     0.00     0.00     0.00
eigval :        9.12     9.97    14.13    20.19    27.87    31.99
eigval :       41.48    51.11    55.85    70.61    78.45    83.78
eigval :       86.17    95.20   104.19   108.30   121.40   122.67
eigval :      130.87   145.51   174.06   180.46   197.82   205.10
eigval :      207.17   239.51   249.02   260.27   266.61   271.70
eigval :      274.23   300.40   316.08   347.37   371.12   373.34
eigval :      378.65   385.90   393.14   396.31   399.90   406.95
eigval :      417.19   425.17   426.31   431.51   435.19   443.01
eigval :      465.42   474.23   495.80   515.48   518.93   523.06
eigval :      532.35   532.98   535.13   540.84   541.16   547.88
eigval :      578.41   582.65   585.91   596.67   601.18   613.01
eigval :      617.12   629.85   642.06   651.89   670.25   673.60
eigval :      674.36   681.40   684.71   687.03   697.36   708.20
eigval :      709.61   722.73   735.04   755.23   764.43   766.85
eigval :      769.57   780.81   782.72   784.89   808.34   811.57
eigval :      825.73   833.94   862.26   866.29   868.49   871.79
eigval :      873.70   875.37   881.13   898.16   902.51   902.91
eigval :      907.59   914.33   915.25   917.41   921.07   921.41
eigval :      923.91   926.73   927.01   927.91   928.31   929.10
eigval :      935.89   939.16   961.63   993.78  1010.51  1012.21
eigval :     1017.25  1031.16  1068.32  1070.52  1073.89  1080.20
eigval :     1085.77  1108.55  1118.19  1127.80  1132.40  1135.34
eigval :     1144.24  1151.77  1153.08  1171.98  1177.02  1180.63
eigval :     1181.38  1182.95  1183.70  1185.86  1198.84  1206.13
eigval :     1207.31  1230.71  1236.66  1244.84  1254.31  1257.96
eigval :     1260.10  1266.53  1272.64  1283.69  1287.01  1300.62
eigval :     1302.82  1308.39  1313.69  1315.83  1320.76  1327.56
eigval :     1339.22  1346.91  1357.81  1362.15  1371.17  1375.61
eigval :     1394.67  1400.87  1407.76  1413.00  1419.81  1428.39
eigval :     1430.27  1431.38  1436.07  1466.91  1476.41  1484.45
eigval :     1488.31  1502.18  1513.83  1517.69  1543.44  1550.74
eigval :     1555.73  1562.00  1566.19  1571.23  1575.57  1585.13
eigval :     1588.68  1589.91  1594.72  1599.29  1602.48  1605.07
eigval :     1615.27  2376.10  3074.29  3076.10  3076.49  3077.92
eigval :     3078.36  3080.97  3081.61  3082.18  3083.12  3085.63
eigval :     3086.22  3088.29  3088.30  3089.58  3089.89  3091.44
eigval :     3092.60  3094.60  3095.38  3095.96  3097.02  3098.71
eigval :     3100.48  3102.85  3105.68  3105.88  3109.41  3112.64

   temp. (K)  partition function   enthalpy   heat capacity  entropy
                                   cal/mol     cal/K/mol   cal/K/mol   J/K/mol
 298.15  VIB  0.424E+18            22404.577    142.876    139.564
         ROT  0.130E+09              888.752      2.981     40.104
         INT  0.550E+26            23293.330    145.857    179.668
         TR   0.155E+29             1481.254      4.968     45.216
         TOT                       24774.5836   150.8248   224.8837   940.9136

       T/K    H(0)-H(T)+PV         H(T)/Eh          T*S/Eh         G(T)/Eh
   ------------------------------------------------------------------------
    298.15    0.394808E-01    0.629743E+00    0.106850E+00    0.522893E+00
   ------------------------------------------------------------------------

         :::::::::::::::::::::::::::::::::::::::::::::::::::::
         ::                  THERMODYNAMIC                  ::
         :::::::::::::::::::::::::::::::::::::::::::::::::::::
         :: total free energy        -123.996844856849 Eh   ::
         ::.................................................::
         :: total energy             -124.519737897693 Eh   ::
         :: zero point energy           0.590261748552 Eh   ::
         :: G(RRHO) w/o ZPVE           -0.067368707707 Eh   ::
         :: G(RRHO) contrib.            0.522893040845 Eh   ::
         :::::::::::::::::::::::::::::::::::::::::::::::::::::

           -------------------------------------------------
          | TOTAL ENERGY             -124.519737897693 Eh   |
          | TOTAL ENTHALPY           -123.889995337039 Eh   |
          | TOTAL FREE ENERGY        -123.996844856849 Eh   |
          | GRADIENT NORM               0.000086259938 Eh/α |
          | HOMO-LUMO GAP               1.928280076787 eV   |
           -------------------------------------------------

 * finished run on 2025/09/09 at 04:51:08.590
