   * xtb version 6.7.1 (edcfbbe) compiled by 'albert@albert-system' on 2024-07-22

   ID    Z sym.   atoms
    1    5 B      1
    2    6 C      2-11, 13-18, 20-29, 31-48, 50-61, 63-68
    3    8 O      12, 19
    4    7 N      30, 49, 62
    5    1 H      69-116

          program call               : xtb data250606/gas/TDBA-DI/TDBA-DI.xyz --gfn 2 --ohess vtight --parallel 14 --molden --ceasefiles --namespace data250606/gas/TDBA-DI/TDBA-DI_gas_S0_preOpt
          :  Hamiltonian                  GFN2-xTB          :
 * total energy  :  -175.4363455 Eh     change       -0.8391453E-08 Eh
 * total energy  :  -175.5097302 Eh     change       -0.7338468E-01 Eh
 * total energy  :  -175.5371240 Eh     change       -0.2739383E-01 Eh
 * total energy  :  -175.5459839 Eh     change       -0.8859912E-02 Eh
 * total energy  :  -175.5502576 Eh     change       -0.4273720E-02 Eh
 * total energy  :  -175.5532366 Eh     change       -0.2978984E-02 Eh
 * total energy  :  -175.5557750 Eh     change       -0.2538410E-02 Eh
 * total energy  :  -175.5581411 Eh     change       -0.2366060E-02 Eh
 * total energy  :  -175.5602102 Eh     change       -0.2069122E-02 Eh
 * total energy  :  -175.5618511 Eh     change       -0.1640889E-02 Eh
 * total energy  :  -175.5753437 Eh     change       -0.8954891E-06 Eh
 * total energy  :  -175.5753447 Eh     change       -0.1012721E-05 Eh
 * total energy  :  -175.5753457 Eh     change       -0.9874718E-06 Eh
 * total energy  :  -175.5753467 Eh     change       -0.9846157E-06 Eh
 * total energy  :  -175.5753477 Eh     change       -0.9827129E-06 Eh
 * total energy  :  -175.5753488 Eh     change       -0.1103742E-05 Eh
 * total energy  :  -175.5753502 Eh     change       -0.1480104E-05 Eh
 * total energy  :  -175.5753521 Eh     change       -0.1858641E-05 Eh
 * total energy  :  -175.5753521 Eh     change       -0.7538034E-08 Eh
   *** GEOMETRY OPTIMIZATION CONVERGED AFTER 185 ITERATIONS ***

 final structure:
================
116
 xtb: 6.7.1 (edcfbbe)
B            3.68922465946785       -0.45832276304794        0.15879855081838
C            4.06468730025978        0.01026415184816       -1.26686179262411
C            3.00513337216824        0.23198198273477       -2.16545358883205
C            3.25529209912787        0.70006521470608       -3.45450060295967
C            4.54481242416084        0.92543340947392       -3.88111785016094
C            5.62993896427613        0.67467236452486       -3.04082197174548
C            5.35602124408272        0.22416671612077       -1.76072904320708
C            7.07571065812087        0.87275272895231       -3.47200691957553
C            7.81163057992722       -0.47202214987945       -3.38709595837080
C            7.19611009797196        1.39284239917919       -4.90685843870087
C            7.74500236581599        1.89065861886151       -2.53733282339115
O            1.68968545866315        0.01219855036830       -1.88445004671672
C            1.29545596610360       -0.53147102852545       -0.71373361420891
C           -0.05492254015059       -0.81989295097699       -0.56878775257534
C           -0.50873544485962       -1.36754984577154        0.62622801857036
C            0.37299604872405       -1.65311240253056        1.66313688421523
C            1.72179458081946       -1.36029164383861        1.50337298837933
C            2.21175049693069       -0.79218940797647        0.31729911871061
O            2.54086655811126       -1.63737728519316        2.54215947754237
C            3.85147094734794       -1.26261055508328        2.53964868463030
C            4.50849568643710       -0.65564448499991        1.45639326313637
C            5.84232882478881       -0.27513502891764        1.66211964125777
C            6.53258013376069       -0.50600583463221        2.83562318931122
C            5.84866747664521       -1.15245875892497        3.87049613566000
C            4.53168474175011       -1.51779893310793        3.73150131886483
C            7.98002366803366       -0.08711977397592        3.04379056146682
C            8.58697377225799        0.58008577218633        1.80598912670092
C            8.82017040534448       -1.32853008243696        3.37515020393299
C            8.04543584583427        0.91176323150039        4.20759606084432
N           -1.87306860902422       -1.64789219816317        0.77553113312206
C           -2.36664908874137       -2.92645886731746        0.94656406285406
C           -1.66845811572817       -4.08660164144233        1.24336565771933
C           -2.37381473592286       -5.27211998778974        1.29582769785863
C           -3.73690943001395       -5.30029130469319        1.01941340458503
C           -4.43018926598164       -4.14998621612046        0.70104533884402
C           -3.75783389955931       -2.93065056810279        0.68887402573934
C           -4.11195040893032       -1.57352957917888        0.36080825325423
C           -5.28207748753077       -0.92258232353713       -0.06280873911951
C           -5.23540958630972        0.39021821711371       -0.58884069957577
C           -4.07041231096947        1.14456943193921       -0.38160516761294
C           -2.90315772251760        0.55787517372630        0.16003284255795
C           -2.91448467324535       -0.82270833304504        0.41301782984266
C           -1.94573200640521        1.61942048224668        0.32222663731509
C           -0.69527212209091        1.73614359013118        0.92441658761228
C           -0.06280430974634        2.96266883350895        0.93049713276979
C           -0.66517719760224        4.09106304507297        0.38236992060833
C           -1.93253104735067        4.02147908382384       -0.16061196291659
C           -2.56130520983882        2.78619643935820       -0.18713984372776
N           -3.84151324248684        2.48321196652427       -0.61037898936013
C           -4.80980321213443        3.47917654116635       -0.82389839878976
C           -4.64819412911566        4.39929447336382       -1.85424544953940
C           -5.58811484525963        5.39750260171015       -2.03802558598538
C           -6.68816106589545        5.48288658660621       -1.20091222730238
C           -6.84668632373012        4.56891064806779       -0.17226974294180
C           -5.90970677521996        3.57221464652628        0.02338691509768
C           -6.52542418269370        0.64195648097014       -1.17244274045791
C           -7.06034985183466        1.64433275198767       -1.97697249960347
C           -8.38697389998244        1.56843510275530       -2.34964918633155
C           -9.19424017774463        0.51353144389892       -1.93506787550495
C           -8.67311735946636       -0.52857297775951       -1.19352819124161
C           -7.32989994468229       -0.47754575842589       -0.85426054391309
N           -6.56626829476279       -1.41273831457100       -0.18257532616342
C           -7.11700991898515       -2.48488515353564        0.53465366408142
C           -7.91541597001502       -3.42724225822247       -0.10672788007986
C           -8.47890017413057       -4.46010221781011        0.62073164787011
C           -8.24814150053522       -4.56327231758331        1.98251074856447
C           -7.44918074862900       -3.62832331487818        2.62027025898152
C           -6.88893756172043       -2.58766160064591        1.90450230520545
H            2.41593605045155        0.87132008857308       -4.11117608044800
H            4.69451945991389        1.28715857744277       -4.88502479355345
H            6.17875092973228        0.00362280945406       -1.10110246203271
H            7.80519957776020       -0.86492543582492       -2.37411379916293
H            8.84682294353868       -0.35343254462692       -3.70035441219208
H            7.33545512672516       -1.20269908198748       -4.03759696620235
H            6.70876260902804        2.35907632774845       -5.01496521538939
H            6.76122534560711        0.69174035478330       -5.61542249008820
H            8.24708160322214        1.51676246464878       -5.16055785175920
H            8.77136728509699        2.06932978096316       -2.85102477895526
H            7.76214755029269        1.53663202378528       -1.51049778815795
H            7.20644481577130        2.83567952009918       -2.56334664941502
H           -0.74074237148767       -0.60866668364018       -1.37271663046545
H            0.01718997918524       -2.05874022559909        2.59654423489348
H            6.32943496592969        0.24178667127682        0.85490226542407
H            6.34599780167868       -1.36144100763807        4.80533303043684
H            3.99731007715961       -1.99624956379620        4.53813263937643
H            9.62062493138781        0.85130642560271        2.01140059857225
H            8.58228959739370       -0.09788118279924        0.95522982409765
H            8.04867575667209        1.48863390204048        1.54546164647750
H            9.86378300429042       -1.05028491014956        3.50649598081065
H            8.75520112672304       -2.05346799790854        2.56629136948727
H            8.47977657285475       -1.80701159579316        4.28904016131608
H            7.43729628706001        1.78648216291446        3.98635027708769
H            7.68090958427397        0.46858705293326        5.13018372570101
H            9.07172468141934        1.23582535865172        4.36728075681532
H           -0.60238994122773       -4.06789171365364        1.40870828129460
H           -1.85689742300441       -6.19033006954496        1.53194329473589
H           -4.26201391663621       -6.24391126499919        1.03801568959271
H           -5.47285992621152       -4.21733815208451        0.44600528767775
H           -0.22864012214820        0.89723860598259        1.41095940435080
H            0.91301626768708        3.05116990202912        1.38526422227147
H           -0.14722148051099        5.03831727434204        0.40736756329124
H           -2.42591093247563        4.90608359829068       -0.53394015485690
H           -3.79806329174282        4.31454201533344       -2.51499199563959
H           -5.46379805903581        6.10732722091765       -2.84261164592527
H           -7.42124025673444        6.26113759235260       -1.35067166917642
H           -7.70192057670737        4.63471033126731        0.48336437366619
H           -6.02315164582532        2.85876993706795        0.82553943428685
H           -6.45193032942862        2.45857443612458       -2.33227288979745
H           -8.80678776902862        2.34449067798196       -2.97238990713704
H          -10.23675123232058        0.49659563981776       -2.21629437678719
H           -9.29559576385835       -1.35680874276812       -0.89130947976808
H           -8.06656959443167       -3.36064790120778       -1.17371244287970
H           -9.09347134275706       -5.19302455831013        0.11901871079634
H           -8.68699847805119       -5.37365504809701        2.54472051260572
H           -7.26546099321570       -3.70737545424666        3.68126204799524
H           -6.26553946938857       -1.85439143550171        2.39363931127184

          :  Hamiltonian                  GFN2-xTB          :
         :: gradient norm              0.000064577037 Eh/a0 ::
         :: HOMO-LUMO gap              2.065446432123 eV    ::
         :: SCC energy              -178.657393127915 Eh    ::
         :: -> dispersion             -0.175528729371 Eh    ::
         :: repulsion energy           3.082041024298 Eh    ::

    * Orbital Energies and Occupations

         #    Occupation            Energy/Eh            Energy/eV
      -------------------------------------------------------------
         1        2.0000           -0.7273793             -19.7930
       ...           ...                  ...                  ...
       151        2.0000           -0.4001448             -10.8885
       152        2.0000           -0.3989427             -10.8558
       153        2.0000           -0.3984666             -10.8428
       154        2.0000           -0.3902336             -10.6188
       155        2.0000           -0.3868857             -10.5277
       156        2.0000           -0.3861088             -10.5066
       157        2.0000           -0.3837439             -10.4422
       158        2.0000           -0.3833006             -10.4301
       159        2.0000           -0.3811388             -10.3713
       160        2.0000           -0.3651502              -9.9362
       161        2.0000           -0.3648099              -9.9270
       162        2.0000           -0.3455758              -9.4036
       163        2.0000           -0.3451398              -9.3917 (HOMO)
       164                         -0.2692360              -7.3263 (LUMO)
       165                         -0.2406140              -6.5474
       166                         -0.2387921              -6.4979
       167                         -0.2313264              -6.2947
       168                         -0.2299332              -6.2568
       169                         -0.2291611              -6.2358
       170                         -0.2288322              -6.2268
       171                         -0.2255648              -6.1379
       172                         -0.2251404              -6.1264
       173                         -0.2186385              -5.9495
       174                         -0.2175123              -5.9188
       ...                                ...                  ...
       320                          0.7833264              21.3154
      -------------------------------------------------------------
                  HL-Gap            0.0759037 Eh            2.0654 eV

     #   Z          covCN         q      C6AA      α(0)
     1   5 B        2.725     0.211    18.230     7.154
     2   6 C        2.882    -0.092    30.315     9.026
     3   6 C        2.878     0.135    25.049     8.205
     4   6 C        2.914    -0.055    29.376     8.888
     5   6 C        2.926    -0.036    28.893     8.815
     6   6 C        2.969    -0.000    28.026     8.684
     7   6 C        2.933    -0.040    28.990     8.830
     8   6 C        3.903     0.026    20.089     6.371
     9   6 C        3.762    -0.106    22.573     6.773
    10   6 C        3.761    -0.108    22.614     6.779
    11   6 C        3.761    -0.106    22.574     6.773
    12   8 O        1.711    -0.221    17.659     5.674
    13   6 C        2.874     0.143    24.888     8.178
    14   6 C        2.917    -0.078    29.939     8.973
    15   6 C        2.919     0.072    26.383     8.423
    16   6 C        2.916    -0.083    30.070     8.992
    17   6 C        2.874     0.140    24.939     8.187
    18   6 C        2.888    -0.125    31.186     9.156
    19   8 O        1.711    -0.223    17.701     5.680
    20   6 C        2.877     0.135    25.052     8.205
    21   6 C        2.882    -0.092    30.318     9.027
    22   6 C        2.931    -0.044    29.093     8.846
    23   6 C        2.969     0.000    28.025     8.683
    24   6 C        2.928    -0.032    28.790     8.799
    25   6 C        2.913    -0.055    29.370     8.887
    26   6 C        3.903     0.025    20.090     6.371
    27   6 C        3.761    -0.106    22.579     6.774
    28   6 C        3.762    -0.106    22.575     6.773
    29   6 C        3.762    -0.106    22.575     6.773
    30   7 N        2.804    -0.037    21.960     6.960
    31   6 C        3.082     0.044    26.933     8.508
    32   6 C        2.911    -0.052    29.290     8.874
    33   6 C        2.923    -0.036    28.892     8.815
    34   6 C        2.919    -0.042    29.033     8.836
    35   6 C        2.915    -0.041    29.024     8.834
    36   6 C        3.060    -0.015    28.315     8.726
    37   6 C        3.053    -0.047    29.114     8.849
    38   6 C        3.065     0.041    27.010     8.522
    39   6 C        3.055    -0.047    29.123     8.850
    40   6 C        3.065     0.042    26.995     8.520
    41   6 C        3.056    -0.048    29.125     8.851
    42   6 C        3.066     0.041    27.011     8.522
    43   6 C        3.060    -0.014    28.307     8.725
    44   6 C        2.914    -0.040    28.992     8.829
    45   6 C        2.919    -0.041    29.024     8.835
    46   6 C        2.924    -0.036    28.889     8.814
    47   6 C        2.911    -0.052    29.292     8.875
    48   6 C        3.086     0.044    26.914     8.504
    49   7 N        2.803    -0.045    22.103     6.983
    50   6 C        2.917     0.070    26.438     8.432
    51   6 C        2.922    -0.041    29.021     8.834
    52   6 C        2.920    -0.028    28.709     8.787
    53   6 C        2.920    -0.032    28.792     8.799
    54   6 C        2.920    -0.026    28.648     8.777
    55   6 C        2.922    -0.036    28.893     8.815
    56   6 C        3.063    -0.015    28.328     8.728
    57   6 C        2.914    -0.039    28.981     8.828
    58   6 C        2.920    -0.042    29.043     8.837
    59   6 C        2.924    -0.036    28.906     8.817
    60   6 C        2.911    -0.053    29.305     8.877
    61   6 C        3.081     0.044    26.935     8.508
    62   7 N        2.803    -0.043    22.075     6.978
    63   6 C        2.916     0.070    26.439     8.432
    64   6 C        2.921    -0.042    29.041     8.837
    65   6 C        2.920    -0.028    28.708     8.786
    66   6 C        2.919    -0.032    28.808     8.802
    67   6 C        2.920    -0.026    28.655     8.778
    68   6 C        2.923    -0.038    28.933     8.821
    69   1 H        0.926     0.043     2.410     2.428
    70   1 H        0.926     0.042     2.424     2.435
    71   1 H        0.926     0.039     2.463     2.454
    72   1 H        0.925     0.036     2.502     2.473
    73   1 H        0.925     0.037     2.482     2.464
    74   1 H        0.925     0.034     2.533     2.489
    75   1 H        0.925     0.036     2.503     2.474
    76   1 H        0.925     0.036     2.505     2.475
    77   1 H        0.925     0.036     2.498     2.472
    78   1 H        0.925     0.037     2.485     2.465
    79   1 H        0.925     0.037     2.496     2.470
    80   1 H        0.925     0.034     2.533     2.489
    81   1 H        0.926     0.054     2.270     2.356
    82   1 H        0.926     0.055     2.260     2.351
    83   1 H        0.926     0.044     2.394     2.419
    84   1 H        0.926     0.035     2.513     2.479
    85   1 H        0.926     0.043     2.410     2.428
    86   1 H        0.925     0.037     2.493     2.469
    87   1 H        0.925     0.034     2.531     2.488
    88   1 H        0.925     0.036     2.505     2.475
    89   1 H        0.925     0.037     2.484     2.465
    90   1 H        0.925     0.034     2.533     2.489
    91   1 H        0.925     0.037     2.495     2.470
    92   1 H        0.925     0.034     2.528     2.486
    93   1 H        0.925     0.036     2.496     2.471
    94   1 H        0.925     0.037     2.483     2.464
    95   1 H        0.926     0.029     2.598     2.520
    96   1 H        0.926     0.027     2.632     2.537
    97   1 H        0.926     0.024     2.675     2.558
    98   1 H        0.926     0.028     2.617     2.530
    99   1 H        0.926     0.026     2.649     2.545
   100   1 H        0.926     0.022     2.696     2.568
   101   1 H        0.926     0.026     2.646     2.544
   102   1 H        0.926     0.026     2.649     2.545
   103   1 H        0.926     0.041     2.431     2.438
   104   1 H        0.926     0.035     2.510     2.477
   105   1 H        0.926     0.035     2.518     2.481
   106   1 H        0.926     0.036     2.500     2.473
   107   1 H        0.926     0.039     2.467     2.456
   108   1 H        0.926     0.026     2.640     2.541
   109   1 H        0.926     0.023     2.682     2.561
   110   1 H        0.926     0.026     2.645     2.543
   111   1 H        0.926     0.027     2.636     2.539
   112   1 H        0.926     0.042     2.428     2.437
   113   1 H        0.926     0.035     2.515     2.480
   114   1 H        0.926     0.035     2.523     2.484
   115   1 H        0.926     0.036     2.499     2.472
   116   1 H        0.926     0.039     2.458     2.452

molecular dipole:
                 x           y           z       tot (Debye)
 q only:        0.774       0.293       0.018
   full:        0.644       0.274       0.068       1.786

 projected vibrational frequencies (cm⁻¹)
eigval :       -0.00    -0.00    -0.00     0.00     0.00     0.00
eigval :        8.48    10.27    11.96    23.09    25.43    28.23
eigval :       30.26    37.89    40.04    43.71    50.04    52.19
eigval :       60.74    62.62    71.44    74.58    80.20    81.42
eigval :       94.48   102.15   109.50   113.59   119.66   129.76
eigval :      133.00   140.50   150.55   164.78   170.71   173.34
eigval :      175.67   196.11   207.97   209.78   216.59   220.94
eigval :      224.45   224.70   227.75   232.87   240.17   245.06
eigval :      251.25   256.80   268.66   272.56   277.62   281.99
eigval :      290.91   305.48   315.48   319.43   322.05   329.68
eigval :      348.39   352.58   361.08   363.90   366.02   378.29
eigval :      379.99   381.82   383.66   385.19   389.93   392.52
eigval :      396.74   401.29   414.18   415.36   432.28   436.00
eigval :      436.76   442.51   448.12   449.71   454.11   470.02
eigval :      475.35   482.59   489.91   505.98   517.19   518.42
eigval :      527.81   538.59   544.73   548.74   555.66   563.46
eigval :      569.85   574.23   581.65   583.59   590.59   593.49
eigval :      597.72   605.77   609.48   617.18   624.60   628.08
eigval :      633.79   643.46   651.37   655.34   661.70   670.14
eigval :      671.14   675.91   689.35   694.04   698.02   698.96
eigval :      702.32   703.17   710.74   716.82   730.35   730.69
eigval :      750.29   764.74   767.67   772.88   775.10   776.62
eigval :      812.43   826.33   828.87   831.26   835.74   845.27
eigval :      846.20   852.97   859.41   868.56   869.45   872.11
eigval :      873.66   874.11   874.82   878.79   879.87   882.69
eigval :      894.91   899.19   900.86   902.20   905.24   907.77
eigval :      912.97   916.35   921.06   921.60   922.44   923.00
eigval :      924.23   928.44   928.79   933.12   934.79   941.64
eigval :      960.19   960.72   961.11   962.60   963.04   963.58
eigval :      968.52   986.68   989.17  1001.41  1024.80  1034.68
eigval :     1035.51  1035.90  1036.26  1077.94  1078.70  1079.14
eigval :     1079.62  1081.26  1084.98  1086.69  1092.21  1092.92
eigval :     1116.39  1117.28  1133.50  1139.07  1141.51  1144.07
eigval :     1146.98  1148.94  1172.08  1178.09  1180.26  1180.78
eigval :     1181.12  1181.72  1183.71  1185.26  1190.99  1193.06
eigval :     1213.27  1216.40  1219.99  1222.22  1227.99  1228.63
eigval :     1230.77  1233.09  1237.56  1243.67  1250.03  1253.02
eigval :     1253.88  1262.99  1273.52  1274.78  1279.49  1287.24
eigval :     1294.55  1295.51  1297.93  1299.21  1301.96  1315.79
eigval :     1316.23  1328.02  1331.67  1337.01  1338.03  1344.02
eigval :     1346.99  1362.82  1367.10  1368.09  1388.26  1395.03
eigval :     1395.70  1400.48  1402.04  1405.52  1406.12  1406.47
eigval :     1411.17  1413.30  1429.42  1429.57  1429.65  1433.19
eigval :     1434.32  1437.11  1439.14  1440.63  1449.68  1456.16
eigval :     1473.61  1476.21  1476.55  1481.42  1481.89  1484.66
eigval :     1491.87  1492.09  1494.36  1494.62  1500.39  1501.53
eigval :     1505.14  1505.39  1514.73  1515.32  1519.58  1520.80
eigval :     1536.40  1546.82  1550.87  1566.96  1568.99  1576.39
eigval :     1580.73  1581.92  1584.67  1590.58  1592.11  1594.73
eigval :     1595.41  1595.95  1600.88  1602.22  1603.90  1604.69
eigval :     3021.05  3022.30  3023.98  3024.03  3025.85  3027.92
eigval :     3030.07  3030.84  3031.29  3032.13  3034.54  3036.56
eigval :     3037.60  3038.99  3046.62  3047.56  3051.13  3051.57
eigval :     3074.97  3076.49  3076.76  3078.15  3079.10  3082.47
eigval :     3082.86  3083.09  3084.28  3085.12  3086.36  3090.00
eigval :     3091.65  3092.11  3093.33  3094.32  3094.77  3095.88
eigval :     3096.95  3097.40  3100.08  3100.29  3111.76  3113.05
eigval :     3115.73  3117.54  3127.66  3136.49  3144.79  3149.14

   temp. (K)  partition function   enthalpy   heat capacity  entropy
                                   cal/mol     cal/K/mol   cal/K/mol   J/K/mol
 298.15  VIB  0.179E+26            33490.568    212.147    206.702
         ROT  0.220E+09              888.752      2.981     41.155
         INT  0.393E+34            34379.321    215.128    247.857
         TR   0.252E+29             1481.254      4.968     46.172
         TOT                       35860.5748   220.0958   294.0293  1230.2184

       T/K    H(0)-H(T)+PV         H(T)/Eh          T*S/Eh         G(T)/Eh
   ------------------------------------------------------------------------
    298.15    0.571475E-01    0.970896E+00    0.139703E+00    0.831193E+00
   ------------------------------------------------------------------------

         :::::::::::::::::::::::::::::::::::::::::::::::::::::
         ::                  THERMODYNAMIC                  ::
         :::::::::::::::::::::::::::::::::::::::::::::::::::::
         :: total free energy        -174.744158826191 Eh   ::
         ::.................................................::
         :: total energy             -175.575352103615 Eh   ::
         :: zero point energy           0.913748600067 Eh   ::
         :: G(RRHO) w/o ZPVE           -0.082555322643 Eh   ::
         :: G(RRHO) contrib.            0.831193277424 Eh   ::
         :::::::::::::::::::::::::::::::::::::::::::::::::::::

           -------------------------------------------------
          | TOTAL ENERGY             -175.575352103615 Eh   |
          | TOTAL ENTHALPY           -174.604456040067 Eh   |
          | TOTAL FREE ENERGY        -174.744158826191 Eh   |
          | GRADIENT NORM               0.000064572503 Eh/α |
          | HOMO-LUMO GAP               2.065446039398 eV   |
           -------------------------------------------------

 * finished run on 2025/06/07 at 00:19:12.796
