   * xtb version 6.7.1 (edcfbbe) compiled by 'albert@albert-system' on 2024-07-22

   ID    Z sym.   atoms
    1    5 B      1
    2    6 C      2-11, 13-18, 20-29, 31-48, 50-61, 63-68
    3    8 O      12, 19
    4    7 N      30, 49, 62
    5    1 H      69-116

          program call               : xtb data250606/gas/TDBA-DI/TDBA-DI_gas_S0_finalOpt.xtbopt.xyz --gfn 2 --spinpol --tblite --uhf 2 --ohess vtight --parallel 14 --molden --ceasefiles --namespace data250606/gas/TDBA-DI/TDBA-DI_gas_T1_preOpt
 * total energy  :  -175.4820215 Eh     change       -0.3276625E-08 Eh
 * total energy  :  -175.4828428 Eh     change       -0.8213413E-03 Eh
 * total energy  :  -175.4830857 Eh     change       -0.2429342E-03 Eh
 * total energy  :  -175.4831263 Eh     change       -0.4055721E-04 Eh
 * total energy  :  -175.4831658 Eh     change       -0.3949202E-04 Eh
 * total energy  :  -175.4831811 Eh     change       -0.1533916E-04 Eh
 * total energy  :  -175.4831931 Eh     change       -0.1200943E-04 Eh
 * total energy  :  -175.4832009 Eh     change       -0.7785131E-05 Eh
 * total energy  :  -175.4832072 Eh     change       -0.6268808E-05 Eh
 * total energy  :  -175.4832152 Eh     change       -0.8058906E-05 Eh
 * total energy  :  -175.4832372 Eh     change       -0.5241247E-06 Eh
 * total energy  :  -175.4832376 Eh     change       -0.4300268E-06 Eh
 * total energy  :  -175.4832381 Eh     change       -0.4359943E-06 Eh
 * total energy  :  -175.4832384 Eh     change       -0.3393769E-06 Eh
 * total energy  :  -175.4832387 Eh     change       -0.2693459E-06 Eh
 * total energy  :  -175.4832388 Eh     change       -0.1180279E-06 Eh
 * total energy  :  -175.4832387 Eh     change        0.8751118E-07 Eh
 * total energy  :  -175.4832389 Eh     change       -0.2229251E-06 Eh
 * total energy  :  -175.4832390 Eh     change       -0.4147228E-07 Eh
   *** GEOMETRY OPTIMIZATION CONVERGED AFTER 38 ITERATIONS ***

 final structure:
================
116
 xtb: 6.7.1 (edcfbbe)
B            4.35231997247118       -0.44393950791427       -0.22820066905489
C            4.65916981047524        0.96507010703995       -0.78681923027211
C            3.58936914369840        1.67356940775217       -1.37697761443078
C            3.78285615361818        2.93414312315537       -1.93545177564731
C            5.02727309140546        3.52971784814171       -1.90262693964031
C            6.10905619844493        2.88659737263516       -1.29567305061738
C            5.89266510165529        1.63020816843693       -0.75161252409725
C            7.46188661041588        3.57966782068091       -1.25979429084120
C            8.54384830808594        2.74147943960939       -0.57270869004742
C            7.91926426060243        3.85973787154667       -2.69857537873607
C            7.32355906573387        4.90272542768901       -0.49271826802211
O            2.30432522681212        1.21774805723872       -1.44750306244902
C            1.92906590450430        0.05511791790436       -0.86108016084613
C            0.57761356371896       -0.25092906247486       -0.88632249711838
C            0.12446848379471       -1.42073725381972       -0.26511853643250
C            1.03786727296442       -2.29506485967573        0.33414385986301
C            2.38976186826702       -1.98093564018756        0.32034966183318
C            2.87610832018685       -0.79522638156688       -0.25929518577121
O            3.22770042772255       -2.86379988725826        0.92102682055346
C            4.58212505754504       -2.68929429353884        0.90852167969054
C            5.23900288427471       -1.56589908556446        0.35836018400847
C            6.64075783970630       -1.60101630822072        0.38220349120999
C            7.37853404974462       -2.62979676554852        0.94510202031571
C            6.68018026326286       -3.69906647536328        1.51313994033926
C            5.30095144506415       -3.73177154321433        1.48688659432878
C            8.89871033801830       -2.63846781997037        0.96890608755261
C            9.37683265451339       -2.69759019289934        2.42689392172141
C            9.51251609362563       -1.39547532609172        0.31816969255881
C            9.40125193449349       -3.87372139270250        0.20765488138260
N           -1.24640118680161       -1.70009906511097       -0.23120148100531
C           -1.81133278628286       -2.82501389279956       -0.80498341467771
C           -1.17012589376190       -3.93569273027339       -1.32631720801373
C           -1.94678066154595       -4.90784795502534       -1.93259939898464
C           -3.32203556239366       -4.74537495157023       -2.05007147205972
C           -3.96266221438314       -3.62547772843155       -1.55159183220177
C           -3.21563898836680       -2.65779427152534       -0.88565974694766
C           -3.50257804121358       -1.37431927883208       -0.30292881771887
C           -4.65235682843221       -0.61702090517842       -0.07485352446362
C           -4.57582554444262        0.76557555333763        0.29873715007332
C           -3.30453445547920        1.31396527602808        0.54279981765211
C           -2.15726362081823        0.48505144829290        0.61172770929371
C           -2.24445449174539       -0.81640562572688        0.07406550960643
C           -1.11190458833342        1.28114727320721        1.17252049274428
C            0.17395597881164        1.02068701024008        1.65319285888193
C            0.94935550531503        2.07475718698124        2.08425426974935
C            0.47090799417422        3.38576774390748        2.05870932128809
C           -0.82617593594859        3.66230363663994        1.67349289882996
C           -1.62591232614846        2.60132666691254        1.27448957771645
N           -2.95109051437398        2.60162521722534        0.89509760053867
C           -3.67310375828144        3.76867576722631        0.60516614313428
C           -4.22297645597922        3.94173840953761       -0.66311409064942
C           -4.91511280403344        5.09946955141610       -0.96079443980872
C           -5.05559037261931        6.09426567231262       -0.00606870996367
C           -4.50604632178255        5.92437987454122        1.25444532931108
C           -3.81705921429026        4.76636487374441        1.56562979371702
C           -5.92355446453638        1.22533960546763        0.43207654914406
C           -6.52418993222321        2.40947705909750        0.86841837601791
C           -7.90171732760204        2.48591823571471        0.92376355894289
C           -8.70313284950165        1.40186337571617        0.58535098303010
C           -8.13690281582424        0.19766328399380        0.19407646582964
C           -6.75908409575715        0.12373167484212        0.11521742834667
N           -5.97329453030722       -0.97526656609159       -0.18837026812017
C           -6.48392345307871       -2.28314687375469       -0.21784674101915
C           -7.46630095684217       -2.63102693312650       -1.14092037949757
C           -7.98423592383250       -3.91319930416335       -1.14213486684925
C           -7.52885913267255       -4.85194619881306       -0.23034047374239
C           -6.55104988260118       -4.50497644497565        0.68859210722164
C           -6.03087838576541       -3.22542546755181        0.70230802121214
H            2.93821598153884        3.43545161218733       -2.38357361034961
H            5.14441593353899        4.50697307069001       -2.34487912369398
H            6.70352944882531        1.12402770270310       -0.25998526872797
H            8.28218534823329        2.53728069596660        0.46297072272089
H            9.48466234980326        3.28880650871427       -0.57929363055346
H            8.70028230687592        1.80045863410396       -1.09484714358655
H            7.21995450597540        4.50889392765975       -3.21788095269118
H            7.99674781668570        2.92803496404506       -3.25516499561104
H            8.89441384969398        4.34280563587331       -2.69514480487869
H            8.28414630685744        5.41205042789332       -0.44630191808476
H            6.98296762723480        4.71302724377428        0.52313031357401
H            6.60912469019540        5.56562812477296       -0.97274593058987
H           -0.11534532254008        0.41550260107019       -1.37385992789853
H            0.69859751306142       -3.18473563509656        0.84117358960703
H            7.15434517379862       -0.77768568575564       -0.08004765392459
H            7.20811090079164       -4.52177825711250        1.96990367175408
H            4.75731303557603       -4.56531726146433        1.90557887655372
H           10.46434918473491       -2.68950791364723        2.46571378239007
H            9.00462526227024       -1.83678376219004        2.97859627816190
H            9.02567363891713       -3.59768583668258        2.92351074902038
H           10.59797271527574       -1.46010941613786        0.36638431503613
H            9.20750665514348       -0.49031923890817        0.83810440330623
H            9.22742803877254       -1.32052396268920       -0.72868537359095
H            9.04508258975462       -4.79260274293075        0.66490770734505
H            9.05068081157650       -3.84752164061633       -0.82207150492079
H           10.48929061489722       -3.89460663009551        0.20240208601647
H           -0.09659852516417       -4.03023094180600       -1.28120318801597
H           -1.47451701758663       -5.78807245902529       -2.34157823125646
H           -3.90358341930135       -5.50073826006454       -2.55742726278799
H           -5.02048830018894       -3.50716600258522       -1.70912248304237
H            0.55013044882368        0.01399365438101        1.71653403443582
H            1.94969428834327        1.88468949614875        2.44316556697109
H            1.11683664083758        4.19286291452626        2.36947025174621
H           -1.20230553698911        4.67371249431629        1.68222745707913
H           -4.10616551518095        3.16302398678527       -1.40165829395272
H           -5.34229182159265        5.22897903369184       -1.94373437022976
H           -5.59481887879644        6.99883143412441       -0.24260447085147
H           -4.62130174029946        6.69414124764527        2.00305351879072
H           -3.41345871814409        4.61594354177642        2.55566351511436
H           -5.93455018081287        3.25189040719879        1.18276085321982
H           -8.36462871565659        3.40462605983713        1.25213996729204
H           -9.77726400357563        1.48823853138677        0.64765434867365
H           -8.75665788071261       -0.65907886903596       -0.02050620347405
H           -7.79922603033265       -1.90251844920891       -1.86526443497503
H           -8.74169620250759       -4.18250335140536       -1.86330855679554
H           -7.93419684813939       -5.85225559140930       -0.23735570748270
H           -6.19566525313979       -5.23380003561857        1.40125574672329
H           -5.27237936706411       -2.94565983002877        1.41758434843757

 projected vibrational frequencies (cm⁻¹)
eigval :       -0.00    -0.00    -0.00    -0.00     0.00     0.00
eigval :        7.56     9.85    11.35    22.37    24.72    28.23
eigval :       30.23    36.47    39.10    44.26    47.33    52.56
eigval :       60.95    62.96    68.88    74.24    76.81    82.03
eigval :       92.79    96.34   106.67   113.79   120.96   122.98
eigval :      133.96   140.07   153.82   156.96   169.86   173.93
eigval :      176.86   191.12   195.28   208.65   212.28   220.40
eigval :      223.09   224.29   224.99   229.98   230.72   239.67
eigval :      250.15   252.70   258.04   266.03   270.42   277.42
eigval :      290.25   299.06   320.36   320.62   326.02   330.19
eigval :      335.18   344.89   356.56   361.77   362.03   369.10
eigval :      374.94   378.28   379.29   380.00   387.00   388.10
eigval :      395.02   399.09   406.43   407.49   418.16   422.53
eigval :      424.40   439.86   440.27   442.54   450.09   467.87
eigval :      472.71   478.33   481.66   487.04   509.82   513.47
eigval :      515.71   530.20   533.46   538.85   551.07   551.23
eigval :      560.87   570.38   575.78   578.37   585.58   588.20
eigval :      593.09   595.16   596.18   605.26   610.02   612.50
eigval :      617.27   637.48   645.81   648.25   655.38   663.20
eigval :      667.55   668.74   672.39   686.46   691.35   694.31
eigval :      695.23   696.72   704.65   705.10   723.82   727.28
eigval :      747.34   759.93   762.40   763.98   769.47   770.05
eigval :      802.94   807.10   811.67   812.37   815.20   823.30
eigval :      832.03   841.81   845.83   849.24   850.05   854.54
eigval :      863.47   867.43   869.46   871.56   875.85   877.35
eigval :      885.49   888.16   890.02   897.26   897.55   898.70
eigval :      899.49   901.56   905.21   906.43   913.60   918.00
eigval :      922.69   926.96   927.09   931.82   933.03   936.14
eigval :      954.94   958.13   959.91   960.37   962.50   962.65
eigval :      962.85   966.14   981.18   988.69   990.55  1013.26
eigval :     1029.68  1034.08  1034.10  1034.50  1035.64  1056.54
eigval :     1066.27  1071.66  1076.42  1077.21  1077.84  1080.09
eigval :     1086.44  1093.87  1116.33  1117.20  1125.81  1129.70
eigval :     1131.59  1136.95  1142.02  1144.59  1151.58  1169.82
eigval :     1173.37  1179.98  1180.06  1181.70  1182.58  1186.31
eigval :     1187.71  1188.21  1205.63  1207.98  1209.26  1212.57
eigval :     1223.82  1225.11  1225.26  1228.48  1228.77  1230.92
eigval :     1236.76  1243.68  1247.34  1256.47  1260.63  1270.87
eigval :     1273.48  1279.87  1280.57  1288.90  1290.29  1293.37
eigval :     1296.03  1310.28  1315.36  1317.06  1318.04  1324.94
eigval :     1328.79  1334.20  1340.95  1356.67  1363.61  1369.00
eigval :     1376.40  1377.90  1384.69  1396.54  1399.82  1404.14
eigval :     1404.37  1405.04  1405.28  1407.03  1414.67  1415.02
eigval :     1426.19  1427.66  1428.62  1432.62  1435.90  1437.27
eigval :     1445.83  1450.93  1457.51  1466.95  1471.74  1474.61
eigval :     1475.88  1477.92  1484.54  1488.46  1491.52  1491.59
eigval :     1494.74  1494.89  1500.06  1502.46  1503.93  1504.02
eigval :     1513.47  1513.83  1514.87  1516.32  1519.35  1524.36
eigval :     1540.90  1546.35  1552.25  1557.54  1563.22  1563.41
eigval :     1567.35  1569.56  1573.31  1579.69  1582.08  1585.20
eigval :     3018.74  3019.22  3020.43  3020.62  3027.08  3027.14
eigval :     3027.43  3027.95  3031.25  3031.30  3035.37  3035.83
eigval :     3037.95  3038.15  3047.49  3047.63  3050.64  3050.88
eigval :     3080.42  3080.96  3081.40  3081.62  3082.21  3082.37
eigval :     3083.13  3084.60  3084.71  3089.32  3089.69  3091.76
eigval :     3092.00  3093.17  3094.01  3094.25  3096.33  3096.78
eigval :     3099.24  3099.81  3101.41  3101.89  3101.95  3103.08
eigval :     3108.94  3127.80  3139.87  3143.58  3151.32  3151.78

   temp. (K)  partition function   enthalpy   heat capacity  entropy
                                   cal/mol     cal/K/mol   cal/K/mol   J/K/mol
 298.15  VIB  0.481E+26            33944.388    214.929    209.654
         ROT  0.217E+09              888.752      2.981     41.126
         INT  0.104E+35            34833.140    217.909    250.780
         TR   0.252E+29             1481.254      4.968     46.172
         TOT                       36314.3940   222.8776   296.9528  1242.4504

       T/K    H(0)-H(T)+PV         H(T)/Eh          T*S/Eh         G(T)/Eh
   ------------------------------------------------------------------------
    298.15    0.578707E-01    0.964060E+00    0.141092E+00    0.822968E+00
   ------------------------------------------------------------------------

         :::::::::::::::::::::::::::::::::::::::::::::::::::::
         ::                  THERMODYNAMIC                  ::
         :::::::::::::::::::::::::::::::::::::::::::::::::::::
         :: total free energy        -174.660270879014 Eh   ::
         ::.................................................::
         :: total energy             -175.483239090164 Eh   ::
         :: zero point energy           0.906189384412 Eh   ::
         :: G(RRHO) w/o ZPVE           -0.083221173262 Eh   ::
         :: G(RRHO) contrib.            0.822968211150 Eh   ::
         :::::::::::::::::::::::::::::::::::::::::::::::::::::

           -------------------------------------------------
          | TOTAL ENERGY             -175.483239090164 Eh   |
          | TOTAL ENTHALPY           -174.519179035338 Eh   |
          | TOTAL FREE ENERGY        -174.660270879014 Eh   |
          | GRADIENT NORM               0.000099303059 Eh/α |
           -------------------------------------------------

 * finished run on 2025/06/07 at 01:01:29.677
