   * xtb version 6.7.1 (edcfbbe) compiled by 'albert@albert-system' on 2024-07-22

   ID    Z sym.   atoms
    1    5 B      1
    2    6 C      2-11, 13-18, 20-29, 31-48, 50-61, 63-68
    3    8 O      12, 19
    4    7 N      30, 49, 62
    5    1 H      69-116

          program call               : xtb data250606/gas/TDBA-DI/TDBA-DI_gas_S0_crest.xyz --gfn 2 --ohess vtight --parallel 14 --molden --ceasefiles --namespace data250606/gas/TDBA-DI/TDBA-DI_gas_S0_finalOpt
          :  Hamiltonian                  GFN2-xTB          :
 * total energy  :  -175.5758702 Eh     change       -0.8618258E-08 Eh
 * total energy  :  -175.5758719 Eh     change       -0.1647278E-05 Eh
 * total energy  :  -175.5758739 Eh     change       -0.2023448E-05 Eh
 * total energy  :  -175.5758797 Eh     change       -0.5825565E-05 Eh
 * total energy  :  -175.5758824 Eh     change       -0.2641186E-05 Eh
 * total energy  :  -175.5758848 Eh     change       -0.2423316E-05 Eh
 * total energy  :  -175.5758885 Eh     change       -0.3751099E-05 Eh
 * total energy  :  -175.5758921 Eh     change       -0.3549028E-05 Eh
 * total energy  :  -175.5758944 Eh     change       -0.2316946E-05 Eh
 * total energy  :  -175.5758972 Eh     change       -0.2794927E-05 Eh
 * total energy  :  -175.5759680 Eh     change       -0.1952614E-06 Eh
 * total energy  :  -175.5759683 Eh     change       -0.2754871E-06 Eh
 * total energy  :  -175.5759685 Eh     change       -0.2545824E-06 Eh
 * total energy  :  -175.5759687 Eh     change       -0.2281395E-06 Eh
 * total energy  :  -175.5759690 Eh     change       -0.2452412E-06 Eh
 * total energy  :  -175.5759693 Eh     change       -0.3355383E-06 Eh
 * total energy  :  -175.5759698 Eh     change       -0.4759017E-06 Eh
 * total energy  :  -175.5759704 Eh     change       -0.5781670E-06 Eh
 * total energy  :  -175.5759704 Eh     change       -0.6158018E-08 Eh
   *** GEOMETRY OPTIMIZATION CONVERGED AFTER 68 ITERATIONS ***

 final structure:
================
116
 xtb: 6.7.1 (edcfbbe)
B            4.34492424742572       -0.46201802625600       -0.23158280937795
C            4.64494390238541        0.94392684941534       -0.80290831758792
C            3.57795413784064        1.62538813443328       -1.41240125023014
C            3.77301024986007        2.88313568876385       -1.98556519523574
C            5.00773739463518        3.48317734472758       -1.93891688330353
C            6.09040540703946        2.86134389901684       -1.30808553015490
C            5.87661876145917        1.61314845753631       -0.75753035782242
C            7.43303616663660        3.57435349102530       -1.25372566155349
C            8.51138320669526        2.75270852771896       -0.54134922601175
C            7.91237435564245        3.84940068786987       -2.68594557071070
C            7.26338102325917        4.89964838430444       -0.49784364898978
O            2.30176653856469        1.15580326567239       -1.49626124801578
C            1.92673887471182        0.01604850630378       -0.87878235635343
C            0.57441113622898       -0.29865726272857       -0.89015456160054
C            0.13467394129057       -1.43010335813491       -0.21238683382623
C            1.03547224961217       -2.28304255243461        0.41541553553229
C            2.39123286476947       -1.98103883760997        0.37718935487091
C            2.86405077642191       -0.81830201793956       -0.25077046241705
O            3.23245709819195       -2.83716580080083        0.99811324629445
C            4.58475230910165       -2.66964849220822        0.95588619784045
C            5.23891626125253       -1.57524990065520        0.36575879803049
C            6.64094712558802       -1.60568894352560        0.36464188768139
C            7.38545153834706       -2.61634618442571        0.94050670281546
C            6.68900463302885       -3.66406059798307        1.55173627437116
C            5.31567515871685       -3.69709316198465        1.55443883381481
C            8.90647331925685       -2.63429425458752        0.93525302967098
C            9.41169878128587       -2.65240277927763        2.38483403773225
C            9.51059395783578       -1.41273718150750        0.23656812485715
C            9.38803882630418       -3.89307218883420        0.20036529764787
N           -1.23767450625463       -1.71192860210224       -0.16880262143770
C           -1.79888450397952       -2.82806067732921       -0.75834344209451
C           -1.16051645522804       -3.95168317264402       -1.25949021685039
C           -1.93354387506601       -4.91096856316210       -1.88280424345554
C           -3.30423677601318       -4.72948743961882       -2.03922269344056
C           -3.93971436179790       -3.60261270156954       -1.55830947005208
C           -3.19679272228268       -2.64458238567023       -0.87331766159008
C           -3.48303262332202       -1.35908145841496       -0.29324682376339
C           -4.64206493591720       -0.59843074532805       -0.07128664479980
C           -4.56834944185135        0.76423974262263        0.30318116102531
C           -3.30181684719428        1.31240309714842        0.56411129526391
C           -2.15404086130798        0.48804369171259        0.63066141022123
C           -2.24180258146730       -0.80684803863936        0.09677939480767
C           -1.10178976339745        1.29767793300409        1.18307223772932
C            0.18262099398193        1.04770208341414        1.65974724124001
C            0.95360922170502        2.10652208598427        2.09435258049976
C            0.46694063030030        3.41008267536630        2.07100765215147
C           -0.83232120775527        3.67525637454971        1.68475716318190
C           -1.62264388339923        2.60876078835121        1.28437956946842
N           -2.95349291902076        2.60162939900994        0.91139724452049
C           -3.67690810197705        3.76620428728400        0.61585485931527
C           -4.22338101473409        3.93630967743693       -0.65362136581570
C           -4.91667250089971        5.09258760463278       -0.95622318841024
C           -5.05924325546106        6.08993499689149       -0.00532660262442
C           -4.51252850341397        5.92392251598877        1.25638147649656
C           -3.82446998559509        4.76630346368689        1.57243561911763
C           -5.92546245390183        1.22939442294126        0.42218292197705
C           -6.52948279568136        2.40637665346972        0.85699035608550
C           -7.90680940604233        2.48243429490714        0.89973452867202
C           -8.70377635963603        1.39709882980991        0.54962256821261
C           -8.13481298474079        0.20110971558349        0.16057076229975
C           -6.75187648189802        0.12886533037653        0.09366472801759
N           -5.96280647409629       -0.96448563934078       -0.20541014917177
C           -6.46635516364386       -2.27475371987139       -0.23719865863761
C           -7.44010414223409       -2.62888694366666       -1.16569521700941
C           -7.95267483246272       -3.91374267039589       -1.16829713253129
C           -7.49798332411636       -4.84873150864901       -0.25334290790103
C           -6.52808988907368       -4.49607739520714        0.67072650388274
C           -6.01579329294804       -3.21289911786533        0.68707556163469
H            2.93125219240960        3.37220851614690       -2.45155708326185
H            5.12532326720340        4.45712918803255       -2.38906909739441
H            6.68104019198424        1.11723116032922       -0.24450153450211
H            8.23400768482619        2.55351531882235        0.49128716200710
H            9.44585774884338        3.31033123127529       -0.53523143606600
H            8.68807881795215        1.81003643900062       -1.05422419463686
H            7.21656000537572        4.48865353431390       -3.22193811851532
H            8.00963183052107        2.91535539388546       -3.23553363020805
H            8.88215319281552        4.34238169668448       -2.66846109733561
H            8.21626340532664        5.42118242219255       -0.43579963827701
H            6.90536425053178        4.71246359264226        0.51245123990438
H            6.55076048988534        5.55127344936740       -0.99570359546746
H           -0.12492115534660        0.35260765923735       -1.38798575129539
H            0.69263313912136       -3.15495048137476        0.94897318213798
H            7.14430759259031       -0.79703983120129       -0.13427521953887
H            7.22533233528380       -4.47422417862434        2.02176793759239
H            4.77810387023408       -4.51619346230323        2.00746057453334
H           10.49954714777049       -2.64623436522568        2.40263679685759
H            9.05256831020447       -1.77506202141847        2.91888837473206
H            9.06892315572908       -3.53694306500787        2.91421299304480
H           10.59632946800320       -1.48072588400115        0.26407479379726
H            9.22064673618398       -0.49188078353470        0.73737689099391
H            9.20469211452760       -1.36630770169880       -0.80615274048952
H            9.03934087489568       -4.79696960765241        0.69200906780028
H            9.01623078748911       -3.89637566937413       -0.82223115484880
H           10.47541468424150       -3.91860803449984        0.17266494081540
H           -0.08994144813047       -4.06383316170701       -1.18392678089558
H           -1.46430490375464       -5.80038992314546       -2.27632397948007
H           -3.88117659417323       -5.47782222608750       -2.56229088247166
H           -4.99151622220740       -3.46790876505906       -1.74253838485362
H            0.56884677699403        0.04404902577092        1.72066103705209
H            1.95466615987294        1.92022919599163        2.45504947942850
H            1.10492221148591        4.22304121806877        2.38449107519836
H           -1.21662183968846        4.68375649999732        1.69497642020925
H           -4.10648842380176        3.15483749110846       -1.38925769292477
H           -5.34333191221533        5.21822110077025       -1.94005404601815
H           -5.59885790620170        6.99357448996765       -0.24547469469281
H           -4.62985576344467        6.69576095835812        2.00278877498014
H           -3.42330146391252        4.61907815809516        2.56397892594002
H           -5.94464057816274        3.24907246560282        1.18080966663292
H           -8.37445366537040        3.39900793031032        1.22791988079051
H           -9.77881834625907        1.48333523257102        0.60412872123229
H           -8.74946796104570       -0.65737727720282       -0.06340707705014
H           -7.77223760015857       -1.90295370362868       -1.89307892388530
H           -8.70480496217824       -4.18738870718686       -1.89360771611037
H           -7.89795973382712       -5.85142595433049       -0.26207890646149
H           -6.17237420014051       -5.22269199747032        1.38566394290990
H           -5.26282336081344       -2.92855810423187        1.40636489247116

          :  Hamiltonian                  GFN2-xTB          :
         :: gradient norm              0.000056327833 Eh/a0 ::
         :: HOMO-LUMO gap              2.074030820769 eV    ::
         :: SCC energy              -178.658024663443 Eh    ::
         :: -> dispersion             -0.176457447170 Eh    ::
         :: repulsion energy           3.082054279919 Eh    ::

    * Orbital Energies and Occupations

         #    Occupation            Energy/Eh            Energy/eV
      -------------------------------------------------------------
         1        2.0000           -0.7273047             -19.7910
       ...           ...                  ...                  ...
       151        2.0000           -0.4001484             -10.8886
       152        2.0000           -0.3987875             -10.8516
       153        2.0000           -0.3982475             -10.8369
       154        2.0000           -0.3902897             -10.6203
       155        2.0000           -0.3867677             -10.5245
       156        2.0000           -0.3860383             -10.5046
       157        2.0000           -0.3834738             -10.4349
       158        2.0000           -0.3832152             -10.4278
       159        2.0000           -0.3816277             -10.3846
       160        2.0000           -0.3651302              -9.9357
       161        2.0000           -0.3644394              -9.9169
       162        2.0000           -0.3453740              -9.3981
       163        2.0000           -0.3451775              -9.3928 (HOMO)
       164                         -0.2689583              -7.3187 (LUMO)
       165                         -0.2413488              -6.5674
       166                         -0.2383288              -6.4853
       167                         -0.2315149              -6.2998
       168                         -0.2297789              -6.2526
       169                         -0.2288285              -6.2267
       170                         -0.2285479              -6.2191
       171                         -0.2255100              -6.1364
       172                         -0.2246241              -6.1123
       173                         -0.2184964              -5.9456
       174                         -0.2175026              -5.9185
       ...                                ...                  ...
       320                          0.7829364              21.3048
      -------------------------------------------------------------
                  HL-Gap            0.0762192 Eh            2.0740 eV

     #   Z          covCN         q      C6AA      α(0)
     1   5 B        2.725     0.210    18.236     7.155
     2   6 C        2.882    -0.093    30.321     9.027
     3   6 C        2.878     0.136    25.036     8.203
     4   6 C        2.913    -0.055    29.356     8.885
     5   6 C        2.928    -0.031    28.785     8.799
     6   6 C        2.969     0.000    28.025     8.683
     7   6 C        2.930    -0.045    29.107     8.848
     8   6 C        3.903     0.025    20.090     6.371
     9   6 C        3.761    -0.108    22.606     6.778
    10   6 C        3.762    -0.106    22.577     6.773
    11   6 C        3.762    -0.106    22.575     6.773
    12   8 O        1.712    -0.220    17.657     5.673
    13   6 C        2.875     0.143    24.886     8.178
    14   6 C        2.917    -0.077    29.923     8.970
    15   6 C        2.919     0.072    26.397     8.425
    16   6 C        2.916    -0.083    30.068     8.992
    17   6 C        2.874     0.140    24.940     8.187
    18   6 C        2.889    -0.125    31.181     9.155
    19   8 O        1.711    -0.223    17.698     5.680
    20   6 C        2.877     0.135    25.056     8.206
    21   6 C        2.882    -0.092    30.318     9.027
    22   6 C        2.930    -0.044    29.105     8.848
    23   6 C        2.969     0.000    28.023     8.683
    24   6 C        2.928    -0.032    28.792     8.800
    25   6 C        2.913    -0.055    29.372     8.887
    26   6 C        3.903     0.025    20.090     6.371
    27   6 C        3.762    -0.106    22.577     6.773
    28   6 C        3.761    -0.108    22.607     6.778
    29   6 C        3.762    -0.106    22.575     6.773
    30   7 N        2.805    -0.038    21.976     6.962
    31   6 C        3.083     0.044    26.932     8.508
    32   6 C        2.911    -0.052    29.288     8.874
    33   6 C        2.924    -0.036    28.894     8.815
    34   6 C        2.919    -0.042    29.036     8.836
    35   6 C        2.914    -0.040    29.003     8.831
    36   6 C        3.061    -0.015    28.318     8.727
    37   6 C        3.055    -0.048    29.137     8.852
    38   6 C        3.066     0.041    27.009     8.522
    39   6 C        3.053    -0.047    29.125     8.851
    40   6 C        3.065     0.042    27.005     8.521
    41   6 C        3.056    -0.047    29.107     8.848
    42   6 C        3.066     0.041    27.008     8.522
    43   6 C        3.063    -0.014    28.305     8.724
    44   6 C        2.914    -0.038    28.954     8.824
    45   6 C        2.919    -0.041    29.016     8.833
    46   6 C        2.924    -0.036    28.884     8.813
    47   6 C        2.911    -0.052    29.293     8.875
    48   6 C        3.081     0.044    26.919     8.506
    49   7 N        2.803    -0.043    22.070     6.977
    50   6 C        2.916     0.070    26.436     8.431
    51   6 C        2.922    -0.037    28.930     8.820
    52   6 C        2.920    -0.026    28.655     8.778
    53   6 C        2.919    -0.032    28.810     8.802
    54   6 C        2.920    -0.028    28.709     8.787
    55   6 C        2.922    -0.042    29.043     8.838
    56   6 C        3.060    -0.015    28.328     8.728
    57   6 C        2.915    -0.041    29.023     8.834
    58   6 C        2.919    -0.042    29.038     8.837
    59   6 C        2.923    -0.036    28.901     8.816
    60   6 C        2.911    -0.052    29.298     8.876
    61   6 C        3.084     0.044    26.933     8.508
    62   7 N        2.802    -0.043    22.073     6.978
    63   6 C        2.917     0.070    26.442     8.432
    64   6 C        2.922    -0.042    29.035     8.836
    65   6 C        2.920    -0.028    28.712     8.787
    66   6 C        2.920    -0.032    28.802     8.801
    67   6 C        2.920    -0.026    28.649     8.777
    68   6 C        2.922    -0.037    28.912     8.818
    69   1 H        0.926     0.043     2.413     2.429
    70   1 H        0.926     0.035     2.513     2.479
    71   1 H        0.926     0.046     2.372     2.408
    72   1 H        0.925     0.035     2.511     2.478
    73   1 H        0.925     0.037     2.494     2.470
    74   1 H        0.925     0.036     2.499     2.472
    75   1 H        0.925     0.036     2.497     2.471
    76   1 H        0.925     0.034     2.532     2.489
    77   1 H        0.925     0.037     2.484     2.465
    78   1 H        0.925     0.037     2.485     2.465
    79   1 H        0.925     0.034     2.530     2.487
    80   1 H        0.925     0.036     2.497     2.471
    81   1 H        0.926     0.053     2.286     2.364
    82   1 H        0.926     0.055     2.260     2.351
    83   1 H        0.926     0.046     2.373     2.409
    84   1 H        0.926     0.035     2.514     2.479
    85   1 H        0.926     0.043     2.412     2.428
    86   1 H        0.925     0.037     2.484     2.465
    87   1 H        0.925     0.034     2.530     2.488
    88   1 H        0.925     0.037     2.496     2.471
    89   1 H        0.925     0.037     2.494     2.470
    90   1 H        0.925     0.036     2.497     2.471
    91   1 H        0.925     0.035     2.512     2.479
    92   1 H        0.925     0.036     2.497     2.471
    93   1 H        0.925     0.034     2.532     2.489
    94   1 H        0.925     0.037     2.485     2.465
    95   1 H        0.926     0.029     2.605     2.524
    96   1 H        0.926     0.027     2.633     2.537
    97   1 H        0.926     0.024     2.676     2.558
    98   1 H        0.926     0.027     2.630     2.536
    99   1 H        0.926     0.025     2.663     2.552
   100   1 H        0.926     0.022     2.709     2.574
   101   1 H        0.926     0.026     2.645     2.543
   102   1 H        0.926     0.027     2.632     2.537
   103   1 H        0.926     0.040     2.453     2.449
   104   1 H        0.926     0.036     2.501     2.473
   105   1 H        0.926     0.034     2.525     2.485
   106   1 H        0.926     0.035     2.517     2.481
   107   1 H        0.926     0.041     2.431     2.438
   108   1 H        0.926     0.027     2.623     2.532
   109   1 H        0.926     0.023     2.681     2.560
   110   1 H        0.926     0.026     2.646     2.544
   111   1 H        0.926     0.026     2.642     2.542
   112   1 H        0.926     0.041     2.441     2.443
   113   1 H        0.926     0.035     2.516     2.480
   114   1 H        0.926     0.035     2.521     2.483
   115   1 H        0.926     0.036     2.496     2.471
   116   1 H        0.926     0.040     2.447     2.446

molecular dipole:
                 x           y           z       tot (Debye)
 q only:        0.923       0.290      -0.113
   full:        0.813       0.276      -0.130       2.207

 projected vibrational frequencies (cm⁻¹)
eigval :       -0.00    -0.00    -0.00    -0.00    -0.00     0.00
eigval :        8.06    10.47    12.07    23.66    25.64    28.58
eigval :       31.20    37.42    39.95    44.42    48.21    54.30
eigval :       61.76    63.45    69.81    76.29    79.17    82.69
eigval :       93.92    99.50   112.17   115.07   124.31   125.53
eigval :      138.64   143.10   155.39   161.16   171.07   175.54
eigval :      177.54   196.16   208.26   210.98   216.44   220.41
eigval :      224.76   225.54   229.08   231.84   232.38   243.11
eigval :      252.85   261.36   267.48   270.72   274.80   286.42
eigval :      293.33   300.44   321.27   322.12   328.94   332.39
eigval :      342.42   352.79   362.54   364.99   365.43   374.06
eigval :      379.40   380.46   384.65   386.52   390.11   393.71
eigval :      399.19   403.71   411.17   414.99   429.62   435.25
eigval :      436.58   444.84   446.72   447.69   454.39   473.26
eigval :      476.23   481.66   490.98   505.03   516.98   518.36
eigval :      527.27   540.66   543.81   546.75   556.61   563.01
eigval :      570.42   574.43   581.96   583.80   589.70   594.35
eigval :      598.41   605.56   610.24   617.85   624.29   625.27
eigval :      636.01   645.16   651.64   654.97   662.14   669.39
eigval :      672.00   675.05   689.26   694.37   698.00   699.02
eigval :      702.28   703.42   710.78   716.41   730.13   731.19
eigval :      750.57   764.49   767.79   772.50   774.62   778.26
eigval :      812.50   827.65   829.36   833.56   836.53   845.58
eigval :      846.21   852.95   860.99   865.93   870.43   872.13
eigval :      873.71   874.34   875.08   875.67   878.73   880.28
eigval :      894.53   898.29   900.51   903.04   904.71   909.96
eigval :      912.99   920.42   921.63   921.84   921.99   923.75
eigval :      927.32   928.62   928.74   933.63   934.81   942.27
eigval :      960.15   960.70   960.90   963.27   963.34   963.45
eigval :      969.79   986.66   989.09  1001.33  1024.88  1034.70
eigval :     1035.57  1035.85  1035.90  1077.76  1078.80  1079.38
eigval :     1079.75  1081.17  1085.34  1086.04  1092.15  1092.28
eigval :     1116.81  1117.43  1132.87  1138.13  1140.29  1142.81
eigval :     1147.04  1149.55  1172.02  1177.95  1179.24  1180.72
eigval :     1181.06  1181.22  1182.96  1184.64  1191.37  1193.02
eigval :     1214.37  1215.73  1219.75  1220.74  1228.41  1228.58
eigval :     1230.52  1232.11  1236.19  1244.96  1250.03  1250.41
eigval :     1253.33  1262.88  1273.56  1275.01  1280.90  1285.49
eigval :     1294.39  1295.59  1297.43  1299.14  1302.17  1315.89
eigval :     1316.41  1331.50  1334.01  1338.08  1338.70  1344.58
eigval :     1347.43  1363.06  1367.16  1368.11  1388.37  1395.12
eigval :     1396.01  1399.86  1402.54  1406.16  1406.26  1406.41
eigval :     1411.05  1413.87  1429.19  1429.51  1429.95  1432.68
eigval :     1434.56  1437.05  1439.70  1440.30  1449.63  1456.24
eigval :     1473.20  1476.27  1476.46  1481.45  1481.79  1484.36
eigval :     1492.04  1492.13  1494.54  1494.66  1499.85  1502.96
eigval :     1504.96  1505.34  1514.76  1515.35  1518.45  1522.82
eigval :     1535.88  1546.15  1550.84  1567.65  1567.88  1576.89
eigval :     1580.66  1581.40  1584.62  1590.78  1591.36  1594.77
eigval :     1595.15  1598.29  1601.65  1602.13  1604.08  1604.31
eigval :     3021.58  3022.05  3023.83  3024.08  3027.07  3027.12
eigval :     3030.33  3030.80  3031.41  3031.51  3035.35  3035.75
eigval :     3038.16  3038.43  3047.61  3047.72  3051.14  3051.54
eigval :     3074.89  3076.27  3076.68  3078.26  3078.79  3082.62
eigval :     3082.89  3083.70  3084.12  3084.18  3084.67  3085.97
eigval :     3090.46  3091.59  3094.15  3094.54  3095.13  3095.74
eigval :     3096.56  3096.82  3097.69  3100.17  3100.58  3111.31
eigval :     3118.03  3121.31  3136.09  3139.94  3147.29  3147.52

   temp. (K)  partition function   enthalpy   heat capacity  entropy
                                   cal/mol     cal/K/mol   cal/K/mol   J/K/mol
 298.15  VIB  0.152E+26            33460.980    212.152    206.411
         ROT  0.216E+09              888.752      2.981     41.119
         INT  0.329E+34            34349.732    215.133    247.530
         TR   0.252E+29             1481.254      4.968     46.172
         TOT                       35830.9861   220.1015   293.7019  1228.8486

       T/K    H(0)-H(T)+PV         H(T)/Eh          T*S/Eh         G(T)/Eh
   ------------------------------------------------------------------------
    298.15    0.571003E-01    0.970935E+00    0.139547E+00    0.831388E+00
   ------------------------------------------------------------------------

         :::::::::::::::::::::::::::::::::::::::::::::::::::::
         ::                  THERMODYNAMIC                  ::
         :::::::::::::::::::::::::::::::::::::::::::::::::::::
         :: total free energy        -174.744582446102 Eh   ::
         ::.................................................::
         :: total energy             -175.575970383524 Eh   ::
         :: zero point energy           0.913834864414 Eh   ::
         :: G(RRHO) w/o ZPVE           -0.082446926993 Eh   ::
         :: G(RRHO) contrib.            0.831387937421 Eh   ::
         :::::::::::::::::::::::::::::::::::::::::::::::::::::

           -------------------------------------------------
          | TOTAL ENERGY             -175.575970383524 Eh   |
          | TOTAL ENTHALPY           -174.605035208136 Eh   |
          | TOTAL FREE ENERGY        -174.744582446102 Eh   |
          | GRADIENT NORM               0.000056323335 Eh/α |
          | HOMO-LUMO GAP               2.074030202893 eV   |
           -------------------------------------------------

 * finished run on 2025/06/07 at 01:00:44.560
