   * xtb version 6.7.1 (edcfbbe) compiled by 'albert@albert-system' on 2024-07-22

   ID    Z sym.   atoms
    1    5 B      1
    2    6 C      2-11, 13-18, 20-29, 31-48, 50-61, 63-68
    3    8 O      12, 19
    4    7 N      30, 49, 62
    5    1 H      69-116

          program call               : xtb data250606/gas/TDBA-DI/TDBA-DI_gas_T1_crest.xyz --gfn 2 --spinpol --tblite --uhf 2 --ohess vtight --parallel 14 --molden --ceasefiles --namespace data250606/gas/TDBA-DI/TDBA-DI_gas_T1_finalOpt
 * total energy  :  -175.4832036 Eh     change       -0.6755528E-08 Eh
 * total energy  :  -175.4832153 Eh     change       -0.1167030E-04 Eh
 * total energy  :  -175.4832260 Eh     change       -0.1073921E-04 Eh
 * total energy  :  -175.4832289 Eh     change       -0.2871885E-05 Eh
 * total energy  :  -175.4832311 Eh     change       -0.2254691E-05 Eh
 * total energy  :  -175.4832303 Eh     change        0.8302139E-06 Eh
 * total energy  :  -175.4832319 Eh     change       -0.1572393E-05 Eh
 * total energy  :  -175.4832324 Eh     change       -0.4933341E-06 Eh
 * total energy  :  -175.4832332 Eh     change       -0.8341342E-06 Eh
 * total energy  :  -175.4832339 Eh     change       -0.6480558E-06 Eh
 * total energy  :  -175.4832380 Eh     change       -0.1034522E-06 Eh
 * total energy  :  -175.4832380 Eh     change        0.9069254E-08 Eh
 * total energy  :  -175.4832381 Eh     change       -0.1083455E-06 Eh
 * total energy  :  -175.4832384 Eh     change       -0.3055315E-06 Eh
 * total energy  :  -175.4832383 Eh     change        0.4871131E-07 Eh
 * total energy  :  -175.4832384 Eh     change       -0.8614609E-07 Eh
 * total energy  :  -175.4832386 Eh     change       -0.1932995E-06 Eh
 * total energy  :  -175.4832386 Eh     change        0.2508057E-07 Eh
 * total energy  :  -175.4832386 Eh     change       -0.4585013E-07 Eh
   *** GEOMETRY OPTIMIZATION CONVERGED AFTER 30 ITERATIONS ***

 final structure:
================
116
 xtb: 6.7.1 (edcfbbe)
B            4.35633884997159       -0.44437829356673       -0.22378150976133
C            4.65551307371616        0.96242747008158       -0.79200582692034
C            3.58526797599624        1.65514939454267       -1.39979974986696
C            3.77256666557234        2.91227928537001       -1.96799919939971
C            5.01065420066508        3.52044900784995       -1.92698958578304
C            6.09183014542166        2.89377321269569       -1.30203388983000
C            5.88191751005983        1.64007885481354       -0.74926991132553
C            7.43711055350655        3.60085586769749       -1.25686057965976
C            8.51902915995649        2.78052339303415       -0.54848389589946
C            7.90893489295146        3.87134691050101       -2.69279039586428
C            7.27628214423275        4.92988463920127       -0.50461189942826
O            2.30530336304091        1.18655010340819       -1.47870044635529
C            1.93453300169208        0.02795291973427       -0.88166655082170
C            0.58516582556981       -0.28694355649526       -0.90998227425170
C            0.13599787855345       -1.45132486086103       -0.27584904474281
C            1.05197516071314       -2.31403453999406        0.33616875887807
C            2.40205410170481       -1.99170617330026        0.32504536882514
C            2.88356785505520       -0.80877430522338       -0.26422733423013
O            3.24248504840225       -2.86230131244925        0.93988038728677
C            4.59536627110922       -2.67577782160422        0.93818367542116
C            5.24732201799205       -1.55186314959649        0.38320812177015
C            6.64898945858937       -1.57298007203856        0.42245327249442
C            7.39054227472787       -2.58849436943540        1.00414317273677
C            6.69648589884486       -3.65910700402054        1.57491545844848
C            5.31800185843149       -3.70568109844286        1.53404383317461
C            8.91030496011359       -2.58069453550307        1.04650426141612
C            9.37034523107091       -2.61672927734155        2.51107793610606
C            9.51900697197748       -1.33918512246437        0.38816874437490
C            9.43575628518201       -3.81956453686334        0.30695563222448
N           -1.23425320934830       -1.73352380004596       -0.23783683140834
C           -1.79881978487063       -2.86630871049044       -0.79573623739479
C           -1.15722270338530       -3.98292013129242       -1.30382999546222
C           -1.93393565234510       -4.96413702498409       -1.89512591835279
C           -3.30981925233550       -4.80523626117555       -2.01114137470335
C           -3.95088947542726       -3.67980231742903       -1.52605448049642
C           -3.20367031240665       -2.70205827599643       -0.87510223261987
C           -3.49099739344656       -1.41159605614507       -0.30835048207013
C           -4.64122007236850       -0.65229350991531       -0.08787219903362
C           -4.56513818035522        0.73505040496675        0.26752274733222
C           -3.29409546471695        1.28782486397835        0.50200327870650
C           -2.14594700690193        0.46064566744093        0.58010542374249
C           -2.23296961986888       -0.84749615925466        0.05891365844979
C           -1.10038030163245        1.26491368630256        1.12854390370482
C            0.18623642556915        1.01191501231291        1.61130933512866
C            0.96227135235209        2.07252076435227        2.02493549244818
C            0.48351930827396        3.38284791198131        1.98035993517055
C           -0.81466439062857        3.65317424872644        1.59416565858573
C           -1.61482728268491        2.58617687775598        1.21262441634777
N           -2.94081118466267        2.58039433130726        0.83587906176937
C           -3.66465270083273        3.74289152802217        0.53264952632498
C           -4.21810696778139        3.89902977611662       -0.73628414130229
C           -4.91233107723418        5.05208933553588       -1.04695187667225
C           -5.05144540794782        6.05889763118628       -0.10469144641359
C           -4.49824403195072        5.90588086304147        1.15639209932291
C           -3.80704518557555        4.75276388982668        1.48054352826601
C           -5.91313031938814        1.19546401239723        0.39750545496818
C           -6.51383049846842        2.38447794118830        0.81998971754119
C           -7.89137200267960        2.46040112169266        0.87725743601524
C           -8.69248267515894        1.37143851826880        0.55429880438749
C           -8.12597768551805        0.16288096465437        0.17718197822194
C           -6.74821484088074        0.08918380851122        0.09650630785479
N           -5.96199671063184       -1.01297497700047       -0.19428847615582
C           -6.47201236014820       -2.32136149704166       -0.20636879805964
C           -7.45511946180324       -2.68147900742661       -1.12395387523187
C           -7.97288618634477       -3.96361380428231       -1.10784814867473
C           -7.51673639462867       -4.89013881018697       -0.18401457676036
C           -6.53815746417777       -4.53098638284493        0.72941604067287
C           -6.01801787092801       -3.25134727829428        0.72573635958550
H            2.92798984884742        3.40122414890693       -2.42969862493039
H            5.12305798529401        4.49476893057254       -2.37688397971814
H            6.69228552701830        1.14636826240755       -0.24432746115726
H            8.24666157457458        2.58351393330317        0.48583729949526
H            9.45418700605473        3.33749892007675       -0.54882145359891
H            8.69158046080640        1.83624316719140       -1.05953684546030
H            7.20906263458301        4.50766110135232       -3.22702453828234
H            8.00314277365496        2.93500723064099       -3.23893182500070
H            8.87874476815399        4.36494463816264       -2.68249306965717
H            8.23121261090261        5.44908359177450       -0.45135437286154
H            6.92492828594439        4.74678131406539        0.50878271718923
H            6.56151454943374        5.58103744757617       -0.99996815631998
H           -0.10958789329221        0.36974628974791       -1.40808930461452
H            0.71575922490105       -3.19978915295807        0.85199252032154
H            7.15952294750110       -0.74939581456023       -0.04271290887856
H            7.22737111357991       -4.47189744278217        2.04579646395969
H            4.77798769996817       -4.54028777507825        1.95531526590264
H           10.45711774907483       -2.59632359980895        2.56360192246205
H            8.98186332500430       -1.75333875775184        3.04733570633944
H            9.02244141028078       -3.51445880160328        3.01425437033915
H           10.60443058628669       -1.39200051276640        0.44973437755126
H            9.19873441584985       -0.43117954935014        0.89375804379984
H            9.24541285347545       -1.27949864820519       -0.66273776944617
H            9.08373239101387       -4.73667574977725        0.77090818306881
H            9.09820978519452       -3.80973797151866       -0.72740428300048
H           10.52393473588524       -3.82863567292485        0.31581384747396
H           -0.08344547449002       -4.07524129572927       -1.25989959248821
H           -1.46151351446697       -5.84912145776615       -2.29350883593934
H           -3.89151144863679       -5.56826894885513       -2.50673189226571
H           -5.00935381869477       -3.56534286413924       -1.68215622190914
H            0.56241424599699        0.00630006202133        1.68993660820316
H            1.96335926399894        1.88802043566211        2.38470690332038
H            1.12992000206211        4.19473832089911        2.27733415148220
H           -1.19118202459299        4.66446940587767        1.58886237053147
H           -4.10237924853225        3.11099980767409       -1.46505295867136
H           -5.34229389689464        5.16850374408751       -2.03031929996569
H           -5.59244766760092        6.95969502363570       -0.35133035662719
H           -4.61239780076183        6.68506342933742        1.89536546194008
H           -3.40043139873080        4.61557223494126        2.47126730149547
H           -5.92430272754078        3.23131368524634        1.12244842718799
H           -8.35440008664579        3.38278000172666        1.19498288423337
H           -9.76656549715933        1.45765653710534        0.61773583264975
H           -8.74534157578946       -0.69709867024010       -0.02526665884932
H           -7.78880619762200       -1.96253177234941       -1.85744841086215
H           -8.73093684298154       -4.24249819381650       -1.82475178473395
H           -7.92204927245126       -5.89046226828042       -0.17740449228679
H           -6.18219018296809       -5.25029162029560        1.45140230169822
H           -5.25890643943666       -2.96204596743505        1.43656064952700

 projected vibrational frequencies (cm⁻¹)
eigval :       -0.00    -0.00    -0.00    -0.00     0.00     0.00
eigval :        7.86     9.74    11.74    22.35    24.75    28.23
eigval :       30.07    36.59    39.04    44.38    47.35    52.28
eigval :       60.60    63.12    68.57    74.16    76.62    81.75
eigval :       92.95    96.15   106.78   113.85   121.02   123.23
eigval :      133.57   140.11   153.74   156.90   169.97   173.99
eigval :      176.81   191.52   195.21   208.67   212.09   220.39
eigval :      223.17   224.20   224.96   229.85   230.64   239.65
eigval :      250.02   252.71   258.15   266.05   270.51   277.63
eigval :      290.40   298.86   320.33   320.67   326.07   330.26
eigval :      335.30   344.86   356.41   361.78   361.99   368.98
eigval :      374.92   378.27   379.28   379.88   387.06   387.75
eigval :      394.96   399.12   406.43   407.43   418.18   422.46
eigval :      424.29   439.83   439.94   442.51   450.04   467.84
eigval :      472.65   478.33   481.55   486.51   509.74   513.43
eigval :      515.56   530.18   533.43   538.87   551.02   551.27
eigval :      560.82   570.40   575.67   578.30   585.65   588.08
eigval :      593.07   595.27   596.09   605.30   610.07   612.44
eigval :      617.11   637.41   645.80   648.34   655.45   663.12
eigval :      667.48   668.72   672.34   685.19   691.36   694.24
eigval :      695.23   696.77   704.63   705.52   723.73   727.35
eigval :      747.34   759.95   762.27   763.89   769.27   770.01
eigval :      803.08   807.00   811.89   812.32   815.10   823.67
eigval :      831.84   842.10   845.59   849.23   850.02   854.52
eigval :      863.52   867.37   869.19   871.51   875.72   877.23
eigval :      885.31   888.04   889.89   897.20   897.51   898.66
eigval :      899.39   901.53   905.27   906.45   913.54   917.91
eigval :      922.85   926.88   927.01   931.72   932.92   935.99
eigval :      955.65   958.16   959.91   960.34   962.48   962.61
eigval :      962.76   966.06   980.84   989.02   991.18  1013.51
eigval :     1028.68  1034.00  1034.04  1034.47  1035.48  1056.11
eigval :     1066.30  1071.90  1076.26  1077.43  1077.75  1080.14
eigval :     1086.22  1093.69  1116.32  1117.19  1125.52  1129.53
eigval :     1131.53  1136.75  1141.65  1144.84  1151.70  1169.92
eigval :     1173.24  1179.81  1179.89  1181.65  1182.41  1186.07
eigval :     1187.57  1188.18  1205.43  1207.77  1209.57  1212.48
eigval :     1223.68  1225.07  1225.20  1228.33  1228.61  1230.63
eigval :     1236.69  1243.63  1247.22  1256.53  1260.63  1270.79
eigval :     1273.26  1279.73  1280.45  1289.01  1290.21  1293.28
eigval :     1295.67  1310.09  1315.02  1316.99  1317.99  1325.02
eigval :     1328.78  1334.21  1340.89  1357.00  1363.68  1369.03
eigval :     1376.13  1377.67  1384.70  1396.36  1399.69  1404.04
eigval :     1404.26  1405.03  1405.09  1406.82  1414.58  1414.84
eigval :     1425.69  1427.26  1428.22  1432.43  1435.38  1436.75
eigval :     1445.77  1450.37  1457.05  1466.81  1471.69  1474.40
eigval :     1475.57  1477.72  1483.99  1488.99  1491.40  1491.46
eigval :     1494.61  1494.75  1499.95  1502.27  1503.83  1503.89
eigval :     1513.32  1513.68  1514.72  1516.62  1519.21  1524.20
eigval :     1541.14  1547.30  1553.01  1558.32  1562.97  1563.17
eigval :     1567.47  1569.52  1573.88  1579.44  1581.96  1585.52
eigval :     3018.60  3019.06  3020.30  3020.49  3026.83  3026.94
eigval :     3027.21  3027.68  3030.93  3031.03  3035.12  3035.51
eigval :     3037.54  3037.71  3047.21  3047.31  3050.36  3050.55
eigval :     3080.03  3080.67  3080.96  3081.21  3081.73  3081.93
eigval :     3082.80  3084.28  3084.37  3088.93  3089.20  3091.21
eigval :     3091.44  3092.69  3093.33  3093.56  3095.67  3096.15
eigval :     3098.76  3099.17  3101.32  3101.59  3101.80  3102.75
eigval :     3108.98  3127.35  3139.35  3142.84  3151.02  3151.50

   temp. (K)  partition function   enthalpy   heat capacity  entropy
                                   cal/mol     cal/K/mol   cal/K/mol   J/K/mol
 298.15  VIB  0.461E+26            33947.141    214.932    209.623
         ROT  0.216E+09              888.752      2.981     41.122
         INT  0.999E+34            34835.893    217.913    250.745
         TR   0.252E+29             1481.254      4.968     46.172
         TOT                       36317.1472   222.8812   296.9177  1242.3035

       T/K    H(0)-H(T)+PV         H(T)/Eh          T*S/Eh         G(T)/Eh
   ------------------------------------------------------------------------
    298.15    0.578751E-01    0.963989E+00    0.141075E+00    0.822914E+00
   ------------------------------------------------------------------------

         :::::::::::::::::::::::::::::::::::::::::::::::::::::
         ::                  THERMODYNAMIC                  ::
         :::::::::::::::::::::::::::::::::::::::::::::::::::::
         :: total free energy        -174.660324542730 Eh   ::
         ::.................................................::
         :: total energy             -175.483238641980 Eh   ::
         :: zero point energy           0.906114200738 Eh   ::
         :: G(RRHO) w/o ZPVE           -0.083200101488 Eh   ::
         :: G(RRHO) contrib.            0.822914099250 Eh   ::
         :::::::::::::::::::::::::::::::::::::::::::::::::::::

           -------------------------------------------------
          | TOTAL ENERGY             -175.483238641980 Eh   |
          | TOTAL ENTHALPY           -174.519249383259 Eh   |
          | TOTAL FREE ENERGY        -174.660324542730 Eh   |
          | GRADIENT NORM               0.000141846018 Eh/α |
           -------------------------------------------------

 * finished run on 2025/06/07 at 01:51:11.057
