   * xtb version 6.7.1 (edcfbbe) compiled by 'albert@albert-system' on 2024-07-22

   ID    Z sym.   atoms
    1    6 C      1-4, 6-10, 12, 13, 15-19, 21, 22
    2    7 N      5, 11, 14, 20
    3    1 H      23-32

          program call               : xtb data2507/gas/TPA-CN-N4/TPA-CN-N4_gas_S0_crest.xyz --gfn 2 --ohess vtight --parallel 40 --molden --ceasefiles --namespace data2507/gas/TPA-CN-N4/TPA-CN-N4_gas_S0_finalOpt
          :  Hamiltonian                  GFN2-xTB          :
 * total energy  :   -55.3477578 Eh     change       -0.7355965E-09 Eh
 * total energy  :   -55.3477583 Eh     change       -0.5297315E-06 Eh
 * total energy  :   -55.3477587 Eh     change       -0.3504479E-06 Eh
 * total energy  :   -55.3477586 Eh     change        0.6251624E-07 Eh
 * total energy  :   -55.3477588 Eh     change       -0.2127640E-06 Eh
 * total energy  :   -55.3477588 Eh     change        0.2486536E-07 Eh
 * total energy  :   -55.3477589 Eh     change       -0.1089039E-06 Eh
 * total energy  :   -55.3477589 Eh     change        0.1650895E-07 Eh
 * total energy  :   -55.3477589 Eh     change       -0.6573112E-07 Eh
   *** GEOMETRY OPTIMIZATION CONVERGED AFTER 9 ITERATIONS ***

 final structure:
================
32
 xtb: 6.7.1 (edcfbbe)
C            4.98638823645170       -0.70370608030833       -0.00132022379401
C            4.98619649473562        0.70489386026123        0.00083441896371
C            3.81460571069699        1.40559053325087        0.00215014931863
C            2.58405496029440        0.71413562687003        0.00136536355298
N            1.43194862759950        1.39992720494899        0.00198078361337
C            0.30498938377787        0.71501669244767        0.00132689901150
C           -0.95196363062659        1.42999625584200        0.00112710867992
C           -0.99532556972884        2.82782882514957        0.00140044054852
C           -2.22007170874637        3.45802320229814        0.00074595982728
C           -3.36881054387301        2.66529577416233       -0.00032916124897
N           -3.34879381973103        1.35350855199018       -0.00048825054468
C           -2.17297049233280        0.72715372320606        0.00033682183453
C           -2.17281004654916       -0.72777051955726        0.00053976206469
N           -3.34851937470541       -1.35433630006893        0.00060140407035
C           -3.36832196879622       -2.66612636591459        0.00119048698171
C           -2.21943937492098       -3.45864476589671        0.00189315974658
C           -0.99480319938756       -2.82822867048801        0.00168562576266
C           -0.95166347312077       -1.43038787697697        0.00090668945419
C            0.30516222697877       -0.71516706961625        0.00058486093931
N            1.43229636254528       -1.39979445913565       -0.00046183972190
C            2.58423790157698       -0.71371024444152       -0.00039750918154
C            3.81500857214088       -1.40476983449896       -0.00192588963254
H            5.93119230764317       -1.22709797431675       -0.00254297643041
H            5.93084462355982        1.22856683464119        0.00149594673895
H            3.79264499944505        2.48429547330783        0.00379240646267
H           -0.06530008217450        3.37573528588862        0.00232679521870
H           -2.29583481557491        4.53438450111777        0.00108824164238
H           -4.35345850656470        3.11513552912687       -0.00120606628589
H           -4.35289925634685       -3.11612208124646        0.00126717146613
H           -2.29501479593627       -4.53502173664235        0.00258818807199
H           -0.06469540396396       -3.37599971591953        0.00212178953312
H            3.79345757523389       -2.48348385968109       -0.00360921416393

          :  Hamiltonian                  GFN2-xTB          :
         :: gradient norm              0.000044145417 Eh/a0 ::
         :: HOMO-LUMO gap              1.305329184927 eV    ::
         :: SCC energy               -56.304868428336 Eh    ::
         :: -> dispersion             -0.041144822672 Eh    ::
         :: repulsion energy           0.957109494095 Eh    ::

    * Orbital Energies and Occupations

         #    Occupation            Energy/Eh            Energy/eV
      -------------------------------------------------------------
         1        2.0000           -0.6819546             -18.5569
       ...           ...                  ...                  ...
        39        2.0000           -0.4510276             -12.2731
        40        2.0000           -0.4476080             -12.1800
        41        2.0000           -0.4453163             -12.1177
        42        2.0000           -0.4428627             -12.0509
        43        2.0000           -0.4417354             -12.0202
        44        2.0000           -0.4391507             -11.9499
        45        2.0000           -0.4197597             -11.4222
        46        2.0000           -0.4165060             -11.3337
        47        2.0000           -0.4069627             -11.0740
        48        2.0000           -0.4004277             -10.8962
        49        2.0000           -0.3672284              -9.9928
        50        2.0000           -0.3662644              -9.9666
        51        2.0000           -0.3570701              -9.7164 (HOMO)
        52                         -0.3091001              -8.4110 (LUMO)
        53                         -0.2785610              -7.5800
        54                         -0.2728637              -7.4250
        55                         -0.2354752              -6.4076
        56                         -0.2286173              -6.2210
        57                         -0.2120292              -5.7696
        58                         -0.2089005              -5.6845
        59                         -0.1622645              -4.4154
        60                         -0.1211444              -3.2965
        61                         -0.0920762              -2.5055
        62                         -0.0497757              -1.3545
       ...                                ...                  ...
        98                          0.7127071              19.3937
      -------------------------------------------------------------
                  HL-Gap            0.0479700 Eh            1.3053 eV

     #   Z          covCN         q      C6AA      α(0)
     1   6 C        2.916    -0.025    28.635     8.775
     2   6 C        2.916    -0.025    28.635     8.775
     3   6 C        2.916    -0.038    28.950     8.823
     4   6 C        2.968     0.084    26.136     8.386
     5   7 N        1.848    -0.236    27.020     7.704
     6   6 C        2.959     0.082    26.175     8.392
     7   6 C        2.982    -0.012    28.300     8.726
     8   6 C        2.928    -0.010    28.275     8.720
     9   6 C        2.912    -0.038    28.944     8.822
    10   6 C        2.907     0.063    26.581     8.454
    11   7 N        1.841    -0.200    26.170     7.581
    12   6 C        2.971     0.085    26.108     8.381
    13   6 C        2.971     0.085    26.108     8.381
    14   7 N        1.841    -0.200    26.170     7.581
    15   6 C        2.907     0.063    26.581     8.454
    16   6 C        2.912    -0.038    28.944     8.822
    17   6 C        2.928    -0.010    28.275     8.720
    18   6 C        2.982    -0.012    28.300     8.726
    19   6 C        2.959     0.082    26.175     8.392
    20   7 N        1.848    -0.236    27.020     7.704
    21   6 C        2.968     0.084    26.136     8.386
    22   6 C        2.916    -0.038    28.950     8.823
    23   1 H        0.926     0.042     2.416     2.431
    24   1 H        0.926     0.042     2.416     2.431
    25   1 H        0.926     0.054     2.271     2.357
    26   1 H        0.926     0.061     2.192     2.315
    27   1 H        0.926     0.042     2.424     2.435
    28   1 H        0.925     0.047     2.356     2.400
    29   1 H        0.925     0.047     2.356     2.400
    30   1 H        0.926     0.042     2.424     2.435
    31   1 H        0.926     0.061     2.192     2.315
    32   1 H        0.926     0.054     2.271     2.357

molecular dipole:
                 x           y           z       tot (Debye)
 q only:        0.607       0.000       0.000
   full:        1.268       0.000       0.001       3.223

 projected vibrational frequencies (cm⁻¹)
eigval :       -0.00     0.00     0.00     0.00     0.00     0.00
eigval :       45.25    55.15    82.60   102.79   138.42   155.56
eigval :      198.74   201.65   283.69   288.41   308.06   329.35
eigval :      366.68   379.76   398.45   414.23   435.42   442.41
eigval :      515.89   525.63   536.93   543.97   551.48   586.72
eigval :      589.19   600.41   687.18   692.08   700.58   707.11
eigval :      751.62   766.14   776.07   783.00   797.23   811.66
eigval :      840.32   865.83   877.09   915.38   916.80   917.35
eigval :      928.33   928.52   930.49   958.51  1047.16  1054.54
eigval :     1071.62  1091.44  1102.96  1135.95  1136.25  1144.61
eigval :     1169.51  1185.65  1216.34  1222.58  1254.51  1277.76
eigval :     1284.21  1296.81  1318.68  1326.01  1336.72  1351.43
eigval :     1390.95  1400.41  1405.76  1434.63  1448.59  1469.40
eigval :     1487.73  1506.61  1530.07  1547.80  1551.80  1563.72
eigval :     1577.47  1607.29  3054.34  3054.59  3079.79  3087.78
eigval :     3088.39  3088.50  3099.32  3099.57  3100.48  3102.86

   temp. (K)  partition function   enthalpy   heat capacity  entropy
                                   cal/mol     cal/K/mol   cal/K/mol   J/K/mol
 298.15  VIB  0.361E+05             7841.527     56.301     45.734
         ROT  0.318E+07              888.752      2.981     32.737
         INT  0.115E+12             8730.279     59.282     78.471
         TR   0.459E+28             1481.254      4.968     42.792
         TOT                       10211.5332    64.2502   121.2630   507.3643

       T/K    H(0)-H(T)+PV         H(T)/Eh          T*S/Eh         G(T)/Eh
   ------------------------------------------------------------------------
    298.15    0.162731E-01    0.247349E+00    0.576159E-01    0.189733E+00
   ------------------------------------------------------------------------

         :::::::::::::::::::::::::::::::::::::::::::::::::::::
         ::                  THERMODYNAMIC                  ::
         :::::::::::::::::::::::::::::::::::::::::::::::::::::
         :: total free energy         -55.158025481310 Eh   ::
         ::.................................................::
         :: total energy              -55.347758934241 Eh   ::
         :: zero point energy           0.231076288826 Eh   ::
         :: G(RRHO) w/o ZPVE           -0.041342835895 Eh   ::
         :: G(RRHO) contrib.            0.189733452930 Eh   ::
         :::::::::::::::::::::::::::::::::::::::::::::::::::::

           -------------------------------------------------
          | TOTAL ENERGY              -55.347758934241 Eh   |
          | TOTAL ENTHALPY            -55.100409531374 Eh   |
          | TOTAL FREE ENERGY         -55.158025481310 Eh   |
          | GRADIENT NORM               0.000044158476 Eh/α |
          | HOMO-LUMO GAP               1.305328956784 eV   |
           -------------------------------------------------

 * finished run on 2025/09/04 at 18:56:21.026
