   * xtb version 6.7.1 (edcfbbe) compiled by 'albert@albert-system' on 2024-07-22

   ID    Z sym.   atoms
    1    6 C      1-4, 6-10, 12, 13, 15-19, 21, 22
    2    7 N      5, 11, 14, 20
    3    1 H      23-32

          program call               : xtb data2507/gas/TPA-CN-N4/TPA-CN-N4.xyz --gfn 2 --ohess vtight --parallel 40 --molden --ceasefiles --namespace data2507/gas/TPA-CN-N4/TPA-CN-N4_gas_S0_preOpt
          :  Hamiltonian                  GFN2-xTB          :
 * total energy  :   -55.3309829 Eh     change       -0.9355787E-09 Eh
 * total energy  :   -55.3449819 Eh     change       -0.1399901E-01 Eh
 * total energy  :   -55.3475538 Eh     change       -0.2571878E-02 Eh
 * total energy  :   -55.3477014 Eh     change       -0.1476314E-03 Eh
 * total energy  :   -55.3477557 Eh     change       -0.5422627E-04 Eh
 * total energy  :   -55.3477586 Eh     change       -0.2971325E-05 Eh
 * total energy  :   -55.3477590 Eh     change       -0.3463277E-06 Eh
 * total energy  :   -55.3477590 Eh     change       -0.2265984E-07 Eh
   *** GEOMETRY OPTIMIZATION CONVERGED AFTER 8 ITERATIONS ***

 final structure:
================
32
 xtb: 6.7.1 (edcfbbe)
C            4.79398836168752       -0.70430330634017       -0.00000101603944
C            4.79398761257540        0.70430858873517        0.00000086847538
C            3.62249940596453        1.40518881623983        0.00000165126173
C            2.39183942850631        0.71392097807766        0.00000079366760
N            1.23982928322267        1.39987656809448        0.00000099000168
C            0.11277934245182        0.71508714683210        0.00000046711183
C           -1.14409196565894        1.43016730696520        0.00000003246234
C           -1.18728434748536        2.82801750357447       -0.00000013086746
C           -2.41194940303433        3.45836742239072       -0.00000033567546
C           -3.56078607296630        2.66576977349780       -0.00000088778231
N           -3.54093206588885        1.35397276442129       -0.00000088851798
C           -2.36517991663674        0.72745406178140       -0.00000029313828
C           -2.36517907857829       -0.72745665023668       -0.00000015434556
N           -3.54093047568027       -1.35397678132248       -0.00000011481554
C           -3.56078286281115       -2.66577381397177        0.00000060842755
C           -2.41194523045305       -3.45837007926459        0.00000086393859
C           -1.18728094466275       -2.82801867568141        0.00000063320505
C           -1.14409030091209       -1.43016842470202        0.00000020624615
C            0.11278013941436       -0.71508676868356        0.00000011063328
N            1.23983082754201       -1.39987495054564       -0.00000050500979
C            2.39184020912799       -0.71391809919716       -0.00000047271409
C            3.62250086785351       -1.40518471639658       -0.00000150086798
H            5.73871248843478       -1.22784000825000       -0.00000186966621
H            5.73871119815003        1.22784626694041        0.00000110302009
H            3.60072962100716        2.48390359135894        0.00000265226258
H           -0.25718420909766        3.37580497256144        0.00000053710964
H           -2.48760140430930        4.53474084461281        0.00000006955564
H           -4.54538416166133        3.11573090298031       -0.00000087004156
H           -4.54538039233837       -3.11573617030352       -0.00000027142367
H           -2.48759592427526       -4.53474359418505        0.00000105599233
H           -0.25718011292023       -3.37580496115694        0.00000120859588
H            3.60073208343215       -2.48389950882645       -0.00000254106201

          :  Hamiltonian                  GFN2-xTB          :
         :: gradient norm              0.000049122076 Eh/a0 ::
         :: HOMO-LUMO gap              1.305342574407 eV    ::
         :: SCC energy               -56.304852284088 Eh    ::
         :: -> dispersion             -0.041144960717 Eh    ::
         :: repulsion energy           0.957093288399 Eh    ::

    * Orbital Energies and Occupations

         #    Occupation            Energy/Eh            Energy/eV
      -------------------------------------------------------------
         1        2.0000           -0.6819557             -18.5570
       ...           ...                  ...                  ...
        39        2.0000           -0.4510287             -12.2731
        40        2.0000           -0.4476081             -12.1800
        41        2.0000           -0.4453174             -12.1177
        42        2.0000           -0.4428627             -12.0509
        43        2.0000           -0.4417349             -12.0202
        44        2.0000           -0.4391514             -11.9499
        45        2.0000           -0.4197615             -11.4223
        46        2.0000           -0.4165064             -11.3337
        47        2.0000           -0.4069620             -11.0740
        48        2.0000           -0.4004273             -10.8962
        49        2.0000           -0.3672299              -9.9928
        50        2.0000           -0.3662658              -9.9666
        51        2.0000           -0.3570737              -9.7165 (HOMO)
        52                         -0.3091033              -8.4111 (LUMO)
        53                         -0.2785630              -7.5801
        54                         -0.2728659              -7.4251
        55                         -0.2354763              -6.4076
        56                         -0.2286180              -6.2210
        57                         -0.2120316              -5.7697
        58                         -0.2089010              -5.6845
        59                         -0.1622661              -4.4155
        60                         -0.1211480              -3.2966
        61                         -0.0920785              -2.5056
        62                         -0.0497754              -1.3545
       ...                                ...                  ...
        98                          0.7126974              19.3935
      -------------------------------------------------------------
                  HL-Gap            0.0479705 Eh            1.3053 eV

     #   Z          covCN         q      C6AA      α(0)
     1   6 C        2.916    -0.025    28.635     8.775
     2   6 C        2.916    -0.025    28.635     8.775
     3   6 C        2.916    -0.038    28.950     8.823
     4   6 C        2.968     0.084    26.136     8.386
     5   7 N        1.848    -0.236    27.020     7.704
     6   6 C        2.959     0.082    26.175     8.392
     7   6 C        2.982    -0.012    28.300     8.726
     8   6 C        2.928    -0.010    28.275     8.720
     9   6 C        2.912    -0.038    28.944     8.822
    10   6 C        2.907     0.063    26.581     8.454
    11   7 N        1.841    -0.200    26.170     7.581
    12   6 C        2.971     0.085    26.108     8.381
    13   6 C        2.971     0.085    26.108     8.381
    14   7 N        1.841    -0.200    26.170     7.581
    15   6 C        2.907     0.063    26.581     8.454
    16   6 C        2.912    -0.038    28.944     8.822
    17   6 C        2.928    -0.010    28.275     8.720
    18   6 C        2.982    -0.012    28.300     8.726
    19   6 C        2.959     0.082    26.175     8.392
    20   7 N        1.848    -0.236    27.020     7.704
    21   6 C        2.968     0.084    26.136     8.386
    22   6 C        2.916    -0.038    28.950     8.823
    23   1 H        0.926     0.042     2.416     2.431
    24   1 H        0.926     0.042     2.416     2.431
    25   1 H        0.926     0.054     2.271     2.357
    26   1 H        0.926     0.061     2.192     2.315
    27   1 H        0.926     0.042     2.424     2.435
    28   1 H        0.925     0.047     2.356     2.400
    29   1 H        0.925     0.047     2.356     2.400
    30   1 H        0.926     0.042     2.424     2.435
    31   1 H        0.926     0.061     2.192     2.315
    32   1 H        0.926     0.054     2.271     2.357

molecular dipole:
                 x           y           z       tot (Debye)
 q only:        0.607      -0.000      -0.000
   full:        1.268      -0.000      -0.000       3.223

 projected vibrational frequencies (cm⁻¹)
eigval :       -0.00    -0.00     0.00     0.00     0.00     0.00
eigval :       45.18    54.91    78.01   102.47   138.43   155.34
eigval :      198.75   198.93   281.07   289.00   308.07   329.36
eigval :      366.37   376.13   398.46   416.31   435.42   442.51
eigval :      515.86   526.17   536.00   543.97   551.48   586.72
eigval :      589.19   600.41   687.23   692.09   700.59   706.49
eigval :      751.59   766.33   776.12   783.01   797.96   813.53
eigval :      840.32   865.84   876.98   915.28   917.01   917.82
eigval :      928.23   930.39   930.60   958.51  1047.15  1054.53
eigval :     1071.62  1091.43  1102.95  1135.95  1136.25  1144.61
eigval :     1169.51  1185.65  1216.34  1222.58  1254.50  1277.74
eigval :     1284.23  1296.79  1318.67  1326.01  1336.73  1351.43
eigval :     1390.93  1400.43  1405.77  1434.61  1448.59  1469.41
eigval :     1487.72  1506.58  1530.04  1547.79  1551.78  1563.70
eigval :     1577.45  1607.28  3054.29  3054.55  3079.79  3087.77
eigval :     3088.36  3088.47  3099.29  3099.55  3100.44  3102.83

   temp. (K)  partition function   enthalpy   heat capacity  entropy
                                   cal/mol     cal/K/mol   cal/K/mol   J/K/mol
 298.15  VIB  0.387E+05             7853.406     56.278     45.872
         ROT  0.318E+07              888.752      2.981     32.737
         INT  0.123E+12             8742.158     59.259     78.609
         TR   0.459E+28             1481.254      4.968     42.792
         TOT                       10223.4120    64.2270   121.4006   507.9403

       T/K    H(0)-H(T)+PV         H(T)/Eh          T*S/Eh         G(T)/Eh
   ------------------------------------------------------------------------
    298.15    0.162920E-01    0.247350E+00    0.576814E-01    0.189668E+00
   ------------------------------------------------------------------------

         :::::::::::::::::::::::::::::::::::::::::::::::::::::
         ::                  THERMODYNAMIC                  ::
         :::::::::::::::::::::::::::::::::::::::::::::::::::::
         :: total free energy         -55.158090792261 Eh   ::
         ::.................................................::
         :: total energy              -55.347758995689 Eh   ::
         :: zero point energy           0.231057520549 Eh   ::
         :: G(RRHO) w/o ZPVE           -0.041389317121 Eh   ::
         :: G(RRHO) contrib.            0.189668203429 Eh   ::
         :::::::::::::::::::::::::::::::::::::::::::::::::::::

           -------------------------------------------------
          | TOTAL ENERGY              -55.347758995689 Eh   |
          | TOTAL ENTHALPY            -55.100409431049 Eh   |
          | TOTAL FREE ENERGY         -55.158090792261 Eh   |
          | GRADIENT NORM               0.000049109557 Eh/α |
          | HOMO-LUMO GAP               1.305342762470 eV   |
           -------------------------------------------------

 * finished run on 2025/09/04 at 18:55:34.788
