   * xtb version 6.7.1 (edcfbbe) compiled by 'albert@albert-system' on 2024-07-22

   ID    Z sym.   atoms
    1    6 C      1-4, 6-10, 12, 13, 15-19, 21, 22
    2    7 N      5, 11, 14, 20
    3    1 H      23-32

          program call               : xtb data2507/gas/TPA-CN-N4/TPA-CN-N4_gas_S0_finalOpt.xtbopt.xyz --gfn 2 --spinpol --tblite --uhf 2 --ohess vtight --parallel 40 --molden --ceasefiles --namespace data2507/gas/TPA-CN-N4/TPA-CN-N4_gas_T1_preOpt
 * total energy  :   -55.2996507 Eh     change       -0.2819938E-08 Eh
 * total energy  :   -55.3032786 Eh     change       -0.3627866E-02 Eh
 * total energy  :   -55.3044732 Eh     change       -0.1194598E-02 Eh
 * total energy  :   -55.3046139 Eh     change       -0.1407056E-03 Eh
 * total energy  :   -55.3046633 Eh     change       -0.4946572E-04 Eh
 * total energy  :   -55.3046651 Eh     change       -0.1736501E-05 Eh
 * total energy  :   -55.3046654 Eh     change       -0.2930925E-06 Eh
 * total energy  :   -55.3046654 Eh     change       -0.2844924E-07 Eh
   *** GEOMETRY OPTIMIZATION CONVERGED AFTER 8 ITERATIONS ***

 final structure:
================
32
 xtb: 6.7.1 (edcfbbe)
C            5.02321566175861       -0.69291253974135       -0.00069819285708
C            5.02306407091534        0.69390770475719        0.00050147536998
C            3.82911054656846        1.39233024275554        0.00131533791317
C            2.60823754937175        0.72470298214237        0.00098513051390
N            1.43533809485044        1.35566817207311        0.00142586119479
C            0.27649048803950        0.71503389653975        0.00109504252092
C           -0.96495060308403        1.41266319923249        0.00105818961333
C           -1.00583272127188        2.81792125289728        0.00118207322453
C           -2.22113310205173        3.45342373481254        0.00079598959481
C           -3.38334744600253        2.66914950583778        0.00028151146686
N           -3.37076838249892        1.36225840781219        0.00030416076702
C           -2.20186346589268        0.72006949334312        0.00072184402845
C           -2.20171038272193       -0.72064523825870        0.00084510656148
N           -3.37047999150123       -1.36307840613119        0.00103597673102
C           -3.38278580009289       -2.66997118651051        0.00126525320310
C           -2.22040642097028       -3.45399972572368        0.00131078170917
C           -1.00523904735818       -2.81824382021132        0.00104079039509
C           -0.96464781829511       -1.41297607544608        0.00080184058977
C            0.27664192898569       -0.71508247451101        0.00061537354218
N            1.43563176640425       -1.35547458132458        0.00003717675421
C            2.60839304630719       -0.72424313631574        0.00000612559457
C            3.82941532107272       -1.39159972450310       -0.00090340487570
H            5.95679586848474       -1.23410349391528       -0.00145772920671
H            5.95652523313285        1.23530450124198        0.00076795012138
H            3.81564004419067        2.47111498651330        0.00217282035326
H           -0.07134270181955        3.36043464311790        0.00153157980911
H           -2.29017914649660        4.52999956553676        0.00085121190595
H           -4.36223137310511        3.13036807693724       -0.00015365168549
H           -4.36157341928519       -3.13139435917969        0.00144395985787
H           -2.28922780496043       -4.53058980992966        0.00157189053398
H           -0.07063468626307       -3.36056003068986        0.00106028388484
H            3.81618668200739       -2.47038762012079       -0.00176389078431

 projected vibrational frequencies (cm⁻¹)
eigval :       -0.00    -0.00    -0.00    -0.00     0.00     0.00
eigval :       54.35    56.63    83.78   113.61   133.13   156.67
eigval :      192.02   199.10   272.80   275.73   300.34   333.81
eigval :      362.51   393.78   398.17   420.18   435.36   452.13
eigval :      511.41   523.05   525.03   528.87   544.06   575.92
eigval :      579.20   594.15   630.24   670.91   672.01   696.14
eigval :      700.82   744.08   761.90   777.64   788.04   795.81
eigval :      819.14   835.80   848.24   878.37   904.74   906.25
eigval :      906.41   916.15   917.90   918.21  1030.32  1057.50
eigval :     1075.66  1084.48  1094.62  1123.47  1132.02  1132.51
eigval :     1168.35  1183.30  1212.38  1225.87  1232.82  1252.00
eigval :     1260.32  1283.85  1284.42  1313.96  1327.27  1338.90
eigval :     1347.48  1369.76  1391.28  1391.33  1419.14  1442.88
eigval :     1457.03  1477.61  1505.06  1506.78  1539.04  1547.59
eigval :     1558.02  1571.82  3058.06  3058.30  3075.71  3076.04
eigval :     3087.25  3091.60  3095.68  3095.99  3098.08  3104.88

   temp. (K)  partition function   enthalpy   heat capacity  entropy
                                   cal/mol     cal/K/mol   cal/K/mol   J/K/mol
 298.15  VIB  0.323E+05             7963.352     57.669     46.301
         ROT  0.320E+07              888.752      2.981     32.748
         INT  0.103E+12             8852.104     60.650     79.049
         TR   0.459E+28             1481.254      4.968     42.792
         TOT                       10333.3580    65.6184   121.8409   509.7822

       T/K    H(0)-H(T)+PV         H(T)/Eh          T*S/Eh         G(T)/Eh
   ------------------------------------------------------------------------
    298.15    0.164673E-01    0.244933E+00    0.578905E-01    0.187043E+00
   ------------------------------------------------------------------------

         :::::::::::::::::::::::::::::::::::::::::::::::::::::
         ::                  THERMODYNAMIC                  ::
         :::::::::::::::::::::::::::::::::::::::::::::::::::::
         :: total free energy         -55.117622632641 Eh   ::
         ::.................................................::
         :: total energy              -55.304665385371 Eh   ::
         :: zero point energy           0.228466025254 Eh   ::
         :: G(RRHO) w/o ZPVE           -0.041423272524 Eh   ::
         :: G(RRHO) contrib.            0.187042752730 Eh   ::
         :::::::::::::::::::::::::::::::::::::::::::::::::::::

           -------------------------------------------------
          | TOTAL ENERGY              -55.304665385371 Eh   |
          | TOTAL ENTHALPY            -55.059732105979 Eh   |
          | TOTAL FREE ENERGY         -55.117622632641 Eh   |
          | GRADIENT NORM               0.000049346016 Eh/α |
           -------------------------------------------------

 * finished run on 2025/09/04 at 18:56:22.240
