   * xtb version 6.7.1 (edcfbbe) compiled by 'albert@albert-system' on 2024-07-22

   ID    Z sym.   atoms
    1    6 C      1-4, 6-10, 12, 13, 15-19, 21, 22
    2    7 N      5, 11, 14, 20
    3    1 H      23-32

          program call               : xtb data2507/gas/TPA-CN-N4/TPA-CN-N4_gas_T1_crest.xyz --gfn 2 --spinpol --tblite --uhf 2 --ohess vtight --parallel 40 --molden --ceasefiles --namespace data2507/gas/TPA-CN-N4/TPA-CN-N4_gas_T1_finalOpt
 * total energy  :   -55.3046221 Eh     change       -0.1287994E-08 Eh
 * total energy  :   -55.3046549 Eh     change       -0.3286376E-04 Eh
 * total energy  :   -55.3046641 Eh     change       -0.9189709E-05 Eh
 * total energy  :   -55.3046651 Eh     change       -0.9675683E-06 Eh
 * total energy  :   -55.3046652 Eh     change       -0.1567236E-06 Eh
 * total energy  :   -55.3046653 Eh     change       -0.3661953E-07 Eh
   *** GEOMETRY OPTIMIZATION CONVERGED AFTER 6 ITERATIONS ***

 final structure:
================
32
 xtb: 6.7.1 (edcfbbe)
C            5.02624530951373       -0.69380378285657        0.00128217410744
C            5.02635912525164        0.69300773151357        0.00306406061790
C            3.83253880524508        1.39167278634949        0.00256836677552
C            2.61151803263740        0.72428971635857        0.00051675726158
N            1.43877287186159        1.35551489218889       -0.00001265356793
C            0.27982299461615        0.71504199929654       -0.00082992293857
C           -0.96148150696161        1.41292832185214       -0.00078058078470
C           -1.00211745479555        2.81818385497443       -0.00148417431061
C           -2.21732058611162        3.45388031415909       -0.00105629064062
C           -3.37967586461415        2.66982413450509        0.00022765552455
N           -3.36730727859037        1.36293525276368        0.00071959087429
C           -2.19852458152828        0.72056045304932        0.00010593840031
C           -2.19864584334185       -0.72015945981499        0.00034352623259
N           -3.36753837685255       -1.36233248409626        0.00189061015128
C           -3.38013687759388       -2.66922009928827        0.00192647034113
C           -2.21791750845544       -3.45347665359886        0.00007052807868
C           -1.00260444354045       -2.81798989387086       -0.00138805450733
C           -0.96172170389691       -1.41274219618137       -0.00102626405794
C            0.27970472430080       -0.71507000910669       -0.00148669874305
N            1.43855002377378       -1.35572330526387       -0.00200790136773
C            2.61139920850781       -0.72469803347593       -0.00091108580037
C            3.83231473499060       -1.39227352432978       -0.00071281590767
H            5.95971960596142       -1.23517441191051        0.00154914784149
H            5.95992040104977        1.23422459500522        0.00486232506500
H            3.81928078518432        2.47045636535948        0.00384904464867
H           -0.06754350983830        3.36054807304880       -0.00242003890991
H           -2.28620384569661        4.53046660395812       -0.00168296355457
H           -4.35847731680556        3.13121752469566        0.00085584478173
H           -4.35901829145491       -3.13044054105039        0.00338985507348
H           -2.28698624383134       -4.53005147005684       -0.00012082502776
H           -0.06812885316119       -3.36052276153456       -0.00270176926638
H            3.81889168617648       -2.47105670054233       -0.00197313349049

 projected vibrational frequencies (cm⁻¹)
eigval :       -0.00    -0.00    -0.00     0.00     0.00     0.00
eigval :       54.27    56.66    83.86   113.62   133.69   156.67
eigval :      192.06   199.07   272.82   275.69   300.44   333.81
eigval :      362.49   393.84   398.17   420.30   435.36   452.08
eigval :      511.40   523.03   524.83   528.88   544.12   576.00
eigval :      579.76   594.02   630.31   670.86   672.08   696.13
eigval :      700.58   744.12   761.71   777.70   787.88   795.67
eigval :      818.92   835.62   848.25   878.16   904.53   906.08
eigval :      906.24   916.10   917.71   918.02  1030.75  1057.12
eigval :     1075.68  1084.43  1094.41  1124.27  1131.30  1132.40
eigval :     1168.17  1183.31  1213.21  1226.04  1232.76  1250.56
eigval :     1260.53  1284.06  1284.25  1313.79  1327.79  1339.09
eigval :     1347.49  1369.89  1391.26  1391.31  1419.04  1443.00
eigval :     1456.98  1477.45  1505.06  1506.66  1538.84  1547.63
eigval :     1557.94  1571.79  3057.89  3058.22  3075.62  3076.07
eigval :     3087.24  3091.60  3095.61  3095.92  3098.08  3104.91

   temp. (K)  partition function   enthalpy   heat capacity  entropy
                                   cal/mol     cal/K/mol   cal/K/mol   J/K/mol
 298.15  VIB  0.322E+05             7962.745     57.671     46.292
         ROT  0.320E+07              888.752      2.981     32.748
         INT  0.103E+12             8851.498     60.652     79.039
         TR   0.459E+28             1481.254      4.968     42.792
         TOT                       10332.7515    65.6198   121.8315   509.7432

       T/K    H(0)-H(T)+PV         H(T)/Eh          T*S/Eh         G(T)/Eh
   ------------------------------------------------------------------------
    298.15    0.164663E-01    0.244928E+00    0.578861E-01    0.187042E+00
   ------------------------------------------------------------------------

         :::::::::::::::::::::::::::::::::::::::::::::::::::::
         ::                  THERMODYNAMIC                  ::
         :::::::::::::::::::::::::::::::::::::::::::::::::::::
         :: total free energy         -55.117623532465 Eh   ::
         ::.................................................::
         :: total energy              -55.304665256019 Eh   ::
         :: zero point energy           0.228461530834 Eh   ::
         :: G(RRHO) w/o ZPVE           -0.041419807280 Eh   ::
         :: G(RRHO) contrib.            0.187041723554 Eh   ::
         :::::::::::::::::::::::::::::::::::::::::::::::::::::

           -------------------------------------------------
          | TOTAL ENERGY              -55.304665256019 Eh   |
          | TOTAL ENTHALPY            -55.059737437524 Eh   |
          | TOTAL FREE ENERGY         -55.117623532465 Eh   |
          | GRADIENT NORM               0.000085694031 Eh/α |
           -------------------------------------------------

 * finished run on 2025/09/04 at 18:57:31.046
