   * xtb version 6.7.1 (edcfbbe) compiled by 'albert@albert-system' on 2024-07-22

   ID    Z sym.   atoms
    1    6 C      1-8, 10-13, 15-41
    2    7 N      9, 14
    3    1 H      42-73

          program call               : xtb data2507/toluene/P3C/P3C.xyz --gfn 2 --gbsa toluene --ohess vtight --parallel 40 --molden --ceasefiles --namespace data2507/toluene/P3C/P3C_toluene_S0_preOpt
      * Solvation model:               GBSA
        Solvent                        toluene
        Solvent mass                       9.2140E+01 g/mol
          :  Hamiltonian                  GFN2-xTB          :
 * total energy  :  -105.7143445 Eh     change       -0.3255010E-08 Eh
 * total energy  :  -105.7259470 Eh     change       -0.1160246E-01 Eh
 * total energy  :  -105.7285702 Eh     change       -0.2623203E-02 Eh
 * total energy  :  -105.7289415 Eh     change       -0.3713075E-03 Eh
 * total energy  :  -105.7286293 Eh     change        0.3122491E-03 Eh
 * total energy  :  -105.7292166 Eh     change       -0.5873779E-03 Eh
 * total energy  :  -105.7292486 Eh     change       -0.3201714E-04 Eh
 * total energy  :  -105.7292931 Eh     change       -0.4446551E-04 Eh
 * total energy  :  -105.7293211 Eh     change       -0.2797508E-04 Eh
 * total energy  :  -105.7293683 Eh     change       -0.4718337E-04 Eh
 * total energy  :  -105.7298616 Eh     change       -0.6076563E-06 Eh
 * total energy  :  -105.7298621 Eh     change       -0.5063507E-06 Eh
 * total energy  :  -105.7298626 Eh     change       -0.4541212E-06 Eh
 * total energy  :  -105.7298629 Eh     change       -0.3029902E-06 Eh
 * total energy  :  -105.7298630 Eh     change       -0.1543805E-06 Eh
 * total energy  :  -105.7298632 Eh     change       -0.1436345E-06 Eh
 * total energy  :  -105.7298633 Eh     change       -0.1553110E-06 Eh
 * total energy  :  -105.7298634 Eh     change       -0.1056683E-06 Eh
 * total energy  :  -105.7298635 Eh     change       -0.2885668E-07 Eh
   *** GEOMETRY OPTIMIZATION CONVERGED AFTER 65 ITERATIONS ***

 final structure:
================
73
 xtb: 6.7.1 (edcfbbe)
C           -2.56410200996524        5.57168711162567       -1.08574848457699
C           -3.02047074030892        4.46357934297035       -2.02897106894578
C           -3.56596770439599        3.23159254655979       -1.30202769040345
C           -2.48061243173781        2.47093268471472       -0.54050248913333
C           -2.93427331226596        1.15037059263301        0.09940620544878
C           -4.07153999644803        1.31088963219589        1.11489916461333
C           -3.69955439919007        2.18447766831026        2.30813270903841
C           -3.32638499513815        0.12742739699890       -0.98465117446493
N           -3.39789782497596       -1.21749228531099       -0.47570572468421
C           -4.53291881466904       -1.90977660042502       -0.14158929555710
C           -5.86185978541782       -1.52542506617878       -0.21757761088596
C           -6.82714610303970       -2.44558169727809        0.18759116184736
C           -8.18852282259768       -2.08534909638651        0.12379251717950
N           -9.29846476991173       -1.79253052784740        0.07134657689197
C           -6.48024360773234       -3.72370275615736        0.65930514858609
C           -5.15877766875466       -4.10344848944392        0.73088826365495
C           -4.17619906539710       -3.20322380416129        0.33190028114895
C           -2.74886877215920       -3.27131554187177        0.27526232516571
C           -1.82266107393125       -4.26248351540714        0.59009673795567
C           -0.48478213163126       -4.00194167965614        0.40671511110013
C           -0.05054669879350       -2.75596973640078       -0.08311764715849
C            1.33249762467803       -2.52275506618869       -0.24237092720798
C            2.51851231072929       -2.31742600096784       -0.36133241759044
C            3.90512683708550       -2.11312555003096       -0.50829411657386
C            4.67346100072705       -3.08417137016678       -1.15629394785634
C            6.03157496760103       -2.92084692071324       -1.31556603510558
C            6.68095256060521       -1.78342912613230       -0.82522141108617
C            8.08547262058868       -1.59168066907519       -0.96741579732322
C            8.69743487392616       -0.48807755284743       -0.47679454928543
C            7.95953897581952        0.52675509631662        0.20134987364500
C            8.57074175581206        1.66994906967444        0.72022375734440
C            7.82527104242602        2.63496913387530        1.37336302887440
C            6.45853732541094        2.48649203123422        1.52428662196422
C            5.80419747241386        1.35947919544551        1.02213709913802
C            4.39781384920901        1.17078091560640        1.16000078978113
C            3.78463500362865        0.06694907250607        0.67077912015228
C            4.52088991703637       -0.94955828895875       -0.00299187252039
C            5.91877565410947       -0.78993368743438       -0.16029784072077
C            6.55960104718266        0.36470717255066        0.35293586662761
C           -0.96180946669892       -1.75283221832990       -0.40379307867303
C           -2.30990748552630       -2.01937165230781       -0.22460064155436
H           -2.26188551415310        6.44865764544898       -1.65461043333531
H           -3.37373784083669        5.86101703450307       -0.41841409267013
H           -1.71682090175689        5.25228100119012       -0.48439889267897
H           -2.18635758157763        4.16603412694235       -2.66929051290556
H           -3.80722822338572        4.85871541805687       -2.67697998816887
H           -4.35002384655437        3.55113841598021       -0.61385439500551
H           -4.01914473060545        2.57293458509805       -2.04546461051673
H           -2.07862633474988        3.10989962403085        0.24518328010015
H           -1.66024233418118        2.25242948336318       -1.22991382340706
H           -2.06929926059383        0.74073701318866        0.63541404866908
H           -4.95223043569616        1.72605458996413        0.62157765609984
H           -4.34125710482795        0.31866573740776        1.48602673342973
H           -2.79521603962641        1.81306366706870        2.78636071213559
H           -3.53333372162744        3.21497884734419        2.00631343779118
H           -4.50300084215824        2.17349660989535        3.04183661889125
H           -4.29868122061010        0.38246570150794       -1.40836284283207
H           -2.58600795836913        0.14871007429464       -1.79091281353530
H           -6.16432051051767       -0.55119975717584       -0.57000541325509
H           -7.26652886434436       -4.39892207465581        0.96291640346385
H           -4.88852334185291       -5.08428314729329        1.09101126664519
H           -2.15188171102345       -5.21805110066996        0.96962419506109
H            0.25657950397871       -4.75114586323587        0.64299157404940
H            4.18312772370847       -3.96914910921917       -1.53684318893002
H            6.60986522906491       -3.68016280697562       -1.82286159954821
H            8.65387993937087       -2.35642026754280       -1.47838264493937
H            9.76426225887654       -0.35310120923333       -0.58856074947154
H            9.63833798713843        1.79448229951428        0.60598515656042
H            8.31537791983974        3.51328016684297        1.76903169165733
H            5.88357362719028        3.24571159470519        2.03542134055967
H            3.82886416695682        1.93542739939254        1.67015169817583
H            2.71854724013298       -0.07107292582673        0.78294584319252
H           -0.60959143550657       -0.80626153743039       -0.78348619412600

          :  Hamiltonian                  GFN2-xTB          :
         :: gradient norm              0.000137198095 Eh/a0 ::
         :: HOMO-LUMO gap              2.086251388165 eV    ::
         :: SCC energy              -107.738007394302 Eh    ::
         :: -> dispersion             -0.089614983984 Eh    ::
         :: -> Gsolv                  -0.048013665113 Eh    ::
         :: repulsion energy           2.008143934106 Eh    ::

    * Orbital Energies and Occupations

         #    Occupation            Energy/Eh            Energy/eV
      -------------------------------------------------------------
         1        2.0000           -0.6863037             -18.6753
       ...           ...                  ...                  ...
        87        2.0000           -0.4225585             -11.4984
        88        2.0000           -0.4219836             -11.4828
        89        2.0000           -0.4186147             -11.3911
        90        2.0000           -0.4161913             -11.3251
        91        2.0000           -0.4150361             -11.2937
        92        2.0000           -0.4102780             -11.1642
        93        2.0000           -0.4083895             -11.1128
        94        2.0000           -0.4070307             -11.0759
        95        2.0000           -0.4035269             -10.9805
        96        2.0000           -0.3922382             -10.6733
        97        2.0000           -0.3813030             -10.3758
        98        2.0000           -0.3730552             -10.1513
        99        2.0000           -0.3614791              -9.8363 (HOMO)
       100                         -0.2848108              -7.7501 (LUMO)
       101                         -0.2741324              -7.4595
       102                         -0.2456620              -6.6848
       103                         -0.2362744              -6.4294
       104                         -0.2310690              -6.2877
       105                         -0.2227180              -6.0605
       106                         -0.2133548              -5.8057
       107                         -0.2090881              -5.6896
       108                         -0.2051382              -5.5821
       109                         -0.1881482              -5.1198
       110                         -0.1622940              -4.4162
       ...                                ...                  ...
       196                          1.4216123              38.6840
      -------------------------------------------------------------
                  HL-Gap            0.0766683 Eh            2.0863 eV

     #   Z          covCN         q      C6AA      α(0)
     1   6 C        3.751    -0.102    22.508     6.766
     2   6 C        3.800    -0.053    21.532     6.607
     3   6 C        3.801    -0.059    21.644     6.624
     4   6 C        3.803    -0.064    21.717     6.635
     5   6 C        3.850    -0.023    20.952     6.511
     6   6 C        3.802    -0.054    21.547     6.609
     7   6 C        3.751    -0.102    22.506     6.765
     8   6 C        3.742    -0.007    20.771     6.502
     9   7 N        2.794    -0.040    22.013     6.968
    10   6 C        3.082     0.050    26.797     8.486
    11   6 C        2.919    -0.043    29.057     8.840
    12   6 C        2.976     0.008    27.839     8.655
    13   6 C        1.915     0.118    28.202     8.576
    14   7 N        0.911    -0.287    27.401     7.571
    15   6 C        2.927    -0.034    28.859     8.810
    16   6 C        2.910    -0.031    28.763     8.794
    17   6 C        3.070    -0.012    28.245     8.714
    18   6 C        3.068    -0.019    28.414     8.741
    19   6 C        2.910    -0.031    28.775     8.796
    20   6 C        2.928    -0.040    29.005     8.832
    21   6 C        2.975     0.036    27.193     8.554
    22   6 C        1.984    -0.044    32.235     9.169
    23   6 C        1.982    -0.040    32.122     9.153
    24   6 C        2.970     0.028    27.376     8.582
    25   6 C        2.923    -0.032    28.791     8.799
    26   6 C        2.918    -0.037    28.928     8.820
    27   6 C        2.981     0.010    27.798     8.649
    28   6 C        2.913    -0.037    28.918     8.818
    29   6 C        2.913    -0.037    28.912     8.817
    30   6 C        2.981     0.010    27.784     8.646
    31   6 C        2.920    -0.038    28.936     8.821
    32   6 C        2.913    -0.031    28.774     8.796
    33   6 C        2.920    -0.038    28.937     8.821
    34   6 C        2.981     0.010    27.781     8.646
    35   6 C        2.913    -0.037    28.920     8.818
    36   6 C        2.912    -0.035    28.881     8.812
    37   6 C        2.987     0.009    27.813     8.651
    38   6 C        2.995     0.002    27.974     8.676
    39   6 C        2.997     0.001    27.983     8.677
    40   6 C        2.919    -0.052    29.290     8.875
    41   6 C        3.086     0.048    26.823     8.490
    42   1 H        0.925     0.031     2.574     2.509
    43   1 H        0.925     0.033     2.539     2.492
    44   1 H        0.925     0.035     2.511     2.478
    45   1 H        0.924     0.029     2.597     2.520
    46   1 H        0.924     0.028     2.615     2.529
    47   1 H        0.924     0.037     2.494     2.470
    48   1 H        0.924     0.028     2.622     2.532
    49   1 H        0.925     0.046     2.365     2.405
    50   1 H        0.924     0.032     2.557     2.501
    51   1 H        0.924     0.039     2.463     2.454
    52   1 H        0.924     0.033     2.543     2.494
    53   1 H        0.924     0.028     2.615     2.529
    54   1 H        0.925     0.034     2.533     2.489
    55   1 H        0.925     0.041     2.439     2.442
    56   1 H        0.925     0.033     2.546     2.495
    57   1 H        0.924     0.054     2.270     2.356
    58   1 H        0.924     0.055     2.260     2.351
    59   1 H        0.926     0.038     2.474     2.459
    60   1 H        0.926     0.033     2.539     2.492
    61   1 H        0.926     0.042     2.427     2.436
    62   1 H        0.926     0.034     2.526     2.485
    63   1 H        0.926     0.033     2.550     2.497
    64   1 H        0.926     0.032     2.556     2.500
    65   1 H        0.926     0.032     2.553     2.499
    66   1 H        0.926     0.033     2.549     2.497
    67   1 H        0.926     0.033     2.549     2.497
    68   1 H        0.926     0.032     2.552     2.498
    69   1 H        0.926     0.032     2.563     2.503
    70   1 H        0.926     0.033     2.546     2.495
    71   1 H        0.926     0.033     2.539     2.492
    72   1 H        0.926     0.035     2.515     2.480
    73   1 H        0.926     0.038     2.478     2.462

molecular dipole:
                 x           y           z       tot (Debye)
 q only:        2.115       0.714      -0.167
   full:        2.458       0.603      -0.187       6.450

 projected vibrational frequencies (cm⁻¹)
eigval :       -0.00    -0.00     0.00     0.00     0.00     0.00
eigval :        9.13    13.69    18.74    22.88    30.09    34.61
eigval :       39.00    44.45    54.86    60.95    76.66    92.40
eigval :      103.42   105.43   117.81   133.90   147.38   150.81
eigval :      160.35   169.01   171.49   193.82   205.61   211.59
eigval :      231.48   238.72   239.59   259.48   266.91   284.78
eigval :      295.01   313.64   329.68   336.24   349.77   361.45
eigval :      365.68   393.23   405.44   413.29   417.70   430.15
eigval :      432.08   443.19   454.86   464.44   466.00   473.96
eigval :      478.92   482.97   498.25   508.95   509.75   535.97
eigval :      546.93   566.59   576.11   580.73   583.34   596.58
eigval :      606.95   627.00   651.08   656.59   671.38   678.51
eigval :      683.05   695.45   709.73   726.57   751.84   755.01
eigval :      755.72   771.26   773.67   801.08   807.16   813.04
eigval :      814.32   817.35   818.84   833.67   841.98   847.23
eigval :      851.34   851.77   863.79   884.46   901.99   906.71
eigval :      908.19   917.71   918.45   920.41   927.00   932.09
eigval :      943.89   951.43   981.00   987.66   993.47  1011.86
eigval :     1032.78  1044.77  1056.16  1071.40  1077.81  1096.42
eigval :     1108.46  1121.58  1126.80  1133.61  1143.95  1153.87
eigval :     1158.31  1158.58  1167.77  1169.33  1177.74  1188.00
eigval :     1195.37  1200.05  1210.15  1217.60  1222.35  1230.21
eigval :     1234.95  1240.20  1249.96  1259.29  1263.96  1281.88
eigval :     1283.06  1291.85  1296.21  1310.03  1311.15  1312.53
eigval :     1321.77  1334.15  1346.35  1350.01  1354.21  1355.63
eigval :     1357.63  1363.56  1375.66  1376.92  1385.92  1395.23
eigval :     1411.46  1413.46  1414.89  1416.89  1435.75  1441.23
eigval :     1450.14  1459.44  1470.20  1475.89  1486.03  1486.92
eigval :     1489.14  1493.36  1496.63  1500.34  1501.32  1504.58
eigval :     1507.11  1514.13  1530.98  1542.57  1559.31  1571.55
eigval :     1574.68  1586.67  1597.46  1599.74  1602.98  2302.54
eigval :     2355.30  2918.81  2942.89  2954.91  2957.25  2964.15
eigval :     2969.27  2978.10  2985.33  2990.36  2995.32  3007.70
eigval :     3023.10  3024.38  3028.67  3029.72  3041.59  3046.93
eigval :     3061.62  3065.49  3066.82  3067.70  3071.50  3075.00
eigval :     3080.35  3080.39  3081.17  3084.16  3084.20  3091.67
eigval :     3092.11  3095.51  3096.87

   temp. (K)  partition function   enthalpy   heat capacity  entropy
                                   cal/mol     cal/K/mol   cal/K/mol   J/K/mol
 298.15  VIB  0.317E+17            20715.525    127.436    129.378
         ROT  0.752E+08              888.752      2.981     39.022
         INT  0.238E+25            21604.277    130.417    168.400
         TR   0.118E+29             1481.254      4.968     44.661
         TOT                       23085.5312   135.3855   213.0615   891.4493

       T/K    H(0)-H(T)+PV         H(T)/Eh          T*S/Eh         G(T)/Eh
   ------------------------------------------------------------------------
    298.15    0.367891E-01    0.620963E+00    0.101232E+00    0.519730E+00
   ------------------------------------------------------------------------

         :::::::::::::::::::::::::::::::::::::::::::::::::::::
         ::                  THERMODYNAMIC                  ::
         :::::::::::::::::::::::::::::::::::::::::::::::::::::
         :: total free energy        -105.210133146071 Eh   ::
         ::.................................................::
         :: total energy             -105.729863459035 Eh   ::
         :: zero point energy           0.584173572308 Eh   ::
         :: G(RRHO) w/o ZPVE           -0.064443259344 Eh   ::
         :: G(RRHO) contrib.            0.519730312964 Eh   ::
         :::::::::::::::::::::::::::::::::::::::::::::::::::::

           -------------------------------------------------
          | TOTAL ENERGY             -105.729863459035 Eh   |
          | TOTAL ENTHALPY           -105.108900751035 Eh   |
          | TOTAL FREE ENERGY        -105.210133146071 Eh   |
          | GRADIENT NORM               0.000137218339 Eh/α |
          | HOMO-LUMO GAP               2.086251203716 eV   |
           -------------------------------------------------

 * finished run on 2025/08/21 at 16:42:19.867
