   * xtb version 6.7.1 (edcfbbe) compiled by 'albert@albert-system' on 2024-07-22

   ID    Z sym.   atoms
    1    6 C      1-8, 10-13, 15-41
    2    7 N      9, 14
    3    1 H      42-73

          program call               : xtb data2507/toluene/P3C/P3C_toluene_S0_crest.xyz --gfn 2 --gbsa toluene --ohess vtight --parallel 40 --molden --ceasefiles --namespace data2507/toluene/P3C/P3C_toluene_S0_finalOpt
      * Solvation model:               GBSA
        Solvent                        toluene
        Solvent mass                       9.2140E+01 g/mol
          :  Hamiltonian                  GFN2-xTB          :
 * total energy  :  -105.7314423 Eh     change       -0.2553904E-08 Eh
 * total energy  :  -105.7315078 Eh     change       -0.6545566E-04 Eh
 * total energy  :  -105.7315476 Eh     change       -0.3977606E-04 Eh
 * total energy  :  -105.7315382 Eh     change        0.9350099E-05 Eh
 * total energy  :  -105.7316000 Eh     change       -0.6183087E-04 Eh
 * total energy  :  -105.7316386 Eh     change       -0.3859432E-04 Eh
 * total energy  :  -105.7316876 Eh     change       -0.4895710E-04 Eh
 * total energy  :  -105.7317291 Eh     change       -0.4150944E-04 Eh
 * total energy  :  -105.7317454 Eh     change       -0.1628795E-04 Eh
 * total energy  :  -105.7317574 Eh     change       -0.1199723E-04 Eh
 * total energy  :  -105.7321007 Eh     change       -0.9213513E-06 Eh
 * total energy  :  -105.7321014 Eh     change       -0.6909616E-06 Eh
 * total energy  :  -105.7321018 Eh     change       -0.4171323E-06 Eh
 * total energy  :  -105.7321021 Eh     change       -0.3266292E-06 Eh
 * total energy  :  -105.7321024 Eh     change       -0.2753379E-06 Eh
 * total energy  :  -105.7321028 Eh     change       -0.4091586E-06 Eh
 * total energy  :  -105.7321032 Eh     change       -0.3589420E-06 Eh
 * total energy  :  -105.7321035 Eh     change       -0.2903193E-06 Eh
 * total energy  :  -105.7321035 Eh     change       -0.5775220E-08 Eh
   *** GEOMETRY OPTIMIZATION CONVERGED AFTER 68 ITERATIONS ***

 final structure:
================
73
 xtb: 6.7.1 (edcfbbe)
C            1.24190692752604       -2.50746190046872       -2.31444669254396
C           -0.14062379143701       -1.89816109142130       -2.51801963411009
C           -1.18005347289580       -2.51973295420058       -1.58604876659017
C           -2.57076961092166       -1.93366874899566       -1.83096659153851
C           -3.64726934999869       -2.35330133483536       -0.81691720625788
C           -3.70551868201760       -3.87541343077862       -0.63564174520506
C           -5.02771102639961       -4.36447415480614       -0.05156194340217
C           -3.45503995065849       -1.64151294256506        0.53540458264489
N           -3.75514379600217       -0.23477901095879        0.45958870291766
C           -5.02130686181972        0.28959265623056        0.42649897745377
C           -6.24411711371626       -0.35613525728009        0.50743730502103
C           -7.39433987798245        0.42990849873991        0.45747404836300
C           -8.65602630049717       -0.19417972059470        0.53276132084750
N           -9.68403181078882       -0.70420899584902        0.59308987039543
C           -7.32943607846480        1.82894515275563        0.33193228558236
C           -6.11131921776997        2.46623374665079        0.25485409678393
C           -4.94838404107099        1.70393931458157        0.30102831119861
C           -3.55694208400151        2.02771132875106        0.24878011503675
C           -2.85807834699143        3.22677654039809        0.12885305884562
C           -1.48398608160186        3.19543905649345        0.10122403451981
C           -0.78715762063505        1.97584719068956        0.19929549741417
C            0.62163454876775        1.97425978455610        0.15648703203994
C            1.83046312959852        1.95390808975705        0.10807532677102
C            3.23575228935518        1.95975226008890        0.04185929764152
C            3.90064985471546        3.14055340440677       -0.30392675882297
C            5.27430589759201        3.18150667585729       -0.38344949562104
C            6.04407835987022        2.04344877788038       -0.11945781635583
C            7.46632682000116        2.05611451332824       -0.19460391234592
C            8.19395725725785        0.94426578178446        0.06659825938730
C            7.56452710588276       -0.28384287667088        0.42640647689399
C            8.29480587354416       -1.44198337773022        0.70098438288485
C            7.65229564754783       -2.61721497044254        1.04679631214230
C            6.27265593605955       -2.66767259349916        1.12895633753158
C            5.50123609570643       -1.53393964992463        0.86430644152654
C            4.07820508409569       -1.54614784610940        0.94412052500909
C            3.35008977237777       -0.43453807601164        0.68313816367447
C            3.97634036502822        0.79093128791889        0.31816648583982
C            5.38851704862230        0.83717773950964        0.23453030206492
C            6.15014131475264       -0.32571150502775        0.50809707847031
C           -1.47025943762019        0.76827860838515        0.32786732283166
C           -2.85507969207381        0.79804921510067        0.34611907708667
H            1.22454701530021       -3.57518930132139       -2.52447639005460
H            1.96818472020207       -2.03914642146661       -2.97514815429264
H            1.57627533966463       -2.36528703930783       -1.28922363617646
H           -0.45248787077104       -2.04603212826449       -3.55486609208718
H           -0.09014941209375       -0.82097920425449       -2.34033538455853
H           -1.20055112407585       -3.59850364507148       -1.74896324281459
H           -0.87001240687845       -2.35104756384756       -0.55330338791512
H           -2.90019519663234       -2.23562381362207       -2.82829799202981
H           -2.50133277589783       -0.84282753040654       -1.83379002838752
H           -4.61195587923659       -2.02448082341110       -1.22197828992287
H           -3.57072869663110       -4.34213193281415       -1.61332413101261
H           -2.88477536064806       -4.19972467625904        0.00633862851586
H           -5.18448297457030       -3.99081773488933        0.95786709071502
H           -5.86287760956964       -4.04411953108543       -0.67199043375975
H           -5.03660561774500       -5.45136007884930       -0.00735293185190
H           -4.11599976351560       -2.08869536223863        1.28281363948778
H           -2.42837011880845       -1.75948274910466        0.88303941441262
H           -6.32641933306485       -1.42742119845342        0.60476577534796
H           -8.25001412916201        2.39269952459446        0.29739471583579
H           -6.05937205909892        3.54012161200105        0.16017337745376
H           -3.39049026656463        4.16322510653210        0.05578731716441
H           -0.91723070652364        4.10972575263670        0.00467003142909
H            3.31611499963863        4.02589151832442       -0.51129272085959
H            5.77182773371868        4.10256128684972       -0.65291049541623
H            7.95285706036715        2.98260880222300       -0.46656640447686
H            9.27321235890228        0.96450364429137        0.00711851361227
H            9.37351979573957       -1.41164756191335        0.63979309236506
H            8.23420768080222       -3.50373736767379        1.25548746922088
H            5.77865669118025       -3.58993649356714        1.40035270773009
H            3.59290548926473       -2.47155038310192        1.22149793600933
H            2.27176876999308       -0.44750080105824        0.74877439095758
H           -0.91485101371079       -0.15307307592845        0.39863382517034

          :  Hamiltonian                  GFN2-xTB          :
         :: gradient norm              0.000094979668 Eh/a0 ::
         :: HOMO-LUMO gap              1.982159247709 eV    ::
         :: SCC energy              -107.740748878086 Eh    ::
         :: -> dispersion             -0.092368007732 Eh    ::
         :: -> Gsolv                  -0.046571176403 Eh    ::
         :: repulsion energy           2.008645421220 Eh    ::

    * Orbital Energies and Occupations

         #    Occupation            Energy/Eh            Energy/eV
      -------------------------------------------------------------
         1        2.0000           -0.6856583             -18.6577
       ...           ...                  ...                  ...
        87        2.0000           -0.4234241             -11.5220
        88        2.0000           -0.4219461             -11.4817
        89        2.0000           -0.4204348             -11.4406
        90        2.0000           -0.4162689             -11.3273
        91        2.0000           -0.4136965             -11.2573
        92        2.0000           -0.4109882             -11.1836
        93        2.0000           -0.4083890             -11.1128
        94        2.0000           -0.4074048             -11.0861
        95        2.0000           -0.4004883             -10.8978
        96        2.0000           -0.3941197             -10.7245
        97        2.0000           -0.3836097             -10.4386
        98        2.0000           -0.3723653             -10.1326
        99        2.0000           -0.3600627              -9.7978 (HOMO)
       100                         -0.2872197              -7.8156 (LUMO)
       101                         -0.2721215              -7.4048
       102                         -0.2463352              -6.7031
       103                         -0.2353832              -6.4051
       104                         -0.2305190              -6.2727
       105                         -0.2227540              -6.0614
       106                         -0.2131674              -5.8006
       107                         -0.2087770              -5.6811
       108                         -0.1987906              -5.4094
       109                         -0.1841829              -5.0119
       110                         -0.1610002              -4.3810
       ...                                ...                  ...
       196                          1.4237904              38.7433
      -------------------------------------------------------------
                  HL-Gap            0.0728430 Eh            1.9822 eV

     #   Z          covCN         q      C6AA      α(0)
     1   6 C        3.752    -0.101    22.488     6.763
     2   6 C        3.801    -0.052    21.505     6.602
     3   6 C        3.802    -0.058    21.614     6.619
     4   6 C        3.803    -0.062    21.687     6.630
     5   6 C        3.850    -0.023    20.952     6.511
     6   6 C        3.802    -0.060    21.655     6.625
     7   6 C        3.751    -0.102    22.508     6.766
     8   6 C        3.742    -0.007    20.776     6.503
     9   7 N        2.794    -0.039    21.997     6.966
    10   6 C        3.087     0.049    26.807     8.487
    11   6 C        2.919    -0.044    29.081     8.843
    12   6 C        2.976     0.007    27.850     8.656
    13   6 C        1.915     0.117    28.208     8.577
    14   7 N        0.911    -0.288    27.422     7.574
    15   6 C        2.927    -0.034    28.855     8.809
    16   6 C        2.910    -0.031    28.767     8.795
    17   6 C        3.068    -0.012    28.247     8.715
    18   6 C        3.070    -0.020    28.427     8.742
    19   6 C        2.910    -0.031    28.784     8.797
    20   6 C        2.927    -0.041    29.013     8.833
    21   6 C        2.974     0.035    27.208     8.556
    22   6 C        1.984    -0.045    32.250     9.171
    23   6 C        1.982    -0.041    32.139     9.155
    24   6 C        2.970     0.028    27.375     8.582
    25   6 C        2.923    -0.032    28.786     8.799
    26   6 C        2.917    -0.037    28.927     8.820
    27   6 C        2.981     0.010    27.794     8.648
    28   6 C        2.913    -0.037    28.918     8.818
    29   6 C        2.913    -0.037    28.910     8.817
    30   6 C        2.981     0.010    27.785     8.646
    31   6 C        2.920    -0.038    28.933     8.821
    32   6 C        2.913    -0.031    28.773     8.796
    33   6 C        2.920    -0.038    28.933     8.821
    34   6 C        2.981     0.010    27.781     8.646
    35   6 C        2.913    -0.037    28.912     8.817
    36   6 C        2.913    -0.034    28.856     8.809
    37   6 C        2.987     0.009    27.807     8.650
    38   6 C        2.995     0.002    27.972     8.676
    39   6 C        2.997     0.002    27.981     8.677
    40   6 C        2.920    -0.051    29.266     8.871
    41   6 C        3.082     0.049    26.808     8.488
    42   1 H        0.925     0.034     2.533     2.489
    43   1 H        0.925     0.031     2.574     2.509
    44   1 H        0.925     0.034     2.530     2.487
    45   1 H        0.924     0.027     2.623     2.533
    46   1 H        0.924     0.028     2.617     2.530
    47   1 H        0.924     0.035     2.511     2.478
    48   1 H        0.924     0.030     2.593     2.518
    49   1 H        0.924     0.032     2.554     2.499
    50   1 H        0.924     0.033     2.539     2.492
    51   1 H        0.924     0.037     2.493     2.469
    52   1 H        0.924     0.042     2.418     2.432
    53   1 H        0.924     0.039     2.460     2.453
    54   1 H        0.925     0.031     2.572     2.508
    55   1 H        0.925     0.034     2.537     2.491
    56   1 H        0.925     0.038     2.475     2.460
    57   1 H        0.924     0.054     2.273     2.358
    58   1 H        0.924     0.059     2.206     2.323
    59   1 H        0.926     0.042     2.425     2.435
    60   1 H        0.926     0.033     2.549     2.497
    61   1 H        0.926     0.041     2.439     2.442
    62   1 H        0.926     0.033     2.541     2.493
    63   1 H        0.926     0.032     2.565     2.504
    64   1 H        0.926     0.032     2.560     2.502
    65   1 H        0.926     0.032     2.559     2.501
    66   1 H        0.925     0.032     2.551     2.498
    67   1 H        0.926     0.033     2.550     2.497
    68   1 H        0.926     0.032     2.554     2.499
    69   1 H        0.926     0.032     2.563     2.503
    70   1 H        0.926     0.033     2.543     2.494
    71   1 H        0.926     0.033     2.547     2.496
    72   1 H        0.926     0.035     2.520     2.482
    73   1 H        0.926     0.039     2.460     2.453

molecular dipole:
                 x           y           z       tot (Debye)
 q only:        2.182      -0.397      -0.130
   full:        2.515      -0.203      -0.144       6.423

 projected vibrational frequencies (cm⁻¹)
eigval :       -0.00    -0.00    -0.00    -0.00    -0.00     0.00
eigval :       -5.35    13.67    17.55    19.13    28.32    40.89
eigval :       49.59    57.32    64.94    70.93    78.15    94.32
eigval :       99.13   108.60   121.93   124.90   143.03   155.43
eigval :      156.94   164.07   177.94   197.10   204.45   213.21
eigval :      227.06   235.05   237.74   243.31   271.18   290.68
eigval :      298.62   311.96   320.20   333.39   356.33   365.26
eigval :      369.61   393.04   399.35   409.50   412.89   417.84
eigval :      430.45   440.37   447.87   455.26   466.02   473.82
eigval :      476.61   479.96   498.53   511.89   516.46   537.86
eigval :      553.94   573.95   578.14   579.78   582.76   596.61
eigval :      610.72   624.04   651.80   652.59   672.53   678.07
eigval :      686.18   686.63   711.95   726.81   751.43   754.85
eigval :      759.21   770.05   771.95   801.58   807.63   809.30
eigval :      816.73   822.46   822.55   834.46   847.27   848.46
eigval :      854.09   860.35   868.21   884.92   904.45   907.25
eigval :      912.03   918.58   919.37   920.98   926.57   937.58
eigval :      938.36   948.94   981.27   993.55   994.42  1001.41
eigval :     1031.88  1050.41  1072.07  1074.69  1085.06  1090.69
eigval :     1109.57  1111.34  1126.21  1131.93  1144.61  1154.79
eigval :     1158.21  1161.44  1165.28  1169.34  1177.95  1181.44
eigval :     1195.43  1201.58  1211.11  1222.60  1226.91  1230.24
eigval :     1235.87  1236.72  1249.59  1259.51  1262.38  1282.14
eigval :     1284.42  1284.54  1293.99  1304.16  1307.91  1311.04
eigval :     1312.46  1334.94  1345.40  1348.04  1349.79  1356.12
eigval :     1358.20  1363.47  1376.76  1377.78  1386.69  1396.77
eigval :     1411.56  1414.03  1414.77  1416.96  1437.41  1442.00
eigval :     1450.95  1454.46  1468.95  1474.26  1486.98  1489.78
eigval :     1494.22  1497.67  1501.04  1501.80  1502.26  1503.52
eigval :     1504.42  1508.63  1530.15  1541.89  1559.46  1571.52
eigval :     1574.80  1586.13  1596.14  1600.11  1602.88  2298.72
eigval :     2354.51  2920.01  2956.61  2958.40  2961.09  2973.36
eigval :     2974.11  2976.47  2979.16  2987.92  2992.37  3002.42
eigval :     3022.11  3024.30  3025.92  3028.99  3036.70  3037.69
eigval :     3061.26  3064.79  3067.06  3067.37  3071.31  3075.03
eigval :     3079.96  3080.04  3081.72  3083.20  3084.98  3091.76
eigval :     3095.33  3100.22  3105.04

   temp. (K)  partition function   enthalpy   heat capacity  entropy
                                   cal/mol     cal/K/mol   cal/K/mol   J/K/mol
 298.15  VIB  0.320E+17            20692.275    128.250    129.991
         ROT  0.619E+08              888.752      2.981     38.634
         INT  0.198E+25            21581.028    131.231    168.625
         TR   0.118E+29             1481.254      4.968     44.661
         TOT                       23062.2814   136.1993   213.2864   892.3904

       T/K    H(0)-H(T)+PV         H(T)/Eh          T*S/Eh         G(T)/Eh
   ------------------------------------------------------------------------
    298.15    0.367521E-01    0.620997E+00    0.101339E+00    0.519658E+00
   ------------------------------------------------------------------------

         :::::::::::::::::::::::::::::::::::::::::::::::::::::
         ::                  THERMODYNAMIC                  ::
         :::::::::::::::::::::::::::::::::::::::::::::::::::::
         :: total free energy        -105.212445514107 Eh   ::
         ::.................................................::
         :: total energy             -105.732103455568 Eh   ::
         :: zero point energy           0.584245114922 Eh   ::
         :: G(RRHO) w/o ZPVE           -0.064587173460 Eh   ::
         :: G(RRHO) contrib.            0.519657941461 Eh   ::
         :::::::::::::::::::::::::::::::::::::::::::::::::::::

           -------------------------------------------------
          | TOTAL ENERGY             -105.732103455568 Eh   |
          | TOTAL ENTHALPY           -105.111106255816 Eh   |
          | TOTAL FREE ENERGY        -105.212445514107 Eh   |
          | GRADIENT NORM               0.000094965930 Eh/α |
          | HOMO-LUMO GAP               1.982159186947 eV   |
           -------------------------------------------------

 * finished run on 2025/08/21 at 16:59:42.583
