   * xtb version 6.7.1 (edcfbbe) compiled by 'albert@albert-system' on 2024-07-22

   ID    Z sym.   atoms
    1    6 C      1-8, 10-13, 15-41
    2    7 N      9, 14
    3    1 H      42-73

          program call               : xtb data2507/toluene/P3C/P3C_toluene_T1_crest.xyz --gfn 2 --uhf 2 --gbsa toluene --ohess vtight --parallel 40 --molden --ceasefiles --namespace data2507/toluene/P3C/P3C_toluene_T1_finalOpt
      * Solvation model:               GBSA
        Solvent                        toluene
        Solvent mass                       9.2140E+01 g/mol
          :  Hamiltonian                  GFN2-xTB          :
 * total energy  :  -105.6652521 Eh     change       -0.7620201E-08 Eh
 * total energy  :  -105.6653263 Eh     change       -0.7427350E-04 Eh
 * total energy  :  -105.6653748 Eh     change       -0.4842509E-04 Eh
 * total energy  :  -105.6653962 Eh     change       -0.2148162E-04 Eh
 * total energy  :  -105.6654509 Eh     change       -0.5468058E-04 Eh
 * total energy  :  -105.6654931 Eh     change       -0.4215232E-04 Eh
 * total energy  :  -105.6655495 Eh     change       -0.5640994E-04 Eh
 * total energy  :  -105.6655911 Eh     change       -0.4161629E-04 Eh
 * total energy  :  -105.6656290 Eh     change       -0.3792198E-04 Eh
 * total energy  :  -105.6656532 Eh     change       -0.2413875E-04 Eh
 * total energy  :  -105.6658782 Eh     change       -0.1873947E-06 Eh
 * total energy  :  -105.6658784 Eh     change       -0.1786348E-06 Eh
 * total energy  :  -105.6658786 Eh     change       -0.1864364E-06 Eh
 * total energy  :  -105.6658788 Eh     change       -0.2376368E-06 Eh
 * total energy  :  -105.6658790 Eh     change       -0.1930188E-06 Eh
 * total energy  :  -105.6658792 Eh     change       -0.1731461E-06 Eh
 * total energy  :  -105.6658793 Eh     change       -0.1591892E-06 Eh
 * total energy  :  -105.6658795 Eh     change       -0.1688599E-06 Eh
 * total energy  :  -105.6658795 Eh     change       -0.9954846E-09 Eh
   *** GEOMETRY OPTIMIZATION CONVERGED AFTER 68 ITERATIONS ***

 final structure:
================
73
 xtb: 6.7.1 (edcfbbe)
C            1.18112145928489       -2.61417032922160       -2.16859636663087
C           -0.22708145469711       -2.08177799284642       -2.40843278871300
C           -1.22178009169988       -2.61113435037224       -1.37616721123892
C           -2.63203013816070       -2.08469876176010       -1.64262595671915
C           -3.67327730853366       -2.41490260130809       -0.56124840872300
C           -3.69876384095716       -3.91109057742392       -0.22416089615404
C           -4.99833137298705       -4.35949700431627        0.43791938876360
C           -3.46044917082071       -1.56647045395626        0.70671082551707
N           -3.75193995007639       -0.17334160520811        0.48726425035845
C           -5.01515283236305        0.35069337506220        0.39102806090945
C           -6.23973260278444       -0.27233087990610        0.54833655223513
C           -7.38890734010707        0.51143843974771        0.41167852168487
C           -8.65217461605897       -0.08742151381874        0.56547668264735
N           -9.68562554094646       -0.57748383470899        0.69067703211993
C           -7.31270261338334        1.88774959044842        0.12220620633520
C           -6.09409325093125        2.50391019219612       -0.03148094776137
C           -4.93033824770650        1.74370889717487        0.10141666077612
C           -3.54673250521590        2.05162392049617        0.01700461366833
C           -2.83878385588810        3.23245473085942       -0.24138453807943
C           -1.47160862386907        3.20067199462747       -0.24939212928036
C           -0.76476665258883        1.99637067451824        0.00779753495424
C            0.61925908288251        1.99234622749479       -0.00120236820435
C            1.84605272952913        1.97113134536791       -0.01199282721546
C            3.21639510516107        1.96557197708224       -0.03416579552644
C            3.92688230130086        3.15320479334648       -0.35472797221304
C            5.28281255293971        3.17463469775630       -0.40104794873484
C            6.05599280879032        1.99973239572640       -0.12571838099449
C            7.45038507865256        2.00642705252270       -0.17308510012264
C            8.18011017921382        0.86411071747027        0.09786615631949
C            7.53857136247628       -0.34135230738289        0.43142175119376
C            8.25933425123853       -1.52380894569735        0.71508509853535
C            7.59787276442183       -2.69504484491841        1.04087709592018
C            6.22067758049076       -2.73583898786945        1.09867813636219
C            5.45063750586016       -1.57743474663373        0.82385085894829
C            4.04925335423432       -1.58100553365035        0.87778493349761
C            3.32496428451269       -0.43552950014504        0.60230229653577
C            3.96247459332532        0.75802435974627        0.26163392507447
C            5.37573204377393        0.79718145692595        0.20593582315275
C            6.12024634203887       -0.37257633940998        0.48670881009398
C           -1.46631742500667        0.80143235995619        0.26940266526311
C           -2.84296770516656        0.83634503723491        0.26279189509058
H            1.19543760565638       -3.70062632637104       -2.23020896079912
H            1.87149827361802       -2.21905323836471       -2.91059879026558
H            1.53904715475281       -2.32162422220151       -1.18417909263867
H           -0.55836770273740       -2.37137186684858       -3.40874110211917
H           -0.21186085654882       -0.98961208370468       -2.37049443401769
H           -1.22160468926779       -3.70170935742023       -1.41083030893599
H           -0.88553883030045       -2.31496292422265       -0.38126971877235
H           -2.97971303892229       -2.49839690474506       -2.59262846424709
H           -2.58845578209883       -0.99924917071337       -1.76358274960631
H           -4.65369806677503       -2.14419070761965       -0.97125885176228
H           -3.57644627997705       -4.47357821396210       -1.15182511917974
H           -2.85822922199828       -4.15393854958399        0.42811889959940
H           -5.14173004237914       -3.88396857833283        1.40557892950157
H           -5.85258926797097       -4.12088317213146       -0.19326382933818
H           -4.98454734107797       -5.43571557922090        0.59602191513653
H           -4.11606083151741       -1.92895830754086        1.50327984586007
H           -2.43070768510700       -1.65549669672087        1.05360661375642
H           -6.32964200758656       -1.32400642996728        0.77144451765131
H           -8.23063455113981        2.44903411930813        0.02528841604175
H           -6.03517769707652        3.55909130522302       -0.25035069093303
H           -3.37279288911877        4.15138352517810       -0.43163115872873
H           -0.90073636240839        4.09558629527607       -0.44855725307408
H            3.35293368103029        4.04446836350328       -0.56669257124910
H            5.81011839659504        4.08459571826187       -0.64876649256402
H            7.96227760979730        2.92438410555264       -0.42591714980930
H            9.25948381524106        0.88831693738677        0.05567496186408
H            9.33830587822765       -1.49958896835034        0.67297863880910
H            8.16931972767069       -3.58760182945307        1.25348159891741
H            5.70861951157786       -3.65189157249239        1.35388917783258
H            3.53700749484805       -2.49581519502892        1.13889934198239
H            2.24593269890210       -0.45068512531735        0.65043016227484
H           -0.91066085379718       -0.10253975766916        0.45887894128980

          :  Hamiltonian                  GFN2-xTB          :
         :: gradient norm              0.000056626255 Eh/a0 ::
         :: HOMO-LUMO gap              0.633568078459 eV    ::
         :: SCC energy              -107.657448291539 Eh    ::
         :: -> dispersion             -0.092445070724 Eh    ::
         :: -> Gsolv                  -0.046940922380 Eh    ::
         :: repulsion energy           1.991568797271 Eh    ::

    * Orbital Energies and Occupations

         #    Occupation            Energy/Eh            Energy/eV
      -------------------------------------------------------------
         1        2.0000           -0.6845023             -18.6263
       ...           ...                  ...                  ...
        88        2.0000           -0.4205853             -11.4447
        89        2.0000           -0.4191212             -11.4049
        90        2.0000           -0.4160955             -11.3225
        91        2.0000           -0.4139539             -11.2643
        92        2.0000           -0.4108419             -11.1796
        93        2.0000           -0.4106285             -11.1738
        94        2.0000           -0.4058871             -11.0447
        95        2.0000           -0.3995669             -10.8728
        96        2.0000           -0.3978350             -10.8256
        97        2.0000           -0.3833402             -10.4312
        98        1.9999           -0.3722750             -10.1301
        99        1.0001           -0.3552425              -9.6666
       100        1.0000           -0.2955526              -8.0424 (HOMO)
       101        0.0000           -0.2722694              -7.4088 (LUMO)
       102                         -0.2452872              -6.6746
       103                         -0.2341850              -6.3725
       104                         -0.2297199              -6.2510
       105                         -0.2281792              -6.2091
       106                         -0.2131316              -5.7996
       107                         -0.2055627              -5.5936
       108                         -0.2000602              -5.4439
       109                         -0.1841913              -5.0121
       110                         -0.1717460              -4.6734
       111                         -0.1564777              -4.2580
       ...                                ...                  ...
       196                          1.3883108              37.7779
      -------------------------------------------------------------
                  HL-Gap            0.0232832 Eh            0.6336 eV

     #   Z          covCN         q      C6AA      α(0)
     1   6 C        3.752    -0.101    22.491     6.763
     2   6 C        3.801    -0.052    21.504     6.602
     3   6 C        3.802    -0.058    21.616     6.619
     4   6 C        3.803    -0.062    21.681     6.629
     5   6 C        3.850    -0.023    20.953     6.511
     6   6 C        3.802    -0.060    21.654     6.625
     7   6 C        3.751    -0.102    22.508     6.766
     8   6 C        3.742    -0.006    20.766     6.501
     9   7 N        2.792    -0.042    22.050     6.974
    10   6 C        3.084     0.050    26.780     8.483
    11   6 C        2.918    -0.047    29.161     8.855
    12   6 C        2.976     0.004    27.924     8.668
    13   6 C        1.915     0.115    28.269     8.587
    14   7 N        0.911    -0.298    27.667     7.607
    15   6 C        2.926    -0.034    28.847     8.808
    16   6 C        2.909    -0.033    28.831     8.805
    17   6 C        3.066    -0.013    28.273     8.719
    18   6 C        3.069    -0.019    28.398     8.738
    19   6 C        2.907    -0.032    28.793     8.799
    20   6 C        2.925    -0.039    28.970     8.827
    21   6 C        2.970     0.033    27.260     8.564
    22   6 C        1.987    -0.036    32.012     9.137
    23   6 C        1.983    -0.034    31.952     9.129
    24   6 C        2.964     0.025    27.433     8.591
    25   6 C        2.916    -0.029    28.726     8.789
    26   6 C        2.912    -0.036    28.898     8.815
    27   6 C        2.978     0.010    27.779     8.645
    28   6 C        2.915    -0.037    28.915     8.818
    29   6 C        2.916    -0.038    28.944     8.822
    30   6 C        2.978     0.012    27.752     8.641
    31   6 C        2.918    -0.038    28.935     8.821
    32   6 C        2.908    -0.029    28.722     8.788
    33   6 C        2.917    -0.038    28.935     8.821
    34   6 C        2.978     0.012    27.749     8.641
    35   6 C        2.916    -0.038    28.945     8.822
    36   6 C        2.915    -0.035    28.871     8.811
    37   6 C        2.981     0.010    27.796     8.648
    38   6 C        2.992     0.003    27.943     8.671
    39   6 C        2.997     0.002    27.980     8.677
    40   6 C        2.918    -0.052    29.282     8.874
    41   6 C        3.075     0.051    26.789     8.486
    42   1 H        0.925     0.034     2.533     2.489
    43   1 H        0.925     0.031     2.573     2.509
    44   1 H        0.925     0.035     2.520     2.483
    45   1 H        0.924     0.027     2.625     2.534
    46   1 H        0.924     0.028     2.622     2.532
    47   1 H        0.924     0.035     2.511     2.478
    48   1 H        0.924     0.030     2.588     2.516
    49   1 H        0.924     0.032     2.556     2.500
    50   1 H        0.924     0.033     2.550     2.497
    51   1 H        0.924     0.036     2.496     2.471
    52   1 H        0.924     0.042     2.418     2.432
    53   1 H        0.924     0.039     2.460     2.453
    54   1 H        0.925     0.031     2.572     2.508
    55   1 H        0.925     0.033     2.540     2.492
    56   1 H        0.925     0.038     2.475     2.460
    57   1 H        0.924     0.053     2.281     2.362
    58   1 H        0.924     0.059     2.211     2.326
    59   1 H        0.926     0.038     2.473     2.459
    60   1 H        0.926     0.030     2.586     2.515
    61   1 H        0.926     0.038     2.471     2.458
    62   1 H        0.926     0.033     2.540     2.492
    63   1 H        0.926     0.033     2.550     2.497
    64   1 H        0.926     0.033     2.545     2.495
    65   1 H        0.926     0.033     2.539     2.492
    66   1 H        0.926     0.034     2.533     2.489
    67   1 H        0.926     0.034     2.533     2.489
    68   1 H        0.926     0.034     2.533     2.489
    69   1 H        0.926     0.033     2.545     2.495
    70   1 H        0.926     0.035     2.520     2.483
    71   1 H        0.926     0.035     2.522     2.483
    72   1 H        0.926     0.035     2.519     2.482
    73   1 H        0.926     0.038     2.472     2.459

molecular dipole:
                 x           y           z       tot (Debye)
 q only:        2.878      -0.374      -0.117
   full:        3.201      -0.186      -0.153       8.160

 projected vibrational frequencies (cm⁻¹)
eigval :       -0.00    -0.00    -0.00    -0.00     0.00     0.00
eigval :        8.40    11.00    14.66    20.54    32.64    36.33
eigval :       48.44    53.76    61.51    63.71    70.30    98.16
eigval :       99.92   107.87   115.96   122.85   142.15   153.42
eigval :      155.76   161.71   179.26   191.21   195.05   203.08
eigval :      228.15   235.04   237.57   247.17   265.08   291.27
eigval :      298.15   308.71   313.34   323.88   354.27   363.15
eigval :      369.71   387.89   391.69   402.40   413.00   417.56
eigval :      428.01   429.32   432.13   445.91   450.95   454.14
eigval :      466.20   473.01   494.88   502.54   515.70   535.84
eigval :      553.97   559.01   570.88   578.19   580.41   582.87
eigval :      597.31   621.45   622.58   652.50   664.47   669.19
eigval :      676.22   683.52   702.71   722.41   734.58   747.57
eigval :      750.96   751.97   767.54   781.46   798.46   800.16
eigval :      806.36   807.68   813.94   820.39   822.39   824.82
eigval :      845.02   847.13   856.79   867.09   885.40   888.45
eigval :      900.69   904.44   910.60   916.07   918.86   929.79
eigval :      938.22   947.76   972.49   985.06   992.27  1000.86
eigval :     1030.83  1043.04  1062.62  1073.50  1085.38  1090.94
eigval :     1110.74  1118.46  1121.85  1130.72  1132.56  1145.06
eigval :     1149.49  1160.73  1162.37  1166.09  1167.28  1179.88
eigval :     1192.09  1198.36  1207.46  1211.77  1224.62  1228.19
eigval :     1229.25  1234.74  1245.51  1250.06  1262.13  1278.04
eigval :     1282.49  1283.98  1290.68  1296.09  1303.50  1310.76
eigval :     1328.94  1330.60  1335.89  1343.67  1346.87  1349.50
eigval :     1352.36  1356.91  1360.51  1363.91  1377.05  1381.16
eigval :     1388.22  1396.55  1413.49  1414.30  1416.28  1431.14
eigval :     1448.70  1454.64  1461.41  1467.46  1482.87  1489.40
eigval :     1493.45  1493.70  1496.87  1500.04  1502.30  1502.98
eigval :     1504.38  1505.07  1508.22  1509.29  1511.39  1520.00
eigval :     1529.36  1546.77  1560.51  1572.56  1582.76  2152.63
eigval :     2331.23  2921.87  2956.55  2957.96  2959.08  2973.01
eigval :     2976.07  2976.15  2979.08  2988.33  2993.25  3003.86
eigval :     3022.28  3024.55  3026.40  3030.10  3037.41  3038.12
eigval :     3066.55  3067.27  3069.03  3073.16  3078.13  3079.17
eigval :     3079.68  3080.78  3081.51  3084.82  3087.33  3091.03
eigval :     3094.28  3099.03  3104.62

   temp. (K)  partition function   enthalpy   heat capacity  entropy
                                   cal/mol     cal/K/mol   cal/K/mol   J/K/mol
 298.15  VIB  0.498E+17            20953.529    129.375    131.494
         ROT  0.618E+08              888.752      2.981     38.632
         INT  0.308E+25            21842.282    132.355    170.126
         TR   0.118E+29             1481.254      4.968     44.661
         TOT                       23323.5357   137.3236   214.7874   898.6707

       T/K    H(0)-H(T)+PV         H(T)/Eh          T*S/Eh         G(T)/Eh
   ------------------------------------------------------------------------
    298.15    0.371684E-01    0.618043E+00    0.102052E+00    0.515990E+00
   ------------------------------------------------------------------------

         :::::::::::::::::::::::::::::::::::::::::::::::::::::
         ::                  THERMODYNAMIC                  ::
         :::::::::::::::::::::::::::::::::::::::::::::::::::::
         :: total free energy        -105.149889207317 Eh   ::
         ::.................................................::
         :: total energy             -105.665879495957 Eh   ::
         :: zero point energy           0.580874313819 Eh   ::
         :: G(RRHO) w/o ZPVE           -0.064884025179 Eh   ::
         :: G(RRHO) contrib.            0.515990288640 Eh   ::
         :::::::::::::::::::::::::::::::::::::::::::::::::::::

           -------------------------------------------------
          | TOTAL ENERGY             -105.665879495957 Eh   |
          | TOTAL ENTHALPY           -105.047836762134 Eh   |
          | TOTAL FREE ENERGY        -105.149889207317 Eh   |
          | GRADIENT NORM               0.000056626340 Eh/α |
          | HOMO-LUMO GAP               0.633568496703 eV   |
           -------------------------------------------------

 * finished run on 2025/08/21 at 17:14:31.498
