   * xtb version 6.7.1 (edcfbbe) compiled by 'albert@albert-system' on 2024-07-22

   ID    Z sym.   atoms
    1    6 C      1-8, 10-13, 15-41
    2    7 N      9, 14
    3    1 H      42-73

          program call               : xtb data2507/toluene/P3C/P3C_toluene_S0_finalOpt.xtbopt.xyz --gfn 2 --uhf 2 --gbsa toluene --ohess vtight --parallel 40 --molden --ceasefiles --namespace data2507/toluene/P3C/P3C_toluene_T1_preOpt
      * Solvation model:               GBSA
        Solvent                        toluene
        Solvent mass                       9.2140E+01 g/mol
          :  Hamiltonian                  GFN2-xTB          :
 * total energy  :  -105.6587197 Eh     change       -0.1429200E-08 Eh
 * total energy  :  -105.6643168 Eh     change       -0.5597112E-02 Eh
 * total energy  :  -105.6656969 Eh     change       -0.1380064E-02 Eh
 * total energy  :  -105.6657313 Eh     change       -0.3439864E-04 Eh
 * total energy  :  -105.6657418 Eh     change       -0.1048483E-04 Eh
 * total energy  :  -105.6657530 Eh     change       -0.1123285E-04 Eh
 * total energy  :  -105.6657584 Eh     change       -0.5353148E-05 Eh
 * total energy  :  -105.6657654 Eh     change       -0.7081868E-05 Eh
 * total energy  :  -105.6657734 Eh     change       -0.7930238E-05 Eh
 * total energy  :  -105.6657788 Eh     change       -0.5398500E-05 Eh
 * total energy  :  -105.6658073 Eh     change       -0.2750380E-06 Eh
 * total energy  :  -105.6658077 Eh     change       -0.3254799E-06 Eh
 * total energy  :  -105.6658080 Eh     change       -0.3565374E-06 Eh
 * total energy  :  -105.6658084 Eh     change       -0.3511711E-06 Eh
 * total energy  :  -105.6658087 Eh     change       -0.2746747E-06 Eh
 * total energy  :  -105.6658089 Eh     change       -0.2277256E-06 Eh
 * total energy  :  -105.6658091 Eh     change       -0.2155764E-06 Eh
 * total energy  :  -105.6658092 Eh     change       -0.1431366E-06 Eh
 * total energy  :  -105.6658093 Eh     change       -0.8138223E-07 Eh
   *** GEOMETRY OPTIMIZATION CONVERGED AFTER 38 ITERATIONS ***

 final structure:
================
73
 xtb: 6.7.1 (edcfbbe)
C            1.24514749911807       -2.47616223984866       -2.31693059433583
C           -0.14242452784829       -1.87575271791554       -2.51234355557068
C           -1.17249693374371       -2.50361298026915       -1.57422021231286
C           -2.56874343138813       -1.92882528624879       -1.81390210173706
C           -3.63763901227589       -2.35519536824451       -0.79467942306811
C           -3.68420599385559       -3.87750414178698       -0.61200583452044
C           -5.00235459179822       -4.37561436421177       -0.02659244637814
C           -3.44599296964780       -1.63995257870564        0.55620884750061
N           -3.74737016271365       -0.23408844281805        0.47509959224009
C           -5.01436994834810        0.28727172659428        0.42592010899407
C           -6.23442237036792       -0.35770240731499        0.51510583281621
C           -7.38944058613313        0.42637256181511        0.44724426555312
C           -8.64802525209735       -0.19561293842905        0.53224010053669
N           -9.67671676555147       -0.70627614787836        0.60172928252719
C           -7.32336218082520        1.82489368262521        0.29372793335732
C           -6.10914281561506        2.46268057288094        0.20792322074865
C           -4.93971028311017        1.70244086977918        0.27293224709586
C           -3.55832099479556        2.02701260571154        0.22004758854415
C           -2.85841626676350        3.23151087332718        0.07321219993264
C           -1.49118565037703        3.20857286562601        0.05174786564291
C           -0.77571679738898        1.98964590418095        0.18848098654664
C            0.60828692344144        1.99443550913021        0.16236918140313
C            1.83480034416425        1.98100783057834        0.13153125930944
C            3.20470452871499        1.98595536942513        0.08648274955945
C            3.90160920467816        3.19004672235073       -0.20054542604947
C            5.25641803857497        3.22332442012547       -0.26878079673701
C            6.04240248161468        2.04575898978220       -0.04630912935541
C            7.43586437870557        2.06560053517873       -0.11285807920845
C            8.17837575311670        0.92140153722193        0.11148939173005
C            7.55108254190520       -0.29916706708278        0.41573077973369
C            8.28533197611954       -1.48310230280036        0.65542988434669
C            7.63791058096076       -2.66926105176614        0.95425432219725
C            6.26183485175133       -2.72422876406856        1.02580250194582
C            5.47862010418743       -1.56514980124254        0.79425249429952
C            4.07805610792651       -1.58298340369132        0.86337411299417
C            3.34064469698251       -0.43573304656102        0.63365665507260
C            3.96402221595516        0.77411134542176        0.32584998127198
C            5.37612842557091        0.82713066111955        0.25347740114945
C            6.13386083838416       -0.34452888189203        0.48699294229902
C           -1.46900917522555        0.77167952175886        0.34454960075607
C           -2.84590633946889        0.79874195058485        0.34740425469655
H            1.23351758493824       -3.54371415882944       -2.52816898565810
H            1.96484969813874       -2.00236369921942       -2.98091844571837
H            1.58394486204499       -2.33308264139795       -1.29337293022584
H           -0.45943381682818       -2.02588452132547       -3.54729650405897
H           -0.09828723972202       -0.79819914070924       -2.33523367712075
H           -1.18548282090531       -3.58283571167477       -1.73485069464610
H           -0.85969784387041       -2.33011216005747       -0.54318425263559
H           -2.90044063830634       -2.23489194563845       -2.80926027647830
H           -2.50769549636970       -0.83750575182476       -1.81880916410157
H           -4.60644941281324       -2.03373215913081       -1.19580756440094
H           -3.54688295326970       -4.34412152505079       -1.58940909216049
H           -2.86058797415682       -4.19518442799720        0.02961864029440
H           -5.16223104506253       -3.99996245821969        0.98158644533406
H           -5.84002201556784       -4.06335550447110       -0.64779002756085
H           -5.00276119486692       -5.46241977000769        0.02069720541517
H           -4.10730357182977       -2.08569063339809        1.30418867487705
H           -2.41939076096905       -1.75600849477355        0.90457755443605
H           -6.31666211960635       -1.42686651660749        0.63332986892367
H           -8.24541600203281        2.38573677865130        0.24602460135309
H           -6.05814904291813        3.53455556340848        0.09246041100095
H           -3.39841792154994        4.16141407377978       -0.02414690884944
H           -0.92699848783686        4.12201744298578       -0.06519187101864
H            3.31831584868589        4.08405891991806       -0.37128213295214
H            5.77297481894604        4.14528061992012       -0.49371777568083
H            7.93684260085978        2.99563159110050       -0.34244377598238
H            9.25687094831149        0.95600668169177        0.05622724542215
H            9.36347565337247       -1.44790628279965        0.60153145951234
H            8.21946695403236       -3.56246602755252        1.13422496830117
H            5.76076800286241       -3.65196233935793        1.25976344299673
H            3.57684204877284       -2.51029733793392        1.10088304204845
H            2.26247848148275       -0.46237731398248        0.69389293548360
H           -0.90789816049204       -0.14332919891502        0.44321997785880

          :  Hamiltonian                  GFN2-xTB          :
         :: gradient norm              0.000045434446 Eh/a0 ::
         :: HOMO-LUMO gap              0.632160310654 eV    ::
         :: SCC energy              -107.657258371941 Eh    ::
         :: -> dispersion             -0.092433211210 Eh    ::
         :: -> Gsolv                  -0.046916334513 Eh    ::
         :: repulsion energy           1.991449049454 Eh    ::

    * Orbital Energies and Occupations

         #    Occupation            Energy/Eh            Energy/eV
      -------------------------------------------------------------
         1        2.0000           -0.6844888             -18.6259
       ...           ...                  ...                  ...
        88        2.0000           -0.4206002             -11.4451
        89        2.0000           -0.4190984             -11.4042
        90        2.0000           -0.4159914             -11.3197
        91        2.0000           -0.4139630             -11.2645
        92        2.0000           -0.4108244             -11.1791
        93        2.0000           -0.4105726             -11.1722
        94        2.0000           -0.4058571             -11.0439
        95        2.0000           -0.3997036             -10.8765
        96        2.0000           -0.3977087             -10.8222
        97        2.0000           -0.3832656             -10.4292
        98        1.9999           -0.3722044             -10.1282
        99        1.0001           -0.3552397              -9.6666
       100        1.0000           -0.2954965              -8.0409 (HOMO)
       101        0.0000           -0.2722652              -7.4087 (LUMO)
       102                         -0.2452526              -6.6737
       103                         -0.2341812              -6.3724
       104                         -0.2296911              -6.2502
       105                         -0.2281523              -6.2083
       106                         -0.2131357              -5.7997
       107                         -0.2055435              -5.5931
       108                         -0.2001328              -5.4459
       109                         -0.1844048              -5.0179
       110                         -0.1714609              -4.6657
       111                         -0.1563862              -4.2555
       ...                                ...                  ...
       196                          1.3882377              37.7759
      -------------------------------------------------------------
                  HL-Gap            0.0232313 Eh            0.6322 eV

     #   Z          covCN         q      C6AA      α(0)
     1   6 C        3.752    -0.101    22.489     6.763
     2   6 C        3.801    -0.052    21.504     6.602
     3   6 C        3.802    -0.058    21.615     6.619
     4   6 C        3.803    -0.062    21.686     6.630
     5   6 C        3.850    -0.023    20.952     6.511
     6   6 C        3.802    -0.060    21.654     6.625
     7   6 C        3.751    -0.102    22.505     6.765
     8   6 C        3.742    -0.006    20.767     6.502
     9   7 N        2.792    -0.042    22.052     6.974
    10   6 C        3.084     0.050    26.781     8.483
    11   6 C        2.918    -0.047    29.163     8.856
    12   6 C        2.976     0.004    27.924     8.668
    13   6 C        1.915     0.115    28.269     8.587
    14   7 N        0.911    -0.298    27.667     7.607
    15   6 C        2.926    -0.034    28.848     8.808
    16   6 C        2.909    -0.033    28.831     8.805
    17   6 C        3.066    -0.013    28.272     8.719
    18   6 C        3.069    -0.019    28.399     8.738
    19   6 C        2.907    -0.032    28.793     8.799
    20   6 C        2.925    -0.039    28.971     8.827
    21   6 C        2.970     0.033    27.262     8.564
    22   6 C        1.987    -0.036    32.014     9.137
    23   6 C        1.983    -0.034    31.952     9.128
    24   6 C        2.964     0.025    27.432     8.591
    25   6 C        2.916    -0.029    28.726     8.789
    26   6 C        2.912    -0.036    28.899     8.815
    27   6 C        2.978     0.010    27.779     8.645
    28   6 C        2.915    -0.037    28.916     8.818
    29   6 C        2.916    -0.038    28.944     8.822
    30   6 C        2.978     0.012    27.752     8.641
    31   6 C        2.918    -0.038    28.935     8.821
    32   6 C        2.908    -0.029    28.722     8.788
    33   6 C        2.917    -0.038    28.936     8.821
    34   6 C        2.978     0.012    27.749     8.641
    35   6 C        2.916    -0.038    28.944     8.822
    36   6 C        2.915    -0.035    28.870     8.811
    37   6 C        2.981     0.010    27.794     8.648
    38   6 C        2.992     0.003    27.943     8.671
    39   6 C        2.997     0.002    27.980     8.677
    40   6 C        2.918    -0.052    29.288     8.875
    41   6 C        3.075     0.050    26.790     8.486
    42   1 H        0.925     0.034     2.534     2.489
    43   1 H        0.925     0.031     2.573     2.508
    44   1 H        0.925     0.034     2.524     2.484
    45   1 H        0.924     0.027     2.624     2.533
    46   1 H        0.924     0.028     2.620     2.531
    47   1 H        0.924     0.035     2.510     2.478
    48   1 H        0.924     0.030     2.591     2.517
    49   1 H        0.924     0.032     2.557     2.500
    50   1 H        0.924     0.033     2.544     2.494
    51   1 H        0.924     0.036     2.497     2.471
    52   1 H        0.924     0.042     2.419     2.432
    53   1 H        0.924     0.039     2.459     2.452
    54   1 H        0.925     0.031     2.575     2.509
    55   1 H        0.925     0.033     2.540     2.492
    56   1 H        0.925     0.038     2.475     2.460
    57   1 H        0.924     0.053     2.278     2.360
    58   1 H        0.924     0.059     2.211     2.325
    59   1 H        0.926     0.038     2.471     2.458
    60   1 H        0.926     0.030     2.586     2.515
    61   1 H        0.926     0.038     2.472     2.459
    62   1 H        0.926     0.033     2.541     2.493
    63   1 H        0.926     0.032     2.551     2.498
    64   1 H        0.926     0.033     2.546     2.495
    65   1 H        0.926     0.033     2.540     2.492
    66   1 H        0.926     0.034     2.534     2.489
    67   1 H        0.926     0.034     2.533     2.489
    68   1 H        0.926     0.034     2.533     2.489
    69   1 H        0.926     0.033     2.545     2.495
    70   1 H        0.926     0.035     2.522     2.483
    71   1 H        0.926     0.034     2.526     2.485
    72   1 H        0.926     0.035     2.514     2.479
    73   1 H        0.926     0.039     2.465     2.455

molecular dipole:
                 x           y           z       tot (Debye)
 q only:        2.876      -0.338      -0.141
   full:        3.199      -0.145      -0.158       8.149

 projected vibrational frequencies (cm⁻¹)
eigval :       -0.00    -0.00    -0.00     0.00     0.00     0.00
eigval :        5.51    11.81    17.37    20.97    28.84    36.25
eigval :       47.04    54.86    63.40    68.30    80.60    97.29
eigval :       98.92   107.99   116.36   121.98   142.60   153.90
eigval :      155.01   160.16   177.48   193.06   197.01   203.57
eigval :      228.78   234.89   238.03   245.76   264.25   290.10
eigval :      298.36   308.13   313.22   324.07   354.26   359.29
eigval :      369.50   387.23   391.77   399.85   410.45   417.52
eigval :      428.10   429.18   433.68   445.56   450.76   455.35
eigval :      467.50   473.12   494.85   502.85   515.62   535.72
eigval :      552.97   559.12   570.84   577.83   579.44   582.57
eigval :      600.25   621.50   623.47   652.44   664.67   669.15
eigval :      677.10   683.56   702.14   722.32   736.89   747.38
eigval :      750.72   752.79   769.26   781.14   799.24   800.09
eigval :      808.30   808.76   815.15   821.38   822.10   824.01
eigval :      846.95   847.83   856.54   866.68   887.71   888.29
eigval :      901.10   904.02   906.85   914.99   917.81   929.72
eigval :      937.92   947.54   972.26   985.14   992.79  1000.47
eigval :     1030.94  1042.91  1062.61  1074.42  1085.12  1090.66
eigval :     1111.06  1118.53  1122.02  1130.58  1132.70  1145.40
eigval :     1149.52  1160.87  1162.25  1165.80  1167.29  1179.94
eigval :     1192.18  1198.53  1207.30  1211.74  1225.55  1228.41
eigval :     1229.83  1235.33  1245.57  1249.64  1262.15  1277.77
eigval :     1283.40  1284.37  1290.61  1296.00  1304.03  1309.63
eigval :     1328.90  1330.56  1336.05  1344.38  1346.92  1349.49
eigval :     1352.15  1356.96  1360.45  1363.83  1377.29  1381.26
eigval :     1388.30  1396.81  1413.37  1413.93  1415.10  1431.45
eigval :     1448.65  1453.25  1461.11  1467.59  1482.79  1489.68
eigval :     1493.48  1494.05  1497.70  1500.89  1502.00  1504.00
eigval :     1504.25  1504.50  1508.16  1509.27  1511.29  1519.94
eigval :     1529.35  1546.62  1560.46  1573.14  1582.84  2151.74
eigval :     2331.53  2920.16  2956.31  2958.04  2960.45  2972.97
eigval :     2974.73  2976.09  2979.05  2987.83  2992.55  3002.51
eigval :     3021.89  3024.48  3026.07  3029.39  3037.13  3037.54
eigval :     3066.41  3067.07  3068.86  3073.16  3078.18  3079.36
eigval :     3079.74  3080.84  3081.40  3085.33  3087.62  3091.26
eigval :     3094.09  3099.52  3105.87

   temp. (K)  partition function   enthalpy   heat capacity  entropy
                                   cal/mol     cal/K/mol   cal/K/mol   J/K/mol
 298.15  VIB  0.557E+17            20942.483    129.455    131.503
         ROT  0.618E+08              888.752      2.981     38.630
         INT  0.344E+25            21831.235    132.436    170.132
         TR   0.118E+29             1481.254      4.968     44.661
         TOT                       23312.4891   137.4038   214.7938   898.6974

       T/K    H(0)-H(T)+PV         H(T)/Eh          T*S/Eh         G(T)/Eh
   ------------------------------------------------------------------------
    298.15    0.371508E-01    0.618050E+00    0.102055E+00    0.515995E+00
   ------------------------------------------------------------------------

         :::::::::::::::::::::::::::::::::::::::::::::::::::::
         ::                  THERMODYNAMIC                  ::
         :::::::::::::::::::::::::::::::::::::::::::::::::::::
         :: total free energy        -105.149814698715 Eh   ::
         ::.................................................::
         :: total energy             -105.665809324975 Eh   ::
         :: zero point energy           0.580899294379 Eh   ::
         :: G(RRHO) w/o ZPVE           -0.064904668118 Eh   ::
         :: G(RRHO) contrib.            0.515994626261 Eh   ::
         :::::::::::::::::::::::::::::::::::::::::::::::::::::

           -------------------------------------------------
          | TOTAL ENERGY             -105.665809324975 Eh   |
          | TOTAL ENTHALPY           -105.047759214514 Eh   |
          | TOTAL FREE ENERGY        -105.149814698715 Eh   |
          | GRADIENT NORM               0.000045419524 Eh/α |
          | HOMO-LUMO GAP               0.632155939558 eV   |
           -------------------------------------------------

 * finished run on 2025/08/21 at 16:59:47.573
