   * xtb version 6.7.1 (edcfbbe) compiled by 'albert@albert-system' on 2024-07-22

   ID    Z sym.   atoms
    1    8 O      1, 3
    2   16 S      2
    3    6 C      4-12, 14-41
    4    7 N      13
    5    1 H      42-64

          program call               : xtb data2507/toluene/DBT-SADF/DBT-SADF_toluene_S0_finalOpt.xtbopt.xyz --gfn 2 --uhf 2 --gbsa toluene --ohess vtight --parallel 40 --molden --ceasefiles --namespace data2507/toluene/DBT-SADF/DBT-SADF_toluene_T1_preOpt
      * Solvation model:               GBSA
        Solvent                        toluene
        Solvent mass                       9.2140E+01 g/mol
          :  Hamiltonian                  GFN2-xTB          :
 * total energy  :  -105.2292530 Eh     change       -0.2775622E-08 Eh
 * total energy  :  -105.2345498 Eh     change       -0.5296806E-02 Eh
 * total energy  :  -105.2367445 Eh     change       -0.2194641E-02 Eh
 * total energy  :  -105.2368974 Eh     change       -0.1529203E-03 Eh
 * total energy  :  -105.2369905 Eh     change       -0.9306891E-04 Eh
 * total energy  :  -105.2370111 Eh     change       -0.2065543E-04 Eh
 * total energy  :  -105.2370358 Eh     change       -0.2464045E-04 Eh
 * total energy  :  -105.2370514 Eh     change       -0.1563112E-04 Eh
 * total energy  :  -105.2370610 Eh     change       -0.9628522E-05 Eh
 * total energy  :  -105.2370774 Eh     change       -0.1633520E-04 Eh
 * total energy  :  -105.2371293 Eh     change       -0.5377585E-06 Eh
 * total energy  :  -105.2371296 Eh     change       -0.3027043E-06 Eh
 * total energy  :  -105.2371297 Eh     change       -0.1617439E-06 Eh
 * total energy  :  -105.2371300 Eh     change       -0.2074942E-06 Eh
 * total energy  :  -105.2371301 Eh     change       -0.1422327E-06 Eh
 * total energy  :  -105.2371303 Eh     change       -0.1683715E-06 Eh
 * total energy  :  -105.2371304 Eh     change       -0.1501494E-06 Eh
 * total energy  :  -105.2371306 Eh     change       -0.1610778E-06 Eh
 * total energy  :  -105.2371307 Eh     change       -0.8728875E-07 Eh
   *** GEOMETRY OPTIMIZATION CONVERGED AFTER 41 ITERATIONS ***

 final structure:
================
64
 xtb: 6.7.1 (edcfbbe)
O            6.23765394927464        1.64138428735474        1.41966993499444
S            5.72162824285618        1.20658140084277        0.12676413630840
O            6.22006110282160        1.98296853913674       -1.00261742548172
C            5.91976913499324       -0.53786272644799       -0.11997605277958
C            7.08432360584924       -1.25239817826266       -0.21084291607537
C            7.01976719300982       -2.62850283281091       -0.40491083368707
C            5.76705822235476       -3.25986858116324       -0.49883558324946
C            4.59871343276422       -2.55230100295335       -0.40735188114404
C            4.63301544664678       -1.14895348121433       -0.20696882597857
C            3.55617426809290       -0.25581004476272       -0.06471054015274
C            2.17349904343212       -0.52677614981965       -0.11250928003383
C            1.26804714784878        0.49608364564451        0.00593552679865
N           -0.12668057551594        0.24448478247778       -0.01926162588457
C           -0.86032549275893        0.78965455388093       -1.05087974156694
C           -0.20476514699700        1.42494608622674       -2.12124208050641
C           -0.92634480277074        2.00301143309760       -3.14050758891270
C           -2.31566481759363        1.94641674865950       -3.13573123203842
C           -2.96884518836499        1.28100425043978       -2.11478071578319
C           -2.26285829517689        0.69214524037275       -1.07544035355758
C           -3.01301615324217       -0.04927069385259       -0.00867437545115
C           -4.00985363652243        0.87306678234774        0.68641348280380
C           -3.74283493300926        1.99790721475334        1.43385260328924
C           -4.81357672295074        2.69646516144806        1.97847259532600
C           -6.11711390563499        2.27018317502906        1.77376774379164
C           -6.38644503918977        1.13636241556800        1.02314240149317
C           -5.32401676629895        0.43408352834262        0.47748022334428
C           -5.28880972504796       -0.77014747906663       -0.33897910408822
C           -6.30734927459317       -1.57892552320586       -0.81667258816535
C           -5.97265918018067       -2.68259219878021       -1.58581303242926
C           -4.64820375225626       -2.97513405076121       -1.87428740050478
C           -3.62119036259847       -2.16863112739260       -1.39895289130246
C           -3.95258414557221       -1.07297925302443       -0.63382434651568
C           -2.11169557847784       -0.68769289498256        1.00723323302710
C           -2.67943346517871       -1.44960055312655        2.01966779428427
C           -1.90351631096530       -2.00400236019896        3.01910249708832
C           -0.53204624439570       -1.77192178173322        3.02946145668260
C            0.05315474430546       -1.02398398138755        2.03430674358000
C           -0.71860746489788       -0.49037918216630        0.98791190328619
C            1.68470007780567        1.85338666889276        0.18820044737736
C            3.04216037994525        2.13503459521573        0.25644159347724
C            3.95179139993387        1.12120028132825        0.12721863084463
H            8.03294935214195       -0.74018150748825       -0.13481692316272
H            7.92555284270952       -3.20824063863711       -0.48374396668595
H            5.73560796255959       -4.32969776002785       -0.64759913906935
H            3.64719600578442       -3.05602982894459       -0.48056946261560
H            1.83016115225168       -1.53958916152960       -0.25796215656110
H            0.87260696899549        1.44823783688389       -2.14621561798635
H           -0.40531954977005        2.49006711862587       -3.95021320754050
H           -2.88137971036471        2.40031671224117       -3.93419617094659
H           -4.04580095003998        1.20912102807641       -2.11879623920800
H           -2.72911604181417        2.33325077324063        1.59685057697662
H           -4.62620938783453        3.58188522053223        2.56769510048257
H           -6.93335180737906        2.82992444499081        2.20659970636292
H           -7.40300852805978        0.80813529297907        0.86760687497504
H           -7.33982431404705       -1.35508177489779       -0.59479610843840
H           -6.75405008711730       -3.32401978151330       -1.96646455337729
H           -4.41024454183388       -3.84004232982218       -2.47560718804308
H           -2.59103951148151       -2.39920956268296       -1.62695885453962
H           -3.74850162646437       -1.59910569589062        2.01949784399892
H           -2.36135902639823       -2.59783068498325        3.79450026929310
H            0.08102932253174       -2.17402293019753        3.82112520531075
H            1.11414860140477       -0.83598340801341        2.06090768048743
H            0.94523970859623        2.62476670604881        0.32153362057730
H            3.38800012131558        3.14808905793754        0.40014950889849

          :  Hamiltonian                  GFN2-xTB          :
         :: gradient norm              0.000053350781 Eh/a0 ::
         :: HOMO-LUMO gap              0.332047529733 eV    ::
         :: SCC energy              -107.073694991726 Eh    ::
         :: -> dispersion             -0.099038307502 Eh    ::
         :: -> Gsolv                  -0.062489120713 Eh    ::
         :: repulsion energy           1.836564332283 Eh    ::

    * Orbital Energies and Occupations

         #    Occupation            Energy/Eh            Energy/eV
      -------------------------------------------------------------
         1        2.0000           -0.7547020             -20.5365
       ...           ...                  ...                  ...
        86        2.0000           -0.4256184             -11.5817
        87        2.0000           -0.4245055             -11.5514
        88        2.0000           -0.4220079             -11.4834
        89        2.0000           -0.4194651             -11.4142
        90        2.0000           -0.4140524             -11.2669
        91        2.0000           -0.4122158             -11.2170
        92        2.0000           -0.4093875             -11.1400
        93        2.0000           -0.4078768             -11.0989
        94        2.0000           -0.3906282             -10.6295
        95        2.0000           -0.3888644             -10.5815
        96        1.9743           -0.3811726             -10.3722
        97        1.0257           -0.3742666             -10.1843
        98        0.9984           -0.2747245              -7.4756 (HOMO)
        99        0.0016           -0.2625225              -7.1436 (LUMO)
       100        0.0000           -0.2584443              -7.0326
       101                         -0.2471725              -6.7259
       102                         -0.2459739              -6.6933
       103                         -0.2423156              -6.5937
       104                         -0.2359672              -6.4210
       105                         -0.2287516              -6.2246
       106                         -0.2274825              -6.1901
       107                         -0.2186247              -5.9491
       108                         -0.1992902              -5.4230
       109                         -0.1965526              -5.3485
       ...                                ...                  ...
       192                          1.1554316              31.4409
      -------------------------------------------------------------
                  HL-Gap            0.0122020 Eh            0.3320 eV

     #   Z          covCN         q      C6AA      α(0)
     1   8 O        0.860    -0.600    26.107     6.851
     2  16 S        3.936     0.896   109.674    17.626
     3   8 O        0.860    -0.600    26.111     6.851
     4   6 C        2.988    -0.094    30.352     9.037
     5   6 C        2.924    -0.023    28.576     8.766
     6   6 C        2.920    -0.047    29.177     8.858
     7   6 C        2.913    -0.034    28.843     8.807
     8   6 C        2.912    -0.040    28.983     8.828
     9   6 C        3.103    -0.017    28.297     8.717
    10   6 C        3.102    -0.026    28.507     8.749
    11   6 C        2.911    -0.047    29.170     8.856
    12   6 C        2.924     0.043    27.047     8.529
    13   7 N        2.754     0.020    20.901     6.790
    14   6 C        2.931     0.061    26.625     8.462
    15   6 C        2.921    -0.040    28.993     8.830
    16   6 C        2.917    -0.022    28.557     8.763
    17   6 C        2.917    -0.021    28.522     8.758
    18   6 C        2.922    -0.028    28.708     8.787
    19   6 C        2.981     0.012    27.747     8.641
    20   6 C        3.948     0.014    20.276     6.398
    21   6 C        3.056     0.005    27.862     8.656
    22   6 C        2.913    -0.032    28.799     8.800
    23   6 C        2.923    -0.029    28.735     8.791
    24   6 C        2.921    -0.029    28.736     8.791
    25   6 C        2.915    -0.032    28.788     8.798
    26   6 C        3.031     0.005    27.881     8.661
    27   6 C        3.032     0.005    27.886     8.662
    28   6 C        2.915    -0.032    28.792     8.799
    29   6 C        2.921    -0.029    28.735     8.791
    30   6 C        2.923    -0.029    28.730     8.790
    31   6 C        2.913    -0.032    28.791     8.799
    32   6 C        3.055     0.005    27.869     8.658
    33   6 C        2.982     0.011    27.754     8.642
    34   6 C        2.923    -0.028    28.700     8.785
    35   6 C        2.917    -0.021    28.537     8.760
    36   6 C        2.917    -0.022    28.547     8.762
    37   6 C        2.920    -0.042    29.035     8.836
    38   6 C        2.925     0.060    26.645     8.465
    39   6 C        2.919    -0.062    29.549     8.914
    40   6 C        2.920    -0.020    28.506     8.755
    41   6 C        2.982    -0.095    30.389     9.043
    42   1 H        0.926     0.022     2.705     2.572
    43   1 H        0.926     0.035     2.511     2.478
    44   1 H        0.926     0.041     2.434     2.440
    45   1 H        0.926     0.044     2.397     2.421
    46   1 H        0.926     0.055     2.263     2.353
    47   1 H        0.926     0.058     2.226     2.333
    48   1 H        0.926     0.055     2.253     2.347
    49   1 H        0.926     0.058     2.228     2.334
    50   1 H        0.926     0.055     2.260     2.351
    51   1 H        0.926     0.032     2.563     2.504
    52   1 H        0.926     0.039     2.469     2.457
    53   1 H        0.926     0.039     2.458     2.452
    54   1 H        0.926     0.042     2.418     2.432
    55   1 H        0.926     0.042     2.426     2.436
    56   1 H        0.926     0.039     2.459     2.452
    57   1 H        0.926     0.039     2.458     2.452
    58   1 H        0.926     0.034     2.534     2.489
    59   1 H        0.926     0.055     2.262     2.352
    60   1 H        0.926     0.057     2.231     2.336
    61   1 H        0.926     0.056     2.248     2.344
    62   1 H        0.926     0.057     2.232     2.336
    63   1 H        0.926     0.047     2.354     2.400
    64   1 H        0.926     0.035     2.513     2.479

molecular dipole:
                 x           y           z       tot (Debye)
 q only:       -8.411      -2.184      -0.304
   full:       -7.996      -1.938      -0.250      20.922

 projected vibrational frequencies (cm⁻¹)
eigval :       -0.00     0.00     0.00     0.00     0.00     0.00
eigval :        7.20    20.75    25.96    37.88    45.08    47.32
eigval :       68.41    73.26    82.79    99.10   103.16   114.58
eigval :      116.81   129.88   139.50   152.54   167.02   200.03
eigval :      228.57   231.76   237.66   243.18   246.73   274.41
eigval :      286.88   290.77   337.13   352.61   356.40   364.60
eigval :      385.70   387.98   396.33   403.65   409.21   410.71
eigval :      417.88   429.12   445.73   456.10   459.47   469.62
eigval :      489.78   497.01   501.53   507.38   524.57   528.09
eigval :      535.80   548.31   578.98   585.85   592.31   596.55
eigval :      598.38   612.71   631.80   649.51   650.83   675.42
eigval :      680.76   687.37   687.50   696.53   712.18   715.28
eigval :      727.99   730.53   751.75   768.83   771.01   775.68
eigval :      777.58   785.98   819.70   837.54   868.07   875.56
eigval :      875.99   879.14   881.54   888.16   890.32   894.28
eigval :      900.79   910.24   911.54   915.94   916.79   917.75
eigval :      923.53   927.51   928.68   929.07   930.45   940.84
eigval :      976.73   993.29   997.60  1029.07  1045.14  1060.63
eigval :     1072.13  1077.50  1080.59  1097.63  1098.21  1122.96
eigval :     1126.64  1136.49  1140.14  1141.02  1147.75  1160.79
eigval :     1169.83  1172.43  1173.57  1178.29  1180.80  1184.22
eigval :     1192.57  1194.29  1217.64  1224.09  1230.31  1235.23
eigval :     1248.81  1252.79  1272.85  1273.63  1280.80  1284.68
eigval :     1297.85  1321.21  1326.87  1331.85  1333.27  1338.62
eigval :     1348.32  1364.24  1367.82  1387.97  1402.83  1420.42
eigval :     1425.38  1426.15  1443.55  1453.81  1455.37  1464.15
eigval :     1467.46  1481.80  1489.13  1524.79  1535.01  1545.66
eigval :     1560.30  1566.80  1580.36  1582.22  1591.29  1595.03
eigval :     1597.31  3069.71  3072.06  3075.41  3075.72  3078.15
eigval :     3079.31  3079.73  3086.69  3086.87  3088.14  3091.85
eigval :     3092.06  3092.94  3093.73  3095.49  3096.49  3097.76
eigval :     3098.96  3106.10  3106.57  3112.75  3115.24  3116.31

   temp. (K)  partition function   enthalpy   heat capacity  entropy
                                   cal/mol     cal/K/mol   cal/K/mol   J/K/mol
 298.15  VIB  0.211E+14            18312.611    120.094    112.016
         ROT  0.456E+08              888.752      2.981     38.026
         INT  0.960E+21            19201.363    123.075    150.042
         TR   0.123E+29             1481.254      4.968     44.756
         TOT                       20682.6169   128.0432   194.7972   815.0313

       T/K    H(0)-H(T)+PV         H(T)/Eh          T*S/Eh         G(T)/Eh
   ------------------------------------------------------------------------
    298.15    0.329598E-01    0.507039E+00    0.925544E-01    0.414485E+00
   ------------------------------------------------------------------------

         :::::::::::::::::::::::::::::::::::::::::::::::::::::
         ::                  THERMODYNAMIC                  ::
         :::::::::::::::::::::::::::::::::::::::::::::::::::::
         :: total free energy        -104.822645909838 Eh   ::
         ::.................................................::
         :: total energy             -105.237130659364 Eh   ::
         :: zero point energy           0.474079314831 Eh   ::
         :: G(RRHO) w/o ZPVE           -0.059594565306 Eh   ::
         :: G(RRHO) contrib.            0.414484749526 Eh   ::
         :::::::::::::::::::::::::::::::::::::::::::::::::::::

           -------------------------------------------------
          | TOTAL ENERGY             -105.237130659364 Eh   |
          | TOTAL ENTHALPY           -104.730091496556 Eh   |
          | TOTAL FREE ENERGY        -104.822645909838 Eh   |
          | GRADIENT NORM               0.000054294509 Eh/α |
          | HOMO-LUMO GAP               0.332032985800 eV   |
           -------------------------------------------------

 * finished run on 2025/09/10 at 03:07:03.462
