   * xtb version 6.7.1 (edcfbbe) compiled by 'albert@albert-system' on 2024-07-22

   ID    Z sym.   atoms
    1    8 O      1, 3
    2   16 S      2
    3    6 C      4-12, 14-41
    4    7 N      13
    5    1 H      42-64

          program call               : xtb data2507/toluene/DBT-SADF/DBT-SADF_toluene_T1_crest.xyz --gfn 2 --uhf 2 --gbsa toluene --ohess vtight --parallel 40 --molden --ceasefiles --namespace data2507/toluene/DBT-SADF/DBT-SADF_toluene_T1_finalOpt
      * Solvation model:               GBSA
        Solvent                        toluene
        Solvent mass                       9.2140E+01 g/mol
          :  Hamiltonian                  GFN2-xTB          :
 * total energy  :  -105.2367454 Eh     change       -0.1055199E-08 Eh
 * total energy  :  -105.2369742 Eh     change       -0.2287969E-03 Eh
 * total energy  :  -105.2371050 Eh     change       -0.1307890E-03 Eh
 * total energy  :  -105.2371226 Eh     change       -0.1755901E-04 Eh
 * total energy  :  -105.2371333 Eh     change       -0.1077763E-04 Eh
 * total energy  :  -105.2371364 Eh     change       -0.3108737E-05 Eh
 * total energy  :  -105.2371376 Eh     change       -0.1194956E-05 Eh
 * total energy  :  -105.2371374 Eh     change        0.2253900E-06 Eh
 * total energy  :  -105.2371382 Eh     change       -0.7648409E-06 Eh
 * total energy  :  -105.2371388 Eh     change       -0.6465840E-06 Eh
 * total energy  :  -105.2371424 Eh     change       -0.6661165E-06 Eh
 * total energy  :  -105.2371427 Eh     change       -0.3480326E-06 Eh
 * total energy  :  -105.2371430 Eh     change       -0.2881755E-06 Eh
 * total energy  :  -105.2371433 Eh     change       -0.2841263E-06 Eh
 * total energy  :  -105.2371435 Eh     change       -0.2097559E-06 Eh
 * total energy  :  -105.2371437 Eh     change       -0.1803111E-06 Eh
 * total energy  :  -105.2371439 Eh     change       -0.1615392E-06 Eh
 * total energy  :  -105.2371442 Eh     change       -0.3432670E-06 Eh
 * total energy  :  -105.2371442 Eh     change       -0.7212762E-08 Eh
   *** GEOMETRY OPTIMIZATION CONVERGED AFTER 22 ITERATIONS ***

 final structure:
================
64
 xtb: 6.7.1 (edcfbbe)
O            6.21193116560531       -1.57207403522455       -1.57103774839923
S            5.71383173140398       -1.21959866926119       -0.24632266002628
O            6.21937225481136       -2.07144185750943        0.82382165314157
C            5.92747375310867        0.50459065767221        0.10706608443912
C            7.09790966124882        1.20394326116397        0.23392224234840
C            7.04486317156409        2.56792511641184        0.50286102384575
C            5.79755542707540        3.20369002138595        0.63261109607415
C            4.62341038234411        2.51127755628797        0.50664346066321
C            4.64592889848028        1.12030878285780        0.23203741561291
C            3.56125062877473        0.24470053029679        0.04733102438974
C            2.18111122349874        0.52308221878409        0.12040731677682
C            1.26675453519763       -0.48527854884372       -0.04520422449973
N           -0.12589225416102       -0.22608555742083        0.00540121184634
C           -0.85389406815958       -0.81975279661374        1.01409892693336
C           -0.19196891541597       -1.50578451106665        2.04858909216296
C           -0.90740691835509       -2.12865262067091        3.04550228063817
C           -2.29657423416630       -2.06896489518499        3.05353802264635
C           -2.95581489956740       -1.35663754472907        2.06873159634638
C           -2.25595102488641       -0.72112458025397        1.05300681060653
C           -3.01157805844159        0.06690597237668        0.02424169799607
C           -3.98828642479659       -0.83340021027872       -0.72708350726066
C           -3.69739253408097       -1.91141583713694       -1.53235573428155
C           -4.75249926246901       -2.59611034561886       -2.12312787860206
C           -6.06427349768369       -2.20280161863337       -1.90564162792975
C           -6.35759709304294       -1.11674429536035       -1.09572660150338
C           -5.31090898534780       -0.42800137985466       -0.50424617493964
C           -5.30129265968120        0.73051734496310        0.37659154059030
C           -6.33622783404496        1.49503895313893        0.89065994802779
C           -6.02490233695563        2.56056194747655        1.72103292133757
C           -4.70728110936097        2.85961438142243        2.03322812554810
C           -3.66387930431519        2.09771345644211        1.52135144914783
C           -3.97208244629947        1.03939597812752        0.69621973174445
C           -2.11423579407522        0.77038817114748       -0.95153256268037
C           -2.68539731821017        1.59616556167151       -1.91051784220083
C           -1.91363972019871        2.20915724648710       -2.87848905421205
C           -0.54348962389182        1.97192939842929       -2.91342542794845
C            0.04510878308685        1.16086567740026       -1.97110870157879
C           -0.72158792821482        0.56826446216266       -0.95316572098860
C            1.67161964576187       -1.83395164268260       -0.30243372827458
C            3.02632068556381       -2.12148040995364       -0.39723180913156
C            3.94474046025948       -1.12259624255046       -0.22227231259380
H            8.04233886745485        0.68951918725340        0.12693380032131
H            7.95548948508102        3.13522068368485        0.61096320060546
H            5.77498974638707        4.26434596684387        0.83783795574304
H            3.67615262585049        3.01795004742272        0.60880543492918
H            1.84704892107034        1.52902363409460        0.32374680229719
H            0.88550758739191       -1.53241709412093        2.06395464561607
H           -0.38174968059383       -2.65369913701612        3.82798175128914
H           -2.85745347603099       -2.55790516498414        3.83456090851777
H           -4.03259012864913       -1.28359071903850        2.08351497427414
H           -2.67721267468258       -2.22090395437188       -1.70585290724302
H           -4.54626652992696       -3.44425351810081       -2.75902654538396
H           -6.86806864560756       -2.75055671929154       -2.37550923462475
H           -7.38065150279950       -0.81443962362498       -0.93040859469492
H           -7.36354963045490        1.26614669047999        0.65069740506988
H           -6.81936008644084        3.16664781424196        2.13136404982031
H           -4.48768403672520        3.69358205940479        2.68317738982234
H           -2.63899336083214        2.33295744175464        1.76777562127861
H           -3.75384340115083        1.74910407909939       -1.89386051337164
H           -2.37390477611168        2.85288295327736       -3.61146125274139
H            0.06579600319070        2.41955752231212       -3.68328266393121
H            1.10503944095169        0.97068524814282       -2.01686006350407
H            0.92544424830109       -2.59212586489126       -0.46946518717363
H            3.36298782616380       -3.12788244162946       -0.59810239522678

          :  Hamiltonian                  GFN2-xTB          :
         :: gradient norm              0.000062955689 Eh/a0 ::
         :: HOMO-LUMO gap              0.330911283235 eV    ::
         :: SCC energy              -107.073653096084 Eh    ::
         :: -> dispersion             -0.099049653130 Eh    ::
         :: -> Gsolv                  -0.062504046058 Eh    ::
         :: repulsion energy           1.836508886439 Eh    ::

    * Orbital Energies and Occupations

         #    Occupation            Energy/Eh            Energy/eV
      -------------------------------------------------------------
         1        2.0000           -0.7547123             -20.5368
       ...           ...                  ...                  ...
        86        2.0000           -0.4256297             -11.5820
        87        2.0000           -0.4245159             -11.5517
        88        2.0000           -0.4220143             -11.4836
        89        2.0000           -0.4194797             -11.4146
        90        2.0000           -0.4140628             -11.2672
        91        2.0000           -0.4122223             -11.2171
        92        2.0000           -0.4093795             -11.1398
        93        2.0000           -0.4078805             -11.0990
        94        2.0000           -0.3906305             -10.6296
        95        2.0000           -0.3888846             -10.5821
        96        1.9742           -0.3811694             -10.3721
        97        1.0258           -0.3742703             -10.1844
        98        0.9983           -0.2747310              -7.4758 (HOMO)
        99        0.0016           -0.2625700              -7.1449 (LUMO)
       100        0.0000           -0.2584219              -7.0320
       101                         -0.2471483              -6.7252
       102                         -0.2459745              -6.6933
       103                         -0.2423431              -6.5945
       104                         -0.2359516              -6.4206
       105                         -0.2287599              -6.2249
       106                         -0.2274935              -6.1904
       107                         -0.2186441              -5.9496
       108                         -0.1993027              -5.4233
       109                         -0.1965593              -5.3487
       ...                                ...                  ...
       192                          1.1554184              31.4405
      -------------------------------------------------------------
                  HL-Gap            0.0121610 Eh            0.3309 eV

     #   Z          covCN         q      C6AA      α(0)
     1   8 O        0.860    -0.600    26.115     6.852
     2  16 S        3.936     0.897   109.673    17.626
     3   8 O        0.860    -0.599    26.103     6.850
     4   6 C        2.988    -0.094    30.353     9.037
     5   6 C        2.924    -0.023    28.576     8.766
     6   6 C        2.920    -0.047    29.177     8.858
     7   6 C        2.913    -0.034    28.844     8.807
     8   6 C        2.912    -0.040    28.984     8.828
     9   6 C        3.103    -0.017    28.297     8.717
    10   6 C        3.102    -0.026    28.507     8.749
    11   6 C        2.911    -0.047    29.172     8.856
    12   6 C        2.924     0.043    27.046     8.529
    13   7 N        2.754     0.020    20.902     6.790
    14   6 C        2.932     0.061    26.626     8.462
    15   6 C        2.921    -0.040    28.991     8.830
    16   6 C        2.917    -0.022    28.557     8.763
    17   6 C        2.917    -0.021    28.522     8.758
    18   6 C        2.922    -0.028    28.708     8.787
    19   6 C        2.982     0.012    27.746     8.640
    20   6 C        3.948     0.014    20.275     6.398
    21   6 C        3.056     0.005    27.859     8.656
    22   6 C        2.913    -0.032    28.801     8.800
    23   6 C        2.923    -0.029    28.735     8.791
    24   6 C        2.921    -0.029    28.736     8.791
    25   6 C        2.915    -0.032    28.787     8.798
    26   6 C        3.031     0.005    27.880     8.661
    27   6 C        3.031     0.005    27.888     8.662
    28   6 C        2.915    -0.032    28.793     8.799
    29   6 C        2.921    -0.029    28.735     8.791
    30   6 C        2.923    -0.029    28.730     8.790
    31   6 C        2.913    -0.032    28.790     8.799
    32   6 C        3.055     0.004    27.872     8.658
    33   6 C        2.982     0.011    27.755     8.642
    34   6 C        2.923    -0.028    28.700     8.785
    35   6 C        2.917    -0.021    28.537     8.760
    36   6 C        2.917    -0.022    28.547     8.762
    37   6 C        2.920    -0.042    29.035     8.836
    38   6 C        2.925     0.060    26.645     8.465
    39   6 C        2.919    -0.062    29.548     8.914
    40   6 C        2.920    -0.020    28.506     8.755
    41   6 C        2.982    -0.095    30.388     9.042
    42   1 H        0.926     0.022     2.704     2.572
    43   1 H        0.926     0.035     2.511     2.478
    44   1 H        0.926     0.041     2.434     2.440
    45   1 H        0.926     0.044     2.397     2.421
    46   1 H        0.926     0.055     2.263     2.352
    47   1 H        0.926     0.058     2.227     2.334
    48   1 H        0.926     0.055     2.253     2.347
    49   1 H        0.926     0.058     2.228     2.334
    50   1 H        0.926     0.055     2.259     2.350
    51   1 H        0.926     0.032     2.565     2.504
    52   1 H        0.926     0.038     2.469     2.457
    53   1 H        0.926     0.039     2.458     2.452
    54   1 H        0.926     0.042     2.417     2.431
    55   1 H        0.926     0.042     2.428     2.437
    56   1 H        0.926     0.039     2.459     2.452
    57   1 H        0.926     0.039     2.458     2.452
    58   1 H        0.926     0.034     2.533     2.489
    59   1 H        0.926     0.055     2.262     2.352
    60   1 H        0.926     0.057     2.231     2.336
    61   1 H        0.926     0.056     2.248     2.345
    62   1 H        0.926     0.057     2.231     2.336
    63   1 H        0.926     0.047     2.356     2.400
    64   1 H        0.926     0.035     2.513     2.479

molecular dipole:
                 x           y           z       tot (Debye)
 q only:       -8.391       2.211       0.511
   full:       -7.978       1.965       0.438      20.914

 projected vibrational frequencies (cm⁻¹)
eigval :       -0.00    -0.00     0.00     0.00     0.00     0.00
eigval :       10.90    19.11    25.81    37.82    44.88    49.85
eigval :       65.87    72.38    86.66    97.44   101.35   114.59
eigval :      115.53   130.91   138.08   151.13   167.22   200.18
eigval :      228.85   232.33   237.37   244.15   247.29   274.98
eigval :      284.38   290.93   336.97   353.14   355.77   364.65
eigval :      386.19   388.96   396.00   403.12   409.02   409.60
eigval :      418.25   429.32   446.87   455.55   460.02   466.59
eigval :      489.65   497.19   501.69   507.42   524.62   528.40
eigval :      537.50   548.31   579.43   586.18   592.69   597.46
eigval :      598.82   612.70   631.97   648.80   650.67   675.38
eigval :      680.61   687.54   688.11   696.64   711.73   714.04
eigval :      728.51   730.02   752.06   767.50   769.60   774.88
eigval :      776.29   783.51   819.33   838.20   867.25   874.60
eigval :      875.38   876.49   883.05   888.56   890.45   894.05
eigval :      898.93   907.50   912.22   914.86   916.52   917.52
eigval :      923.23   923.75   925.62   927.89   928.47   940.90
eigval :      976.61   993.27   997.68  1029.12  1045.15  1060.48
eigval :     1073.34  1076.95  1080.74  1097.17  1098.15  1122.94
eigval :     1126.70  1136.28  1140.55  1141.16  1147.81  1161.23
eigval :     1171.07  1172.06  1173.95  1177.27  1180.49  1183.45
eigval :     1192.13  1194.50  1217.88  1224.05  1230.00  1235.12
eigval :     1248.81  1254.07  1272.80  1273.44  1280.62  1284.79
eigval :     1297.60  1321.20  1326.97  1331.66  1333.30  1338.45
eigval :     1347.93  1364.36  1367.75  1387.52  1402.45  1420.06
eigval :     1426.00  1426.13  1443.42  1453.27  1455.73  1464.22
eigval :     1467.65  1481.87  1488.78  1524.88  1534.88  1545.41
eigval :     1559.63  1566.63  1580.11  1582.24  1591.34  1594.91
eigval :     1597.46  3069.97  3072.44  3075.60  3076.23  3078.48
eigval :     3078.94  3080.37  3086.82  3087.00  3088.24  3091.94
eigval :     3092.09  3092.53  3094.09  3095.71  3096.04  3097.15
eigval :     3098.98  3106.20  3106.44  3113.52  3116.11  3116.75

   temp. (K)  partition function   enthalpy   heat capacity  entropy
                                   cal/mol     cal/K/mol   cal/K/mol   J/K/mol
 298.15  VIB  0.153E+14            18316.596    120.146    111.763
         ROT  0.456E+08              888.752      2.981     38.025
         INT  0.699E+21            19205.348    123.127    149.788
         TR   0.123E+29             1481.254      4.968     44.756
         TOT                       20686.6018   128.0951   194.5434   813.9696

       T/K    H(0)-H(T)+PV         H(T)/Eh          T*S/Eh         G(T)/Eh
   ------------------------------------------------------------------------
    298.15    0.329662E-01    0.506989E+00    0.924338E-01    0.414555E+00
   ------------------------------------------------------------------------

         :::::::::::::::::::::::::::::::::::::::::::::::::::::
         ::                  THERMODYNAMIC                  ::
         :::::::::::::::::::::::::::::::::::::::::::::::::::::
         :: total free energy        -104.822589063810 Eh   ::
         ::.................................................::
         :: total energy             -105.237144211225 Eh   ::
         :: zero point energy           0.474022794860 Eh   ::
         :: G(RRHO) w/o ZPVE           -0.059467647445 Eh   ::
         :: G(RRHO) contrib.            0.414555147415 Eh   ::
         :::::::::::::::::::::::::::::::::::::::::::::::::::::

           -------------------------------------------------
          | TOTAL ENERGY             -105.237144211225 Eh   |
          | TOTAL ENTHALPY           -104.730155217951 Eh   |
          | TOTAL FREE ENERGY        -104.822589063810 Eh   |
          | GRADIENT NORM               0.000062279293 Eh/α |
          | HOMO-LUMO GAP               0.330916865154 eV   |
           -------------------------------------------------

 * finished run on 2025/09/10 at 03:11:00.121
