   * xtb version 6.7.1 (edcfbbe) compiled by 'albert@albert-system' on 2024-07-22

   ID    Z sym.   atoms
    1    8 O      1, 3
    2   16 S      2
    3    6 C      4-12, 14-41
    4    7 N      13
    5    1 H      42-64

          program call               : xtb data2507/toluene/DBT-SADF/DBT-SADF_toluene_S0_crest.xyz --gfn 2 --gbsa toluene --ohess vtight --parallel 40 --molden --ceasefiles --namespace data2507/toluene/DBT-SADF/DBT-SADF_toluene_S0_finalOpt
      * Solvation model:               GBSA
        Solvent                        toluene
        Solvent mass                       9.2140E+01 g/mol
          :  Hamiltonian                  GFN2-xTB          :
 * total energy  :  -105.3269642 Eh     change       -0.1155868E-08 Eh
 * total energy  :  -105.3270478 Eh     change       -0.8363090E-04 Eh
 * total energy  :  -105.3270930 Eh     change       -0.4519848E-04 Eh
 * total energy  :  -105.3270998 Eh     change       -0.6848710E-05 Eh
 * total energy  :  -105.3271033 Eh     change       -0.3498574E-05 Eh
 * total energy  :  -105.3271043 Eh     change       -0.9641258E-06 Eh
 * total energy  :  -105.3271047 Eh     change       -0.3755413E-06 Eh
 * total energy  :  -105.3271051 Eh     change       -0.4622796E-06 Eh
 * total energy  :  -105.3271058 Eh     change       -0.6245489E-06 Eh
 * total energy  :  -105.3271064 Eh     change       -0.6331807E-06 Eh
 * total energy  :  -105.3271082 Eh     change       -0.4643549E-06 Eh
 * total energy  :  -105.3271087 Eh     change       -0.4345560E-06 Eh
 * total energy  :  -105.3271091 Eh     change       -0.4094122E-06 Eh
 * total energy  :  -105.3271095 Eh     change       -0.3989561E-06 Eh
 * total energy  :  -105.3271099 Eh     change       -0.4489652E-06 Eh
 * total energy  :  -105.3271105 Eh     change       -0.5497471E-06 Eh
 * total energy  :  -105.3271111 Eh     change       -0.6513596E-06 Eh
 * total energy  :  -105.3271118 Eh     change       -0.7096802E-06 Eh
 * total energy  :  -105.3271119 Eh     change       -0.8115535E-08 Eh
   *** GEOMETRY OPTIMIZATION CONVERGED AFTER 22 ITERATIONS ***

 final structure:
================
64
 xtb: 6.7.1 (edcfbbe)
O            6.24426216562030        1.55229350537417        1.52113829129298
S            5.74457573405390        1.20596011208216        0.20859455981986
O            6.24950983335279        1.99620448684367       -0.89276453333763
C            5.91192938016879       -0.55018655851615       -0.11035251989765
C            7.06698358000064       -1.28559458147896       -0.22940792359706
C            6.95539284924918       -2.65113574341388       -0.46617091399499
C            5.70469581559457       -3.24054201034605       -0.57339621078630
C            4.54597814973441       -2.48858653502355       -0.45224937936950
C            4.64530083681279       -1.12165881829287       -0.21738692602368
C            3.54463000114949       -0.17025752152405       -0.05486757704118
C            2.18630844399463       -0.44923651035501       -0.12225676852496
C            1.26625637495007        0.58031309520091        0.06865507061003
N           -0.12116891788255        0.30802482831876        0.00742633233057
C           -0.86039354090345        0.82269898465477       -1.05431199445629
C           -0.21785916399894        1.47261196914578       -2.11201404361060
C           -0.93859821493329        1.99050594419598       -3.16921003238382
C           -2.31672612112023        1.86171666631272       -3.20374887717725
C           -2.95572007115087        1.19271984897839       -2.17682959447057
C           -2.24719791938240        0.66432114056502       -1.10693531989634
C           -3.00622158883981       -0.06763069815937       -0.02695545726010
C           -3.98458915001241        0.86895755116285        0.66112777915378
C           -3.70968719889571        2.00397978585762        1.39165567017226
C           -4.77057222436163        2.71692171435405        1.93509092476931
C           -6.07845558829030        2.29562905619600        1.74758247519317
C           -6.35939528518634        1.15217122304071        1.01612458874373
C           -5.30492869180700        0.43744312632306        0.47162514009538
C           -5.28386174903044       -0.77857152753576       -0.32841088162041
C           -6.31225469712626       -1.58688857727614       -0.78481629227080
C           -5.99234619605905       -2.70362590699480       -1.54127589518292
C           -4.67211875186659       -3.00773125203537       -1.83771944273810
C           -3.63719330394889       -2.20069361562433       -1.38281686945572
C           -3.95010315479208       -1.09050382705953       -0.62944113066950
C           -2.09266747786972       -0.70035586699517        0.99493265434247
C           -2.65695059411884       -1.49211666796081        1.98515390173447
C           -1.88729985911502       -2.04673710991156        2.99027483802294
C           -0.52859755815203       -1.78333439648517        3.02008446439742
C            0.05046160427512       -1.00002562384727        2.04182100029472
C           -0.71471618029275       -0.46673839358592        1.00079108479574
C            1.70091568806273        1.88166089893093        0.31723276471887
C            3.05731811225084        2.16771853176961        0.37379762805326
C            3.95286111664672        1.14013444405942        0.19007478470868
H            8.02739968127532       -0.80251574276872       -0.13931817962106
H            7.84678532272634       -3.25104508815284       -0.56366915511099
H            5.63136608541852       -4.30211735560804       -0.75471649699036
H            3.58112313361990       -2.96242552953273       -0.53672954729015
H            1.83068364226531       -1.44783246910442       -0.32136542454471
H            0.85685440258770        1.56946696014384       -2.10896985154820
H           -0.41703563353364        2.49235100595869       -3.97083660406142
H           -2.88677249638150        2.26936946800418       -4.02447542889866
H           -4.02918027077132        1.07212157664895       -2.19912119829691
H           -2.69160370521358        2.33367320177249        1.54081318757109
H           -4.57456223802624        3.61025459109036        2.51028187587061
H           -6.88848824533825        2.86625265924230        2.17889973920633
H           -7.37971211643965        0.82739174331890        0.87440844717220
H           -7.34191551397058       -1.35360239677306       -0.55675505315558
H           -6.78171573437908       -3.34575098486803       -1.90511324416578
H           -4.44610988805292       -3.88302011881143       -2.42939896100013
H           -2.60948870390761       -2.43880369263993       -1.61618520409002
H           -3.72308150904192       -1.66661640157446        1.96514119602367
H           -2.34532818867378       -2.66268569476691        3.74891718347558
H            0.08777742061964       -2.18437071000989        3.81105893948926
H            1.10740223202245       -0.79092513123079        2.09471507833136
H            0.97287662864490        2.66558488604141        0.45865593914799
H            3.41139972226767        3.16862841017684        0.56357735330002

          :  Hamiltonian                  GFN2-xTB          :
         :: gradient norm              0.000068128424 Eh/a0 ::
         :: HOMO-LUMO gap              1.750445806323 eV    ::
         :: SCC energy              -107.182390911717 Eh    ::
         :: -> dispersion             -0.099261776509 Eh    ::
         :: -> Gsolv                  -0.049829157907 Eh    ::
         :: repulsion energy           1.855279055739 Eh    ::

    * Orbital Energies and Occupations

         #    Occupation            Energy/Eh            Energy/eV
      -------------------------------------------------------------
         1        2.0000           -0.7816129             -21.2688
       ...           ...                  ...                  ...
        85        2.0000           -0.4231420             -11.5143
        86        2.0000           -0.4221670             -11.4877
        87        2.0000           -0.4208835             -11.4528
        88        2.0000           -0.4155236             -11.3070
        89        2.0000           -0.4142378             -11.2720
        90        2.0000           -0.4134821             -11.2514
        91        2.0000           -0.4104895             -11.1700
        92        2.0000           -0.4088881             -11.1264
        93        2.0000           -0.3987467             -10.8504
        94        2.0000           -0.3964076             -10.7868
        95        2.0000           -0.3946264             -10.7383
        96        2.0000           -0.3796462             -10.3307
        97        2.0000           -0.3538445              -9.6286 (HOMO)
        98                         -0.2895168              -7.8782 (LUMO)
        99                         -0.2653985              -7.2219
       100                         -0.2549417              -6.9373
       101                         -0.2521222              -6.8606
       102                         -0.2335815              -6.3561
       103                         -0.2259421              -6.1482
       104                         -0.2254759              -6.1355
       105                         -0.2244018              -6.1063
       106                         -0.2222799              -6.0485
       107                         -0.2162572              -5.8847
       108                         -0.1961582              -5.3377
       ...                                ...                  ...
       192                          1.1768105              32.0226
      -------------------------------------------------------------
                  HL-Gap            0.0643277 Eh            1.7504 eV

     #   Z          covCN         q      C6AA      α(0)
     1   8 O        0.860    -0.573    25.459     6.765
     2  16 S        3.944     0.959   107.823    17.477
     3   8 O        0.860    -0.573    25.460     6.765
     4   6 C        2.991    -0.076    29.880     8.967
     5   6 C        2.926    -0.016    28.416     8.742
     6   6 C        2.924    -0.020    28.504     8.755
     7   6 C        2.919    -0.020    28.518     8.757
     8   6 C        2.919    -0.022    28.563     8.764
     9   6 C        3.115     0.006    27.732     8.626
    10   6 C        3.115     0.007    27.694     8.620
    11   6 C        2.922    -0.037    28.921     8.819
    12   6 C        2.924     0.076    26.302     8.410
    13   7 N        2.752    -0.061    22.423     7.033
    14   6 C        2.925     0.056    26.734     8.479
    15   6 C        2.924    -0.058    29.450     8.899
    16   6 C        2.920    -0.032    28.804     8.801
    17   6 C        2.917    -0.042    29.043     8.837
    18   6 C        2.926    -0.035    28.867     8.811
    19   6 C        2.983    -0.006    28.153     8.704
    20   6 C        3.949     0.012    20.312     6.404
    21   6 C        3.058     0.002    27.929     8.667
    22   6 C        2.914    -0.034    28.850     8.808
    23   6 C        2.922    -0.033    28.818     8.803
    24   6 C        2.921    -0.033    28.831     8.805
    25   6 C        2.914    -0.035    28.872     8.811
    26   6 C        3.033     0.001    27.982     8.677
    27   6 C        3.034     0.000    27.984     8.677
    28   6 C        2.914    -0.035    28.878     8.812
    29   6 C        2.921    -0.033    28.830     8.805
    30   6 C        2.922    -0.033    28.814     8.803
    31   6 C        2.914    -0.033    28.832     8.805
    32   6 C        3.056     0.002    27.925     8.666
    33   6 C        2.983    -0.006    28.158     8.704
    34   6 C        2.926    -0.035    28.866     8.811
    35   6 C        2.917    -0.042    29.047     8.838
    36   6 C        2.920    -0.032    28.807     8.801
    37   6 C        2.923    -0.059    29.477     8.903
    38   6 C        2.923     0.057    26.732     8.479
    39   6 C        2.926    -0.034    28.839     8.807
    40   6 C        2.924    -0.016    28.412     8.741
    41   6 C        2.990    -0.081    30.015     8.987
    42   1 H        0.926     0.053     2.277     2.360
    43   1 H        0.926     0.068     2.107     2.270
    44   1 H        0.926     0.071     2.079     2.255
    45   1 H        0.926     0.072     2.063     2.246
    46   1 H        0.926     0.076     2.017     2.221
    47   1 H        0.926     0.030     2.593     2.518
    48   1 H        0.926     0.034     2.536     2.490
    49   1 H        0.926     0.031     2.567     2.505
    50   1 H        0.926     0.030     2.585     2.514
    51   1 H        0.926     0.026     2.644     2.543
    52   1 H        0.926     0.032     2.562     2.503
    53   1 H        0.926     0.032     2.559     2.501
    54   1 H        0.926     0.033     2.545     2.495
    55   1 H        0.926     0.032     2.555     2.499
    56   1 H        0.926     0.032     2.560     2.502
    57   1 H        0.926     0.032     2.551     2.498
    58   1 H        0.926     0.028     2.618     2.530
    59   1 H        0.926     0.030     2.590     2.517
    60   1 H        0.926     0.031     2.568     2.506
    61   1 H        0.926     0.034     2.525     2.485
    62   1 H        0.926     0.032     2.561     2.502
    63   1 H        0.926     0.070     2.087     2.259
    64   1 H        0.926     0.059     2.208     2.323

molecular dipole:
                 x           y           z       tot (Debye)
 q only:       -1.640      -2.485      -0.449
   full:       -1.476      -2.244      -0.404       6.904

 projected vibrational frequencies (cm⁻¹)
eigval :       -0.00    -0.00    -0.00     0.00     0.00     0.00
eigval :        7.79    16.56    26.37    29.78    43.48    46.20
eigval :       71.06    74.43    79.75    92.26    99.05   112.88
eigval :      116.25   130.20   139.20   163.29   171.21   195.05
eigval :      230.69   233.05   238.14   246.00   247.64   274.96
eigval :      286.76   292.55   330.77   364.79   373.28   382.54
eigval :      386.97   393.32   396.76   408.75   412.32   420.68
eigval :      426.90   442.27   442.85   462.79   463.86   489.52
eigval :      501.62   506.16   507.57   512.65   514.98   532.17
eigval :      538.16   563.68   587.36   596.09   599.29   603.06
eigval :      615.18   629.20   652.38   674.10   679.31   681.20
eigval :      685.80   691.65   696.91   703.99   720.95   729.26
eigval :      753.06   767.28   774.32   777.97   779.60   784.97
eigval :      785.29   826.90   866.50   870.37   876.29   876.41
eigval :      877.73   883.02   892.18   898.21   907.43   908.97
eigval :      912.04   912.73   914.97   916.03   919.95   924.25
eigval :      925.53   925.75   926.76   926.93   940.11   948.20
eigval :     1004.97  1006.14  1019.70  1070.31  1072.84  1077.46
eigval :     1085.43  1092.95  1100.24  1108.39  1109.99  1124.56
eigval :     1138.34  1140.91  1145.82  1151.66  1170.10  1175.68
eigval :     1176.63  1180.00  1183.78  1188.89  1191.46  1192.98
eigval :     1202.74  1217.12  1220.69  1229.72  1236.11  1241.32
eigval :     1257.95  1261.97  1269.97  1272.72  1282.98  1307.82
eigval :     1308.61  1321.28  1324.64  1328.60  1331.03  1345.39
eigval :     1365.29  1396.63  1413.12  1427.65  1428.40  1433.26
eigval :     1435.36  1444.57  1453.83  1459.97  1470.03  1477.16
eigval :     1489.77  1559.90  1566.01  1572.03  1575.62  1584.82
eigval :     1586.75  1587.44  1593.90  1594.93  1598.36  1601.49
eigval :     1603.26  3068.09  3068.51  3072.29  3073.72  3076.82
eigval :     3077.66  3079.30  3079.70  3080.39  3080.85  3087.11
eigval :     3089.17  3090.57  3092.75  3093.09  3095.77  3097.09
eigval :     3100.06  3102.23  3102.75  3105.86  3106.41  3109.61

   temp. (K)  partition function   enthalpy   heat capacity  entropy
                                   cal/mol     cal/K/mol   cal/K/mol   J/K/mol
 298.15  VIB  0.263E+14            18088.485    118.044    111.013
         ROT  0.455E+08              888.752      2.981     38.024
         INT  0.120E+22            18977.237    121.025    149.037
         TR   0.123E+29             1481.254      4.968     44.756
         TOT                       20458.4910   125.9931   193.7921   810.8260

       T/K    H(0)-H(T)+PV         H(T)/Eh          T*S/Eh         G(T)/Eh
   ------------------------------------------------------------------------
    298.15    0.326027E-01    0.510573E+00    0.920769E-01    0.418496E+00
   ------------------------------------------------------------------------

         :::::::::::::::::::::::::::::::::::::::::::::::::::::
         ::                  THERMODYNAMIC                  ::
         :::::::::::::::::::::::::::::::::::::::::::::::::::::
         :: total free energy        -104.908615878002 Eh   ::
         ::.................................................::
         :: total energy             -105.327111857992 Eh   ::
         :: zero point energy           0.477970163187 Eh   ::
         :: G(RRHO) w/o ZPVE           -0.059474183197 Eh   ::
         :: G(RRHO) contrib.            0.418495979990 Eh   ::
         :::::::::::::::::::::::::::::::::::::::::::::::::::::

           -------------------------------------------------
          | TOTAL ENERGY             -105.327111857992 Eh   |
          | TOTAL ENTHALPY           -104.816539014082 Eh   |
          | TOTAL FREE ENERGY        -104.908615878002 Eh   |
          | GRADIENT NORM               0.000068101956 Eh/α |
          | HOMO-LUMO GAP               1.750444617816 eV   |
           -------------------------------------------------

 * finished run on 2025/09/10 at 03:06:58.139
