   * xtb version 6.7.1 (edcfbbe) compiled by 'albert@albert-system' on 2024-07-22

   ID    Z sym.   atoms
    1    8 O      1, 3
    2   16 S      2
    3    6 C      4-12, 14-41
    4    7 N      13
    5    1 H      42-64

          program call               : xtb data2507/toluene/DBT-SADF/DBT-SADF.xyz --gfn 2 --gbsa toluene --ohess vtight --parallel 40 --molden --ceasefiles --namespace data2507/toluene/DBT-SADF/DBT-SADF_toluene_S0_preOpt
      * Solvation model:               GBSA
        Solvent                        toluene
        Solvent mass                       9.2140E+01 g/mol
          :  Hamiltonian                  GFN2-xTB          :
 * total energy  :  -105.3055026 Eh     change       -0.1966967E-08 Eh
 * total energy  :  -105.3199432 Eh     change       -0.1444064E-01 Eh
 * total energy  :  -105.3248894 Eh     change       -0.4946211E-02 Eh
 * total energy  :  -105.3259517 Eh     change       -0.1062315E-02 Eh
 * total energy  :  -105.3266731 Eh     change       -0.7213269E-03 Eh
 * total energy  :  -105.3268624 Eh     change       -0.1893545E-03 Eh
 * total energy  :  -105.3269080 Eh     change       -0.4558137E-04 Eh
 * total energy  :  -105.3269211 Eh     change       -0.1304966E-04 Eh
 * total energy  :  -105.3269243 Eh     change       -0.3213173E-05 Eh
 * total energy  :  -105.3269258 Eh     change       -0.1499371E-05 Eh
 * total energy  :  -105.3269264 Eh     change       -0.6453549E-06 Eh
 * total energy  :  -105.3269268 Eh     change       -0.4232518E-06 Eh
 * total energy  :  -105.3269271 Eh     change       -0.2414823E-06 Eh
 * total energy  :  -105.3269272 Eh     change       -0.1411360E-06 Eh
 * total energy  :  -105.3269273 Eh     change       -0.9341626E-07 Eh
   *** GEOMETRY OPTIMIZATION CONVERGED AFTER 15 ITERATIONS ***

 final structure:
================
64
 xtb: 6.7.1 (edcfbbe)
O            6.64865606147568       -2.43067469943867       -1.22685287204488
S            6.18114977076884       -1.82503063353002        0.00022656456586
O            6.64850240305629       -2.43031599109697        1.22754131447976
C            6.44499724469875       -0.05141581198844       -0.00000129029459
C            7.63825650133727        0.63073695579663       -0.00007055725363
C            7.60087844277436        2.02072648722540       -0.00024778794496
C            6.38421429635735        2.68608589330845       -0.00034502182063
C            5.18655902518908        1.98746252239767       -0.00027183216260
C            5.21143416483275        0.59720069406449       -0.00009817425761
C            4.05971540483089       -0.30637257446187       -0.00000882347497
C            2.71748292607367        0.05223068123629       -0.00004538664737
C            1.74771839057026       -0.94602211830335        0.00005212562722
N            0.37208699997635       -0.58623796580649        0.00002915765146
C           -0.28915019555861       -0.45724202599438        1.21405095772821
C            0.40762046111038       -0.61667585084792        2.41479067137777
C           -0.23819399133247       -0.49125347800196        3.62851735334135
C           -1.59174468039234       -0.20319988194425        3.67155587070693
C           -2.28560786927402       -0.04097054895004        2.48649590201014
C           -1.65413267900520       -0.16250537089496        1.25723715868459
C           -2.46864222796529        0.03129934039906        0.00000570176376
C           -3.67850869382980       -0.88423210248445        0.00020498292365
C           -3.70525851745345       -2.26148155215615        0.00048822147417
C           -4.93791193372077       -2.90157020868710        0.00063676467708
C           -6.11674442122111       -2.17103572160373        0.00049830639691
C           -6.09461110031679       -0.78495833646025        0.00021169795763
C           -4.86781973273627       -0.14132494537399        0.00007031850229
C           -4.52804584357818        1.27436597204763       -0.00019084141377
C           -5.32941547588738        2.40451132600562       -0.00037648603123
C           -4.72047618634776        3.64977534653921       -0.00056930868062
C           -3.33856168564726        3.76621004581488       -0.00057339291853
C           -2.53042202844499        2.63668939742543       -0.00039110902859
C           -3.13123179117266        1.39704285891420       -0.00021210316671
C           -1.65421000951793       -0.16295336779837       -1.25720996484755
C           -2.28575797347891       -0.04188002420454       -2.48647792385925
C           -1.59196466728697       -0.20454370624947       -3.67151884074341
C           -0.23840173623187       -0.49253475151728       -3.62845618952183
C            0.40748989233296       -0.61747970346125       -2.41472073463865
C           -0.28922033188955       -0.45765669179773       -1.21399839059438
C            2.10637020259023       -2.29162192842874        0.00017726891727
C            3.44621170991732       -2.65529335612588        0.00022027887145
C            4.39428970871296       -1.65943275256606        0.00012836196423
H            8.57124911109354        0.08912929403084        0.00000855651979
H            8.52358909717008        2.57982278761939       -0.00030580778351
H            6.36844520844516        3.76543373475283       -0.00047884605831
H            4.24870348084272        2.51920375544850       -0.00034953890629
H            2.41354641936363        1.08701755589731       -0.00014124870530
H            1.46254316255586       -0.84415905070343        2.39493950858189
H            0.32134489128518       -0.62036579285945        4.54323840059709
H           -2.10243741180223       -0.10558862759844        4.61736824465632
H           -3.34201735687046        0.18519849209091        2.50815094611293
H           -2.78795853614715       -2.83269868386267        0.00059278374487
H           -4.97871451279874       -3.98124182018307        0.00086536649160
H           -7.06469341464561       -2.68996124777154        0.00061855277743
H           -7.01569385001988       -0.22075844697332        0.00010976159411
H           -6.40618078151098        2.31934180578365       -0.00036287269646
H           -5.33009233835167        4.54207477727931       -0.00071151293578
H           -2.88565680280516        4.74706252060994       -0.00071862898946
H           -1.45395474470043        2.72921639736701       -0.00039714087106
H           -3.34217057356213        0.18427042701806       -2.50815470747798
H           -2.10271952810617       -0.10730240767625       -4.61733576017861
H            0.32108871143762       -0.62195812976456       -4.54316285361359
H            1.46242770015312       -0.84489158634420       -2.39484640891647
H            1.33487154820745       -3.04619915026221        0.00024681351381
H            3.74687968645013       -3.69106702489889        0.00032444426707

          :  Hamiltonian                  GFN2-xTB          :
         :: gradient norm              0.000080300038 Eh/a0 ::
         :: HOMO-LUMO gap              1.661579237682 eV    ::
         :: SCC energy              -107.182879856103 Eh    ::
         :: -> dispersion             -0.099067659677 Eh    ::
         :: -> Gsolv                  -0.049896747434 Eh    ::
         :: repulsion energy           1.855952537971 Eh    ::

    * Orbital Energies and Occupations

         #    Occupation            Energy/Eh            Energy/eV
      -------------------------------------------------------------
         1        2.0000           -0.7828831             -21.3033
       ...           ...                  ...                  ...
        85        2.0000           -0.4225939             -11.4994
        86        2.0000           -0.4217750             -11.4771
        87        2.0000           -0.4205140             -11.4428
        88        2.0000           -0.4165038             -11.3336
        89        2.0000           -0.4152329             -11.2991
        90        2.0000           -0.4129443             -11.2368
        91        2.0000           -0.4104747             -11.1696
        92        2.0000           -0.4083604             -11.1121
        93        2.0000           -0.3982589             -10.8372
        94        2.0000           -0.3958294             -10.7711
        95        2.0000           -0.3941295             -10.7248
        96        2.0000           -0.3792647             -10.3203
        97        2.0000           -0.3522320              -9.5847 (HOMO)
        98                         -0.2911702              -7.9231 (LUMO)
        99                         -0.2671067              -7.2683
       100                         -0.2558983              -6.9633
       101                         -0.2516968              -6.8490
       102                         -0.2326173              -6.3298
       103                         -0.2249035              -6.1199
       104                         -0.2247311              -6.1152
       105                         -0.2244836              -6.1085
       106                         -0.2231478              -6.0722
       107                         -0.2157529              -5.8709
       108                         -0.1952062              -5.3118
       ...                                ...                  ...
       192                          1.1775567              32.0429
      -------------------------------------------------------------
                  HL-Gap            0.0610618 Eh            1.6616 eV

     #   Z          covCN         q      C6AA      α(0)
     1   8 O        0.860    -0.572    25.428     6.761
     2  16 S        3.943     0.962   107.756    17.471
     3   8 O        0.860    -0.572    25.428     6.761
     4   6 C        2.990    -0.076    29.877     8.966
     5   6 C        2.926    -0.016    28.409     8.741
     6   6 C        2.924    -0.019    28.492     8.753
     7   6 C        2.919    -0.020    28.510     8.756
     8   6 C        2.919    -0.022    28.551     8.762
     9   6 C        3.115     0.006    27.727     8.625
    10   6 C        3.114     0.009    27.664     8.616
    11   6 C        2.922    -0.035    28.870     8.811
    12   6 C        2.926     0.078    26.259     8.404
    13   7 N        2.753    -0.066    22.517     7.048
    14   6 C        2.925     0.057    26.716     8.476
    15   6 C        2.923    -0.059    29.473     8.903
    16   6 C        2.920    -0.032    28.809     8.802
    17   6 C        2.917    -0.043    29.070     8.841
    18   6 C        2.926    -0.035    28.868     8.811
    19   6 C        2.982    -0.007    28.180     8.708
    20   6 C        3.949     0.012    20.313     6.404
    21   6 C        3.057     0.002    27.927     8.666
    22   6 C        2.914    -0.034    28.840     8.806
    23   6 C        2.922    -0.033    28.819     8.803
    24   6 C        2.921    -0.033    28.834     8.806
    25   6 C        2.914    -0.035    28.879     8.812
    26   6 C        3.034     0.000    27.986     8.677
    27   6 C        3.034     0.000    27.985     8.677
    28   6 C        2.914    -0.035    28.876     8.812
    29   6 C        2.921    -0.033    28.834     8.806
    30   6 C        2.922    -0.033    28.819     8.803
    31   6 C        2.914    -0.034    28.845     8.807
    32   6 C        3.057     0.002    27.927     8.666
    33   6 C        2.982    -0.007    28.180     8.708
    34   6 C        2.926    -0.035    28.868     8.811
    35   6 C        2.917    -0.043    29.070     8.841
    36   6 C        2.920    -0.032    28.809     8.802
    37   6 C        2.923    -0.059    29.473     8.903
    38   6 C        2.925     0.057    26.716     8.476
    39   6 C        2.926    -0.032    28.790     8.799
    40   6 C        2.925    -0.015    28.389     8.738
    41   6 C        2.990    -0.079    29.965     8.980
    42   1 H        0.926     0.054     2.266     2.354
    43   1 H        0.926     0.069     2.098     2.265
    44   1 H        0.926     0.071     2.071     2.250
    45   1 H        0.926     0.073     2.057     2.243
    46   1 H        0.926     0.077     2.007     2.216
    47   1 H        0.926     0.027     2.624     2.533
    48   1 H        0.926     0.033     2.547     2.496
    49   1 H        0.926     0.030     2.583     2.513
    50   1 H        0.926     0.029     2.603     2.523
    51   1 H        0.926     0.026     2.648     2.545
    52   1 H        0.926     0.031     2.566     2.505
    53   1 H        0.926     0.032     2.564     2.504
    54   1 H        0.926     0.032     2.553     2.498
    55   1 H        0.926     0.032     2.556     2.500
    56   1 H        0.926     0.032     2.560     2.502
    57   1 H        0.926     0.033     2.550     2.497
    58   1 H        0.926     0.028     2.620     2.531
    59   1 H        0.926     0.029     2.603     2.523
    60   1 H        0.926     0.030     2.583     2.513
    61   1 H        0.926     0.033     2.547     2.496
    62   1 H        0.926     0.027     2.624     2.533
    63   1 H        0.926     0.071     2.073     2.252
    64   1 H        0.926     0.061     2.184     2.311

molecular dipole:
                 x           y           z       tot (Debye)
 q only:       -1.250       2.586      -0.000
   full:       -1.109       2.327      -0.000       6.551

 projected vibrational frequencies (cm⁻¹)
eigval :       -0.00    -0.00    -0.00     0.00     0.00     0.00
eigval :      -16.65     9.12    19.20    26.98    41.74    47.71
eigval :       64.88    66.88    84.65    86.86    93.77   114.18
eigval :      117.53   130.34   138.78   162.83   164.84   194.09
eigval :      228.08   230.52   240.75   243.35   245.76   266.89
eigval :      285.10   293.31   330.68   365.21   373.90   381.27
eigval :      387.45   391.69   397.75   409.32   412.25   422.67
eigval :      422.89   437.05   441.77   460.43   462.47   489.26
eigval :      501.03   504.35   504.75   511.90   514.37   530.75
eigval :      538.32   559.53   587.47   596.03   599.19   602.58
eigval :      615.31   630.12   653.02   671.63   679.91   680.60
eigval :      683.09   691.46   697.35   701.18   721.50   730.37
eigval :      753.13   767.94   772.65   777.26   779.62   785.37
eigval :      785.93   825.08   870.04   870.58   875.55   876.18
eigval :      878.01   883.57   891.80   898.79   908.32   909.78
eigval :      912.28   914.99   915.75   916.00   919.70   920.62
eigval :      920.78   925.71   927.33   927.67   940.33   948.85
eigval :     1005.21  1005.88  1020.30  1071.61  1073.21  1077.88
eigval :     1085.60  1094.15  1099.68  1107.29  1108.97  1125.09
eigval :     1137.72  1141.36  1144.38  1148.83  1173.71  1175.95
eigval :     1177.23  1181.76  1183.75  1186.27  1191.84  1192.92
eigval :     1203.35  1214.92  1221.41  1229.98  1234.99  1241.61
eigval :     1258.18  1263.53  1270.10  1273.48  1282.85  1304.09
eigval :     1311.43  1323.71  1324.82  1331.92  1335.24  1343.37
eigval :     1365.27  1395.97  1413.37  1427.73  1428.44  1435.08
eigval :     1435.77  1444.52  1453.29  1459.78  1469.86  1479.79
eigval :     1491.95  1561.86  1566.81  1572.87  1577.70  1584.77
eigval :     1587.07  1587.20  1594.27  1595.06  1598.63  1601.67
eigval :     1603.56  3068.01  3068.55  3071.59  3073.08  3076.60
eigval :     3076.67  3078.71  3079.65  3080.43  3080.67  3086.73
eigval :     3088.78  3090.50  3091.64  3091.70  3096.66  3096.95
eigval :     3098.36  3099.43  3104.47  3106.41  3106.87  3110.92

   temp. (K)  partition function   enthalpy   heat capacity  entropy
                                   cal/mol     cal/K/mol   cal/K/mol   J/K/mol
 298.15  VIB  0.438E+14            18156.906    117.921    111.675
         ROT  0.455E+08              888.752      2.981     38.022
         INT  0.199E+22            19045.658    120.902    149.698
         TR   0.123E+29             1481.254      4.968     44.756
         TOT                       20526.9118   125.8698   194.4533   813.5925

       T/K    H(0)-H(T)+PV         H(T)/Eh          T*S/Eh         G(T)/Eh
   ------------------------------------------------------------------------
    298.15    0.327117E-01    0.510538E+00    0.923910E-01    0.418147E+00
   ------------------------------------------------------------------------

         :::::::::::::::::::::::::::::::::::::::::::::::::::::
         ::                  THERMODYNAMIC                  ::
         :::::::::::::::::::::::::::::::::::::::::::::::::::::
         :: total free energy        -104.908780276389 Eh   ::
         ::.................................................::
         :: total energy             -105.326927315552 Eh   ::
         :: zero point energy           0.477826352222 Eh   ::
         :: G(RRHO) w/o ZPVE           -0.059679313059 Eh   ::
         :: G(RRHO) contrib.            0.418147039163 Eh   ::
         :::::::::::::::::::::::::::::::::::::::::::::::::::::

           -------------------------------------------------
          | TOTAL ENERGY             -105.326927315552 Eh   |
          | TOTAL ENTHALPY           -104.816389247205 Eh   |
          | TOTAL FREE ENERGY        -104.908780276389 Eh   |
          | GRADIENT NORM               0.000080287095 Eh/α |
          | HOMO-LUMO GAP               1.661576108565 eV   |
           -------------------------------------------------

 * finished run on 2025/09/10 at 03:03:35.280
