   * xtb version 6.7.1 (edcfbbe) compiled by 'albert@albert-system' on 2024-07-22

   ID    Z sym.   atoms
    1    6 C      1, 3, 5-10, 12-17, 19-26, 28, 30
    2    7 N      2, 4, 11, 27, 29
    3    8 O      18
    4    1 H      31-47

          program call               : xtb data2507/gas/1PXZP/1PXZP_gas_T1_crest.xyz --gfn 2 --spinpol --tblite --uhf 2 --ohess vtight --parallel 40 --molden --ceasefiles --namespace data2507/gas/1PXZP/1PXZP_gas_T1_finalOpt
 * total energy  :   -78.7374464 Eh     change        0.1495088E-07 Eh
 * total energy  :   -78.7374713 Eh     change       -0.2488406E-04 Eh
 * total energy  :   -78.7374800 Eh     change       -0.8714942E-05 Eh
 * total energy  :   -78.7374812 Eh     change       -0.1158381E-05 Eh
 * total energy  :   -78.7374821 Eh     change       -0.9639558E-06 Eh
 * total energy  :   -78.7374828 Eh     change       -0.6036461E-06 Eh
 * total energy  :   -78.7374836 Eh     change       -0.8714408E-06 Eh
 * total energy  :   -78.7374844 Eh     change       -0.8063128E-06 Eh
 * total energy  :   -78.7374849 Eh     change       -0.4402881E-06 Eh
 * total energy  :   -78.7374852 Eh     change       -0.3782958E-06 Eh
 * total energy  :   -78.7374883 Eh     change       -0.5121158E-06 Eh
 * total energy  :   -78.7374887 Eh     change       -0.4063432E-06 Eh
 * total energy  :   -78.7374891 Eh     change       -0.3749258E-06 Eh
 * total energy  :   -78.7374894 Eh     change       -0.3257905E-06 Eh
 * total energy  :   -78.7374897 Eh     change       -0.3067199E-06 Eh
 * total energy  :   -78.7374899 Eh     change       -0.1967923E-06 Eh
 * total energy  :   -78.7374899 Eh     change        0.1473786E-07 Eh
 * total energy  :   -78.7374899 Eh     change        0.2599154E-07 Eh
 * total energy  :   -78.7374899 Eh     change       -0.3093629E-07 Eh
   *** GEOMETRY OPTIMIZATION CONVERGED AFTER 24 ITERATIONS ***

 final structure:
================
47
 xtb: 6.7.1 (edcfbbe)
C            7.62469792418177        0.58003944192357       -1.06616412786736
N            6.19337139562506        0.53973642525754       -0.96148451839633
C            5.27756349179313        1.08434230243388       -1.82030555313675
N            4.04205564752021        0.86757982837858       -1.43648999856102
C            4.12067947888621        0.15600106002084       -0.29474276735383
C            3.15601971889549       -0.38713642558004        0.61690758901795
C            1.75335948633082       -0.28642394886135        0.45618875823636
C            1.17457199263483        0.39447777507405       -0.63804506516114
C           -0.18685621975161        0.48570125647775       -0.76735608608080
C           -1.02831896588672       -0.10177709940801        0.18306888003177
N           -2.43638041066547       -0.00464798646137        0.04314459628171
C           -3.19265779057238       -1.12967533953611       -0.24121360854534
C           -2.61115454308690       -2.38126631743869       -0.43572153484055
C           -3.39588468725628       -3.48587148804888       -0.71166888021048
C           -4.77186520073937       -3.36475765877399       -0.80633876359393
C           -5.36625081602704       -2.12461969696100       -0.63819549884146
C           -4.58835407942014       -1.01321967276731       -0.36321907437168
O           -5.23254421380364        0.18610953908137       -0.22978371818341
C           -4.47049123070636        1.28970140083767        0.04010768026748
C           -5.13050642465683        2.49874363397952        0.17668454499860
C           -4.41855534132006        3.64968298619537        0.47305822916821
C           -3.04628785315167        3.58373545262248        0.64492828638697
C           -2.37859036724819        2.38050842618258        0.50898670312676
C           -3.07465768284118        1.21601860715015        0.18992400930742
C           -0.47348543940728       -0.78622559262539        1.26996444953204
C            0.88550449033553       -0.87929217025589        1.40481399539280
N            3.67234982203371       -1.05188065666478        1.68307066122745
C            4.94294776447190       -1.20444727963192        1.88168588461351
N            5.91342946370519       -0.72979507740635        1.09426915062905
C            5.47546340994746       -0.06437234065696        0.01902659954574
H            7.95614658835120        0.08040598618737       -1.97895753012053
H            7.97624594373768        1.61367510787051       -1.08032642854746
H            8.04282719222470        0.06749428989559       -0.20190679067691
H            5.55790889029581        1.62681208019976       -2.69956649402893
H            1.82675532548225        0.83896343833703       -1.37386137801397
H           -0.62611166481790        1.00226576105707       -1.60940588993932
H           -1.53898022955073       -2.47667680163658       -0.37387612516548
H           -2.92474054697721       -4.44565466056777       -0.85594827986856
H           -5.38389019253754       -4.22695986539707       -1.01851926762171
H           -6.43348537891142       -1.99524236719961       -0.72041148626288
H           -6.20124131425718        2.51480301675406        0.05115344008416
H           -4.93864174581623        4.58874171413686        0.57637156122146
H           -2.48699332636499        4.47324726347564        0.88970566251666
H           -1.31130245357231        2.33068239890374        0.65349381012055
H           -1.13226079632576       -1.22870317986285        2.00419332343077
H            1.32870099564102       -1.39586661771133        2.24205494391015
H            5.25941815947846       -1.75076424757962        2.75782516794172

 projected vibrational frequencies (cm⁻¹)
eigval :       -0.00    -0.00    -0.00    -0.00     0.00     0.00
eigval :       17.56    23.90    29.23    36.18    53.13    59.31
eigval :       74.34    88.06   112.70   128.52   142.40   166.79
eigval :      188.96   224.27   227.34   244.63   255.81   273.31
eigval :      284.32   321.66   335.04   375.15   382.32   392.95
eigval :      411.79   417.39   431.62   447.06   464.21   484.64
eigval :      492.56   501.98   528.17   535.85   539.00   557.68
eigval :      578.75   582.46   585.89   608.02   623.92   654.32
eigval :      665.70   669.37   670.37   672.65   711.88   715.24
eigval :      720.83   777.52   778.91   798.87   800.82   840.60
eigval :      849.37   855.43   861.20   866.72   866.99   886.01
eigval :      897.02   899.70   901.61   912.69   915.34   917.60
eigval :      918.31   923.84   997.31  1031.01  1071.57  1084.44
eigval :     1085.92  1106.80  1112.43  1119.85  1121.40  1134.64
eigval :     1157.67  1169.58  1173.86  1177.12  1190.88  1197.11
eigval :     1206.81  1220.54  1237.77  1243.92  1254.94  1259.80
eigval :     1280.41  1300.37  1312.88  1314.70  1318.28  1331.96
eigval :     1346.45  1362.52  1395.43  1405.49  1417.63  1423.22
eigval :     1431.82  1442.44  1448.19  1455.11  1458.92  1467.62
eigval :     1470.49  1483.08  1483.81  1504.08  1553.80  1556.58
eigval :     1564.17  1576.57  1577.24  1588.88  2977.70  2992.21
eigval :     3041.44  3067.28  3069.57  3073.01  3094.63  3094.72
eigval :     3095.35  3096.84  3103.37  3103.52  3113.07  3113.49
eigval :     3115.35  3115.45  3180.06

   temp. (K)  partition function   enthalpy   heat capacity  entropy
                                   cal/mol     cal/K/mol   cal/K/mol   J/K/mol
 298.15  VIB  0.620E+10            13233.327     84.958     80.998
         ROT  0.220E+08              888.752      2.981     36.574
         INT  0.136E+18            14122.079     87.939    117.572
         TR   0.749E+28             1481.254      4.968     43.766
         TOT                       15603.3332    92.9072   161.3380   675.0382

       T/K    H(0)-H(T)+PV         H(T)/Eh          T*S/Eh         G(T)/Eh
   ------------------------------------------------------------------------
    298.15    0.248655E-01    0.374000E+00    0.766569E-01    0.297343E+00
   ------------------------------------------------------------------------

         :::::::::::::::::::::::::::::::::::::::::::::::::::::
         ::                  THERMODYNAMIC                  ::
         :::::::::::::::::::::::::::::::::::::::::::::::::::::
         :: total free energy         -78.440146689531 Eh   ::
         ::.................................................::
         :: total energy              -78.737489907357 Eh   ::
         :: zero point energy           0.349134619202 Eh   ::
         :: G(RRHO) w/o ZPVE           -0.051791401376 Eh   ::
         :: G(RRHO) contrib.            0.297343217826 Eh   ::
         :::::::::::::::::::::::::::::::::::::::::::::::::::::

           -------------------------------------------------
          | TOTAL ENERGY              -78.737489907357 Eh   |
          | TOTAL ENTHALPY            -78.363489793947 Eh   |
          | TOTAL FREE ENERGY         -78.440146689531 Eh   |
          | GRADIENT NORM               0.000153147025 Eh/α |
           -------------------------------------------------

 * finished run on 2025/08/25 at 03:37:29.849
