   * xtb version 6.7.1 (edcfbbe) compiled by 'albert@albert-system' on 2024-07-22

   ID    Z sym.   atoms
    1    6 C      1, 3, 5-10, 12-17, 19-26, 28, 30
    2    7 N      2, 4, 11, 27, 29
    3    8 O      18
    4    1 H      31-47

          program call               : xtb data2507/gas/1PXZP/1PXZP_gas_S0_crest.xyz --gfn 2 --ohess vtight --parallel 40 --molden --ceasefiles --namespace data2507/gas/1PXZP/1PXZP_gas_S0_finalOpt
          :  Hamiltonian                  GFN2-xTB          :
 * total energy  :   -78.8075052 Eh     change       -0.1240835E-08 Eh
 * total energy  :   -78.8075057 Eh     change       -0.4187872E-06 Eh
 * total energy  :   -78.8075060 Eh     change       -0.3836898E-06 Eh
 * total energy  :   -78.8075069 Eh     change       -0.9117749E-06 Eh
 * total energy  :   -78.8075075 Eh     change       -0.5667019E-06 Eh
 * total energy  :   -78.8075077 Eh     change       -0.2069122E-06 Eh
 * total energy  :   -78.8075079 Eh     change       -0.2182439E-06 Eh
 * total energy  :   -78.8075082 Eh     change       -0.2767204E-06 Eh
 * total energy  :   -78.8075084 Eh     change       -0.1504439E-06 Eh
 * total energy  :   -78.8075085 Eh     change       -0.9109984E-07 Eh
   *** GEOMETRY OPTIMIZATION CONVERGED AFTER 10 ITERATIONS ***

 final structure:
================
47
 xtb: 6.7.1 (edcfbbe)
C            7.63993290102984        0.67851119804267       -0.97035839540806
N            6.20808968982748        0.63308412547446       -0.87855429003239
C            5.28895965524928        1.27422834103903       -1.65591702226484
N            4.05540023200600        1.03683427440871       -1.33119605758532
C            4.12177073910763        0.17786215784697       -0.26281094041118
C            3.18158128010950       -0.46482608879807        0.55552716705559
C            1.73759478202446       -0.33498117548240        0.41472613275621
C            1.18044228550780        0.45175924063372       -0.59524176473664
C           -0.18944612321197        0.55858760841129       -0.71523255820777
C           -1.02851050862455       -0.11538885316708        0.16982288400300
N           -2.42867810035785       -0.00674606231926        0.04389418839119
C           -3.20576864513661       -1.13441642876237       -0.23155934431698
C           -2.64547138907015       -2.38637461137194       -0.45319696311872
C           -3.44614642052317       -3.48473792572165       -0.72739978353937
C           -4.81767966304593       -3.34946582585251       -0.79673461507415
C           -5.39055734869466       -2.09987165756312       -0.61110160446718
C           -4.59671830214765       -1.00131038477140       -0.33954563367346
O           -5.23441740772475        0.20664296330398       -0.20225555256355
C           -4.45546342281896        1.30764555199857        0.05412801354058
C           -5.10997366906868        2.51711663035496        0.19381583302464
C           -4.39657931772388        3.66995870046422        0.48733694960939
C           -3.02915466433414        3.59731128561809        0.65777524452287
C           -2.36740419587676        2.38700336186309        0.51646159664613
C           -3.06273321930393        1.22924143979888        0.19009402881366
C           -0.47529422940029       -0.89983791299638        1.18088792038300
C            0.89280030033480       -1.00811707074488        1.30056900915783
N            3.64673538581076       -1.25252690650022        1.52995119782446
C            4.94516539577682       -1.40863231431390        1.69907079872783
N            5.92830420613085       -0.86641807145109        0.99931217419045
C            5.48422259389335       -0.07989633706520        0.02800339569597
H            8.04153327851064        0.03793984681921       -0.18693035260974
H            7.97242637038127        0.31571327806017       -1.94473592995137
H            8.00055844847480        1.69895064754576       -0.82797188552903
H            5.57970093024483        1.91738056148823       -2.46445068548632
H            1.83207584636705        0.96691815395555       -1.28326195295195
H           -0.62296033785415        1.15882548549267       -1.50180861855921
H           -1.57377660760534       -2.50349928586335       -0.41929823894864
H           -2.98308344862731       -4.44591425559234       -0.88975522468766
H           -5.44536587593044       -4.20150624532493       -1.00495745054152
H           -6.45689658489397       -1.95453997558672       -0.67876739644799
H           -6.18155867345425        2.53401273812596        0.07464018187517
H           -4.91556895232323        4.60970109705110        0.59161406723929
H           -2.46198047425065        4.48109561636634        0.90658738504641
H           -1.30070906302339        2.34189841109347        0.66976200467794
H           -1.12907138457231       -1.41380803734136        1.87037110549192
H            1.33686112945759       -1.60574824462373        2.08077634968836
H            5.24422875925415       -2.06108140274299        2.50879141695120

          :  Hamiltonian                  GFN2-xTB          :
         :: gradient norm              0.000058786212 Eh/a0 ::
         :: HOMO-LUMO gap              1.423508148706 eV    ::
         :: SCC energy               -80.099603925801 Eh    ::
         :: -> dispersion             -0.060440089882 Eh    ::
         :: repulsion energy           1.292095466272 Eh    ::

    * Orbital Energies and Occupations

         #    Occupation            Energy/Eh            Energy/eV
      -------------------------------------------------------------
         1        2.0000           -0.7231637             -19.6783
       ...           ...                  ...                  ...
        60        2.0000           -0.4293133             -11.6822
        61        2.0000           -0.4253716             -11.5750
        62        2.0000           -0.4225882             -11.4992
        63        2.0000           -0.4212762             -11.4635
        64        2.0000           -0.4158073             -11.3147
        65        2.0000           -0.4121940             -11.2164
        66        2.0000           -0.4111059             -11.1868
        67        2.0000           -0.4074387             -11.0870
        68        2.0000           -0.3974561             -10.8153
        69        2.0000           -0.3933866             -10.7046
        70        2.0000           -0.3849988             -10.4764
        71        2.0000           -0.3657520              -9.9526
        72        2.0000           -0.3381914              -9.2027 (HOMO)
        73                         -0.2858782              -7.7791 (LUMO)
        74                         -0.2383132              -6.4848
        75                         -0.2337427              -6.3605
        76                         -0.2297643              -6.2522
        77                         -0.2245536              -6.1104
        78                         -0.2194606              -5.9718
        79                         -0.2087063              -5.6792
        80                         -0.1985039              -5.4016
        81                         -0.1894170              -5.1543
        82                         -0.1212763              -3.3001
        83                         -0.0979777              -2.6661
       ...                                ...                  ...
       137                          0.6835363              18.6000
      -------------------------------------------------------------
                  HL-Gap            0.0523132 Eh            1.4235 eV

     #   Z          covCN         q      C6AA      α(0)
     1   6 C        3.689    -0.051    21.680     6.664
     2   7 N        2.817    -0.040    22.007     6.967
     3   6 C        3.183     0.101    25.347     8.217
     4   7 N        1.884    -0.276    28.010     7.846
     5   6 C        3.203     0.036    26.621     8.405
     6   6 C        2.951     0.100    25.778     8.327
     7   6 C        2.979     0.005    27.905     8.665
     8   6 C        2.921    -0.034    28.840     8.807
     9   6 C        2.920    -0.040    29.005     8.832
    10   6 C        2.921     0.068    26.476     8.438
    11   7 N        2.751    -0.068    22.567     7.055
    12   6 C        2.922     0.043    27.043     8.528
    13   6 C        2.924    -0.060    29.489     8.905
    14   6 C        2.919    -0.039    28.963     8.825
    15   6 C        2.919    -0.041    29.008     8.832
    16   6 C        2.920    -0.057    29.405     8.892
    17   6 C        2.884     0.124    25.267     8.241
    18   8 O        1.709    -0.256    18.236     5.766
    19   6 C        2.884     0.124    25.267     8.241
    20   6 C        2.920    -0.057    29.406     8.892
    21   6 C        2.919    -0.041    29.009     8.832
    22   6 C        2.919    -0.039    28.963     8.825
    23   6 C        2.924    -0.060    29.491     8.906
    24   6 C        2.922     0.043    27.043     8.528
    25   6 C        2.920    -0.041    29.011     8.833
    26   6 C        2.924    -0.026    28.649     8.778
    27   7 N        1.845    -0.264    27.710     7.801
    28   6 C        2.938     0.147    24.808     8.169
    29   7 N        1.829    -0.287    28.277     7.880
    30   6 C        3.180     0.136    24.643     8.104
    31   1 H        0.925     0.088     1.902     2.157
    32   1 H        0.924     0.062     2.174     2.306
    33   1 H        0.924     0.062     2.174     2.306
    34   1 H        0.926     0.047     2.355     2.400
    35   1 H        0.926     0.073     2.051     2.240
    36   1 H        0.926     0.044     2.400     2.423
    37   1 H        0.926     0.036     2.498     2.471
    38   1 H        0.926     0.036     2.509     2.477
    39   1 H        0.926     0.037     2.487     2.466
    40   1 H        0.926     0.050     2.326     2.385
    41   1 H        0.926     0.049     2.326     2.385
    42   1 H        0.926     0.037     2.489     2.467
    43   1 H        0.926     0.035     2.512     2.478
    44   1 H        0.926     0.036     2.496     2.471
    45   1 H        0.926     0.044     2.401     2.423
    46   1 H        0.926     0.065     2.140     2.288
    47   1 H        0.925     0.043     2.404     2.425

molecular dipole:
                 x           y           z       tot (Debye)
 q only:        1.175       0.360      -0.480
   full:        1.646       0.500      -0.662       4.685

 projected vibrational frequencies (cm⁻¹)
eigval :       -0.00    -0.00    -0.00    -0.00     0.00     0.00
eigval :       15.68    23.80    26.17    47.10    60.51    68.05
eigval :       72.47    89.04   117.03   130.94   146.00   180.42
eigval :      189.22   223.78   235.48   247.44   259.45   271.77
eigval :      274.52   318.92   336.08   373.85   376.54   391.21
eigval :      415.42   420.11   431.41   446.98   473.59   509.78
eigval :      510.20   522.51   530.39   552.40   558.26   585.42
eigval :      588.58   612.87   615.08   630.66   633.78   660.19
eigval :      661.80   673.24   698.60   720.49   749.56   750.14
eigval :      778.95   779.23   801.55   830.27   832.52   855.11
eigval :      863.92   866.38   880.24   888.23   892.97   897.10
eigval :      898.01   911.26   914.26   914.94   917.81   931.32
eigval :      937.88   944.63  1016.65  1041.64  1090.41  1091.66
eigval :     1101.73  1107.00  1108.32  1121.34  1129.31  1147.99
eigval :     1171.53  1175.72  1181.99  1189.42  1196.86  1201.67
eigval :     1218.01  1227.22  1243.10  1261.76  1262.22  1284.15
eigval :     1292.51  1310.69  1311.26  1318.88  1330.82  1339.72
eigval :     1345.41  1357.06  1395.96  1406.43  1424.26  1434.22
eigval :     1443.26  1443.95  1456.35  1467.76  1479.75  1488.20
eigval :     1489.06  1505.49  1552.67  1565.52  1567.45  1576.49
eigval :     1580.54  1589.78  1593.12  1603.52  2984.66  2997.09
eigval :     3038.89  3062.83  3084.47  3085.99  3088.44  3088.63
eigval :     3098.49  3098.63  3106.65  3107.18  3111.22  3111.38
eigval :     3112.10  3112.66  3158.57

   temp. (K)  partition function   enthalpy   heat capacity  entropy
                                   cal/mol     cal/K/mol   cal/K/mol   J/K/mol
 298.15  VIB  0.375E+10            12976.425     83.732     79.678
         ROT  0.220E+08              888.752      2.981     36.577
         INT  0.824E+17            13865.178     86.713    116.255
         TR   0.749E+28             1481.254      4.968     43.766
         TOT                       15346.4314    91.6814   160.0210   669.5277

       T/K    H(0)-H(T)+PV         H(T)/Eh          T*S/Eh         G(T)/Eh
   ------------------------------------------------------------------------
    298.15    0.244561E-01    0.376777E+00    0.760311E-01    0.300746E+00
   ------------------------------------------------------------------------

         :::::::::::::::::::::::::::::::::::::::::::::::::::::
         ::                  THERMODYNAMIC                  ::
         :::::::::::::::::::::::::::::::::::::::::::::::::::::
         :: total free energy         -78.506762095128 Eh   ::
         ::.................................................::
         :: total energy              -78.807508459537 Eh   ::
         :: zero point energy           0.352321394885 Eh   ::
         :: G(RRHO) w/o ZPVE           -0.051575030476 Eh   ::
         :: G(RRHO) contrib.            0.300746364409 Eh   ::
         :::::::::::::::::::::::::::::::::::::::::::::::::::::

           -------------------------------------------------
          | TOTAL ENERGY              -78.807508459537 Eh   |
          | TOTAL ENTHALPY            -78.430730969482 Eh   |
          | TOTAL FREE ENERGY         -78.506762095128 Eh   |
          | GRADIENT NORM               0.000058735661 Eh/α |
          | HOMO-LUMO GAP               1.423514160873 eV   |
           -------------------------------------------------

 * finished run on 2025/08/25 at 03:35:57.626
