   * xtb version 6.7.1 (edcfbbe) compiled by 'albert@albert-system' on 2024-07-22

   ID    Z sym.   atoms
    1    6 C      1, 3, 5-10, 12-17, 19-26, 28, 30
    2    7 N      2, 4, 11, 27, 29
    3    8 O      18
    4    1 H      31-47

          program call               : xtb data2507/gas/1PXZP/1PXZP_gas_S0_finalOpt.xtbopt.xyz --gfn 2 --spinpol --tblite --uhf 2 --ohess vtight --parallel 40 --molden --ceasefiles --namespace data2507/gas/1PXZP/1PXZP_gas_T1_preOpt
 * total energy  :   -78.7320134 Eh     change       -0.1132835E-07 Eh
 * total energy  :   -78.7362624 Eh     change       -0.4249036E-02 Eh
 * total energy  :   -78.7373091 Eh     change       -0.1046608E-02 Eh
 * total energy  :   -78.7373504 Eh     change       -0.4134257E-04 Eh
 * total energy  :   -78.7373732 Eh     change       -0.2279550E-04 Eh
 * total energy  :   -78.7373829 Eh     change       -0.9690845E-05 Eh
 * total energy  :   -78.7373961 Eh     change       -0.1318645E-04 Eh
 * total energy  :   -78.7374059 Eh     change       -0.9870159E-05 Eh
 * total energy  :   -78.7374132 Eh     change       -0.7307644E-05 Eh
 * total energy  :   -78.7374195 Eh     change       -0.6256468E-05 Eh
 * total energy  :   -78.7374885 Eh     change       -0.3846751E-06 Eh
 * total energy  :   -78.7374887 Eh     change       -0.2851194E-06 Eh
 * total energy  :   -78.7374890 Eh     change       -0.2028537E-06 Eh
 * total energy  :   -78.7374892 Eh     change       -0.2366749E-06 Eh
 * total energy  :   -78.7374891 Eh     change        0.8570771E-07 Eh
 * total energy  :   -78.7374893 Eh     change       -0.2193075E-06 Eh
 * total energy  :   -78.7374894 Eh     change       -0.1203644E-06 Eh
 * total energy  :   -78.7374896 Eh     change       -0.1369987E-06 Eh
 * total energy  :   -78.7374897 Eh     change       -0.8576686E-07 Eh
   *** GEOMETRY OPTIMIZATION CONVERGED AFTER 43 ITERATIONS ***

 final structure:
================
47
 xtb: 6.7.1 (edcfbbe)
C            7.62361615839563        0.61262440103322       -1.03738817624127
N            6.19228084664943        0.57084675461909       -0.93351096665915
C            5.27665529915246        1.14008045713031       -1.77637299900617
N            4.04107272870802        0.91254748779061       -1.39906584132155
C            4.11948783838479        0.16838889830139       -0.27822076867937
C            3.15468405998596       -0.40096785515011        0.61715783299781
C            1.75207111092811       -0.29668160150836        0.45843281491895
C            1.17380838097929        0.41390226030341       -0.61704094681386
C           -0.18750292528739        0.50764314520569       -0.74511234092205
C           -1.02958827575066       -0.10648198230280        0.18786659717655
N           -2.43739433525528       -0.00593404962420        0.04832940887981
C           -3.19326430858862       -1.12231732901928       -0.26939639016339
C           -2.61237514570599       -2.36963344529398       -0.49135391850359
C           -3.39680871850279       -3.46551877384773       -0.80088663848841
C           -4.77185102425481       -3.33963395535542       -0.90269303162237
C           -5.36548413992734       -2.10316149839295       -0.70731401955025
C           -4.58791000354146       -1.00051040433363       -0.39825726650788
O           -5.23137549562228        0.19602025384470       -0.23898781491861
C           -4.46981926408670        1.29113909565326        0.06446740258690
C           -5.12911137623854        2.49737044833855        0.22699921135401
C           -4.41772651937419        3.63925307104597        0.55769166624112
C           -3.04685482108518        3.56670863343707        0.73794716236209
C           -2.37987288170242        2.36630902363312        0.57613323006595
C           -3.07518055183004        1.21147226184822        0.22214636536190
C           -0.47527668461243       -0.82017253822073        1.25603304990974
C            0.88368158857910       -0.91612495898784        1.38946226328574
N            3.67089477079250       -1.09580980194294        1.66409353947651
C            4.94148022894412       -1.25391536420140        1.85834305109858
N            5.91209369083484       -0.75699136637321        1.08497866234791
C            5.47420248042454       -0.06100656026068        0.02916221815994
H            8.04130700368444        0.07040908203773       -0.19121235947270
H            7.95377097578551        0.14369346622492       -1.96680565585930
H            7.97699163168769        1.64553854550658       -1.01664899905866
H            5.55705281005073        1.70770614071819       -2.63959186005800
H            1.82633702132313        0.87906362415727       -1.33965096984847
H           -0.62632847790671        1.04695539152432       -1.57301013332326
H           -1.54083671918042       -2.46855026324401       -0.42439250521922
H           -2.92610995650471       -4.42215052815490       -0.96602208410975
H           -5.38361959759674       -4.19503136636450       -1.14149932544058
H           -6.43185414689685       -1.96974882592713       -0.79422275095170
H           -6.19886840278647        2.51832386552010        0.09403926391174
H           -4.93719468484579        4.57624402402230        0.68097574751937
H           -2.48812167511686        4.44875309109181        1.00953875952861
H           -1.31374674775936        2.31114020603279        0.72712311559023
H           -1.13431856942763       -1.28289236740827        1.97744138346714
H            1.32641880694856       -1.45532832687612        2.21256353686745
H            5.25790529211819       -1.82501438212621        2.71859352731692

 projected vibrational frequencies (cm⁻¹)
eigval :       -0.00    -0.00     0.00     0.00     0.00     0.00
eigval :       17.48    23.58    29.08    36.73    52.96    59.44
eigval :       74.69    88.02   112.75   128.56   142.28   166.82
eigval :      188.96   224.22   227.38   244.63   255.88   273.23
eigval :      284.32   321.82   335.10   375.11   382.25   392.97
eigval :      411.70   417.39   431.49   447.07   464.22   484.71
eigval :      492.57   501.94   528.17   536.04   539.01   557.70
eigval :      578.90   582.58   585.89   608.01   623.90   654.31
eigval :      665.68   669.32   670.38   672.71   711.72   715.25
eigval :      720.71   777.51   778.89   799.11   800.81   840.91
eigval :      849.73   855.62   861.94   866.69   866.97   886.25
eigval :      897.04   899.69   901.64   912.69   915.33   917.59
eigval :      918.27   923.61   997.25  1031.09  1071.82  1084.46
eigval :     1085.89  1106.79  1112.55  1119.81  1121.72  1134.53
eigval :     1157.78  1169.10  1173.91  1177.00  1190.89  1197.29
eigval :     1206.96  1220.49  1237.79  1244.41  1254.38  1259.74
eigval :     1280.43  1300.43  1312.85  1314.74  1318.25  1332.02
eigval :     1346.81  1362.42  1395.63  1405.76  1417.55  1423.13
eigval :     1431.81  1442.15  1448.22  1455.08  1458.90  1467.66
eigval :     1470.61  1482.96  1483.78  1504.06  1553.72  1556.54
eigval :     1564.12  1576.34  1577.72  1588.94  2977.56  2992.01
eigval :     3041.41  3067.13  3069.38  3072.62  3094.55  3094.66
eigval :     3095.26  3096.65  3103.27  3103.42  3112.94  3113.38
eigval :     3115.27  3115.32  3179.91

   temp. (K)  partition function   enthalpy   heat capacity  entropy
                                   cal/mol     cal/K/mol   cal/K/mol   J/K/mol
 298.15  VIB  0.623E+10            13232.613     84.961     81.004
         ROT  0.220E+08              888.752      2.981     36.574
         INT  0.137E+18            14121.366     87.942    117.578
         TR   0.749E+28             1481.254      4.968     43.766
         TOT                       15602.6195    92.9103   161.3437   675.0621

       T/K    H(0)-H(T)+PV         H(T)/Eh          T*S/Eh         G(T)/Eh
   ------------------------------------------------------------------------
    298.15    0.248644E-01    0.374000E+00    0.766596E-01    0.297341E+00
   ------------------------------------------------------------------------

         :::::::::::::::::::::::::::::::::::::::::::::::::::::
         ::                  THERMODYNAMIC                  ::
         :::::::::::::::::::::::::::::::::::::::::::::::::::::
         :: total free energy         -78.440148998647 Eh   ::
         ::.................................................::
         :: total energy              -78.737489640547 Eh   ::
         :: zero point energy           0.349135891730 Eh   ::
         :: G(RRHO) w/o ZPVE           -0.051795249830 Eh   ::
         :: G(RRHO) contrib.            0.297340641899 Eh   ::
         :::::::::::::::::::::::::::::::::::::::::::::::::::::

           -------------------------------------------------
          | TOTAL ENERGY              -78.737489640547 Eh   |
          | TOTAL ENTHALPY            -78.363489391882 Eh   |
          | TOTAL FREE ENERGY         -78.440148998647 Eh   |
          | GRADIENT NORM               0.000051751769 Eh/α |
           -------------------------------------------------

 * finished run on 2025/08/25 at 03:36:01.541
