   * xtb version 6.7.1 (edcfbbe) compiled by 'albert@albert-system' on 2024-07-22

   ID    Z sym.   atoms
    1    6 C      1, 3, 5-10, 12-17, 19-26, 28, 30
    2    7 N      2, 4, 11, 27, 29
    3    8 O      18
    4    1 H      31-47

          program call               : xtb data2507/gas/1PXZP/1PXZP.xyz --gfn 2 --ohess vtight --parallel 40 --molden --ceasefiles --namespace data2507/gas/1PXZP/1PXZP_gas_S0_preOpt
          :  Hamiltonian                  GFN2-xTB          :
 * total energy  :   -78.7913016 Eh     change       -0.1766637E-08 Eh
 * total energy  :   -78.8013766 Eh     change       -0.1007504E-01 Eh
 * total energy  :   -78.8042121 Eh     change       -0.2835469E-02 Eh
 * total energy  :   -78.8049506 Eh     change       -0.7385312E-03 Eh
 * total energy  :   -78.8054130 Eh     change       -0.4623748E-03 Eh
 * total energy  :   -78.8055879 Eh     change       -0.1748758E-03 Eh
 * total energy  :   -78.8056865 Eh     change       -0.9866705E-04 Eh
 * total energy  :   -78.8057842 Eh     change       -0.9766733E-04 Eh
 * total energy  :   -78.8059023 Eh     change       -0.1181169E-03 Eh
 * total energy  :   -78.8060384 Eh     change       -0.1361043E-03 Eh
 * total energy  :   -78.8075079 Eh     change       -0.3383512E-06 Eh
 * total energy  :   -78.8075083 Eh     change       -0.3905117E-06 Eh
 * total energy  :   -78.8075086 Eh     change       -0.3381916E-06 Eh
 * total energy  :   -78.8075088 Eh     change       -0.2258942E-06 Eh
 * total energy  :   -78.8075090 Eh     change       -0.1480496E-06 Eh
 * total energy  :   -78.8075092 Eh     change       -0.1636174E-06 Eh
 * total energy  :   -78.8075093 Eh     change       -0.1614453E-06 Eh
 * total energy  :   -78.8075094 Eh     change       -0.1218669E-06 Eh
 * total energy  :   -78.8075095 Eh     change       -0.7893993E-07 Eh
   *** GEOMETRY OPTIMIZATION CONVERGED AFTER 88 ITERATIONS ***

 final structure:
================
47
 xtb: 6.7.1 (edcfbbe)
C            7.59409604514602        0.43350234009079       -0.81789396517398
N            6.16014533341802        0.41632927601754       -0.75345119229564
C            5.26768107231589        1.01526147514527       -1.59303907885880
N            4.02408177027194        0.82137864020733       -1.27789121568097
C            4.05461287733389        0.03961953511160       -0.15023021457730
C            3.08752371840394       -0.52691758570127        0.69268864106806
C            1.64919381648334       -0.38058230642403        0.51512964146071
C            1.12654493764918        0.34320884326920       -0.55839303050319
C           -0.23837884304525        0.46966410285270       -0.71065494591299
C           -1.10691124504823       -0.12143712072563        0.20474547828654
N           -2.50177736786185        0.01045938164060        0.04661376737759
C           -3.30283072806588       -1.11479988124760       -0.16172855811359
C           -2.77169732975831       -2.39325077869060       -0.27963787248713
C           -3.59575621817946       -3.48850001819231       -0.48953959245806
C           -4.96167836409151       -3.32456248945766       -0.59714458843437
C           -5.50479055579362       -2.05081488169452       -0.51513148815880
C           -4.68753282227618       -0.95540351534135       -0.30801128036322
O           -5.29578340180443        0.27484809994853       -0.27272235973329
C           -4.49375219109037        1.37166335560265       -0.07686112186671
C           -5.11921845107817        2.60365647110186       -0.03518159489790
C           -4.38192375565631        3.75632355486162        0.19258584161912
C           -3.02039818057676        3.66221006683805        0.39648582157880
C           -2.38772215106106        2.42910262521861        0.35344295398732
C           -3.10643379164160        1.26879898873763        0.09345433786934
C           -0.58824688150466       -0.84387805445731        1.27835921818089
C            0.77499451292755       -0.97186167388474        1.43033872124806
N            3.51966247621360       -1.25115859806815        1.72953029262692
C            4.81163242197588       -1.41652153513915        1.93548360914651
N            5.81757893450933       -0.94137212117232        1.21957237810186
C            5.40640203876486       -0.21880180658262        0.18607377841682
H            7.94019124927266       -0.00417875712032       -1.75610735447260
H            7.96838296355169        1.45615247785875       -0.74225407602189
H            7.96931251793969       -0.15420087679622        0.01827247252805
H            5.58524338905457        1.59448512933381       -2.43894711598059
H            1.80081424468926        0.79459965298717       -1.26900223499612
H           -0.64536367862591        1.02157746202781       -1.54532619829471
H           -1.70429573200960       -2.53426035431426       -0.21516386099637
H           -3.15524369670501       -4.47027113023592       -0.57153459043510
H           -5.60757968126357       -4.17367735308363       -0.75568903930728
H           -6.56543135030310       -1.88427370183537       -0.61556295809514
H           -6.18747915793160        2.63853931631154       -0.17793747528289
H           -4.87821887443771        4.71353731326565        0.22033942436169
H           -2.43534730662023        4.54699787150322        0.59531551728173
H           -1.32570599121697        2.36867018330840        0.53189082767763
H           -1.26457787195032       -1.29342947473902        1.99071843513439
H            1.19257020497281       -1.52149634111037        2.25896674731727
H            5.08341109470493       -2.01493480722605        2.79502909812783

          :  Hamiltonian                  GFN2-xTB          :
         :: gradient norm              0.000020758573 Eh/a0 ::
         :: HOMO-LUMO gap              1.423954148816 eV    ::
         :: SCC energy               -80.099605714348 Eh    ::
         :: -> dispersion             -0.060441079881 Eh    ::
         :: repulsion energy           1.292096195334 Eh    ::

    * Orbital Energies and Occupations

         #    Occupation            Energy/Eh            Energy/eV
      -------------------------------------------------------------
         1        2.0000           -0.7231722             -19.6785
       ...           ...                  ...                  ...
        60        2.0000           -0.4293152             -11.6823
        61        2.0000           -0.4253673             -11.5748
        62        2.0000           -0.4225813             -11.4990
        63        2.0000           -0.4212837             -11.4637
        64        2.0000           -0.4157872             -11.3141
        65        2.0000           -0.4121838             -11.2161
        66        2.0000           -0.4111128             -11.1869
        67        2.0000           -0.4074407             -11.0870
        68        2.0000           -0.3974518             -10.8152
        69        2.0000           -0.3933815             -10.7045
        70        2.0000           -0.3850013             -10.4764
        71        2.0000           -0.3657434              -9.9524
        72        2.0000           -0.3381985              -9.2028 (HOMO)
        73                         -0.2858690              -7.7789 (LUMO)
        74                         -0.2383098              -6.4847
        75                         -0.2337501              -6.3607
        76                         -0.2297521              -6.2519
        77                         -0.2245590              -6.1106
        78                         -0.2194585              -5.9718
        79                         -0.2087057              -5.6792
        80                         -0.1985016              -5.4015
        81                         -0.1894163              -5.1543
        82                         -0.1212661              -3.2998
        83                         -0.0979850              -2.6663
       ...                                ...                  ...
       137                          0.6834676              18.5981
      -------------------------------------------------------------
                  HL-Gap            0.0523295 Eh            1.4240 eV

     #   Z          covCN         q      C6AA      α(0)
     1   6 C        3.689    -0.051    21.680     6.664
     2   7 N        2.817    -0.040    22.007     6.967
     3   6 C        3.183     0.101    25.347     8.217
     4   7 N        1.884    -0.276    28.010     7.846
     5   6 C        3.203     0.036    26.621     8.405
     6   6 C        2.952     0.100    25.778     8.327
     7   6 C        2.979     0.005    27.905     8.665
     8   6 C        2.921    -0.034    28.840     8.807
     9   6 C        2.920    -0.040    29.004     8.832
    10   6 C        2.921     0.068    26.476     8.438
    11   7 N        2.751    -0.068    22.567     7.055
    12   6 C        2.922     0.043    27.043     8.528
    13   6 C        2.924    -0.060    29.490     8.905
    14   6 C        2.919    -0.039    28.963     8.825
    15   6 C        2.919    -0.041    29.008     8.832
    16   6 C        2.920    -0.057    29.405     8.892
    17   6 C        2.884     0.124    25.268     8.241
    18   8 O        1.709    -0.256    18.236     5.766
    19   6 C        2.884     0.125    25.267     8.241
    20   6 C        2.920    -0.057    29.406     8.893
    21   6 C        2.919    -0.041    29.009     8.832
    22   6 C        2.919    -0.039    28.963     8.825
    23   6 C        2.924    -0.060    29.490     8.905
    24   6 C        2.922     0.043    27.043     8.528
    25   6 C        2.919    -0.041    29.012     8.833
    26   6 C        2.924    -0.026    28.649     8.778
    27   7 N        1.845    -0.264    27.710     7.801
    28   6 C        2.938     0.147    24.808     8.169
    29   7 N        1.829    -0.287    28.277     7.880
    30   6 C        3.179     0.136    24.643     8.104
    31   1 H        0.924     0.062     2.174     2.306
    32   1 H        0.924     0.062     2.174     2.306
    33   1 H        0.925     0.088     1.902     2.157
    34   1 H        0.926     0.047     2.355     2.400
    35   1 H        0.926     0.073     2.051     2.239
    36   1 H        0.926     0.044     2.400     2.423
    37   1 H        0.926     0.036     2.497     2.471
    38   1 H        0.926     0.036     2.509     2.477
    39   1 H        0.926     0.037     2.487     2.466
    40   1 H        0.926     0.050     2.326     2.385
    41   1 H        0.926     0.049     2.326     2.385
    42   1 H        0.926     0.037     2.489     2.467
    43   1 H        0.926     0.035     2.511     2.478
    44   1 H        0.926     0.036     2.497     2.471
    45   1 H        0.926     0.044     2.401     2.423
    46   1 H        0.926     0.065     2.140     2.288
    47   1 H        0.925     0.043     2.404     2.425

molecular dipole:
                 x           y           z       tot (Debye)
 q only:        1.190       0.305      -0.478
   full:        1.666       0.422      -0.660       4.680

 projected vibrational frequencies (cm⁻¹)
eigval :       -0.00     0.00     0.00     0.00     0.00     0.00
eigval :       15.71    23.76    26.10    47.04    60.52    68.08
eigval :       72.50    89.14   117.07   130.90   146.02   180.44
eigval :      189.27   223.79   235.48   247.43   259.36   271.85
eigval :      274.52   319.00   336.10   373.69   376.49   391.30
eigval :      415.45   420.11   431.45   446.99   473.60   509.77
eigval :      510.19   522.51   530.40   552.38   558.28   585.40
eigval :      588.57   612.91   615.09   630.66   633.75   660.18
eigval :      661.81   673.26   698.59   720.46   749.58   750.14
eigval :      778.95   779.23   801.55   830.29   832.54   855.12
eigval :      863.92   866.40   880.26   888.21   892.98   897.11
eigval :      898.01   911.26   914.26   914.94   917.80   931.41
eigval :      937.87   944.64  1016.65  1041.65  1090.41  1091.67
eigval :     1101.73  1107.01  1108.33  1121.36  1129.33  1148.01
eigval :     1171.53  1175.72  1182.04  1189.45  1196.87  1201.67
eigval :     1218.02  1227.21  1243.09  1261.73  1262.27  1284.17
eigval :     1292.52  1310.67  1311.19  1319.05  1330.77  1339.71
eigval :     1345.37  1357.05  1395.95  1406.43  1424.26  1434.22
eigval :     1443.26  1443.94  1456.34  1467.76  1479.81  1488.18
eigval :     1489.08  1505.48  1552.64  1565.53  1567.44  1576.45
eigval :     1580.54  1589.77  1593.10  1603.52  2984.64  2997.08
eigval :     3038.98  3062.82  3084.47  3086.00  3088.44  3088.63
eigval :     3098.50  3098.63  3106.67  3107.20  3111.21  3111.44
eigval :     3112.11  3112.66  3158.55

   temp. (K)  partition function   enthalpy   heat capacity  entropy
                                   cal/mol     cal/K/mol   cal/K/mol   J/K/mol
 298.15  VIB  0.375E+10            12976.233     83.731     79.675
         ROT  0.220E+08              888.752      2.981     36.577
         INT  0.825E+17            13864.985     86.712    116.252
         TR   0.749E+28             1481.254      4.968     43.766
         TOT                       15346.2393    91.6799   160.0178   669.5144

       T/K    H(0)-H(T)+PV         H(T)/Eh          T*S/Eh         G(T)/Eh
   ------------------------------------------------------------------------
    298.15    0.244558E-01    0.376779E+00    0.760296E-01    0.300749E+00
   ------------------------------------------------------------------------

         :::::::::::::::::::::::::::::::::::::::::::::::::::::
         ::                  THERMODYNAMIC                  ::
         :::::::::::::::::::::::::::::::::::::::::::::::::::::
         :: total free energy         -78.506760483006 Eh   ::
         ::.................................................::
         :: total energy              -78.807509519011 Eh   ::
         :: zero point energy           0.352322853852 Eh   ::
         :: G(RRHO) w/o ZPVE           -0.051573817846 Eh   ::
         :: G(RRHO) contrib.            0.300749036006 Eh   ::
         :::::::::::::::::::::::::::::::::::::::::::::::::::::

           -------------------------------------------------
          | TOTAL ENERGY              -78.807509519011 Eh   |
          | TOTAL ENTHALPY            -78.430730876098 Eh   |
          | TOTAL FREE ENERGY         -78.506760483006 Eh   |
          | GRADIENT NORM               0.000020749295 Eh/α |
          | HOMO-LUMO GAP               1.423957232180 eV   |
           -------------------------------------------------

 * finished run on 2025/08/25 at 03:34:53.912
