   * xtb version 6.7.1 (edcfbbe) compiled by 'albert@albert-system' on 2024-07-22

   ID    Z sym.   atoms
    1    9 F      1, 3, 4
    2    6 C      2, 5-9, 11-15, 17-20, 22-35, 37-51
    3    7 N      10, 21, 36
    4    8 O      16
    5    1 H      52-83

          program call               : xtb data2507/gas/PICFOCz/PICFOCz_gas_S0_finalOpt.xtbopt.xyz --gfn 2 --spinpol --tblite --uhf 2 --ohess vtight --parallel 40 --molden --ceasefiles --namespace data2507/gas/PICFOCz/PICFOCz_gas_T1_preOpt
 * total energy  :  -137.5983016 Eh     change        0.8457542E-07 Eh
 * total energy  :  -137.6044559 Eh     change       -0.6154265E-02 Eh
 * total energy  :  -137.6068565 Eh     change       -0.2400591E-02 Eh
 * total energy  :  -137.6072711 Eh     change       -0.4146723E-03 Eh
 * total energy  :  -137.6076976 Eh     change       -0.4264197E-03 Eh
 * total energy  :  -137.6079118 Eh     change       -0.2142428E-03 Eh
 * total energy  :  -137.6080757 Eh     change       -0.1639202E-03 Eh
 * total energy  :  -137.6081992 Eh     change       -0.1234572E-03 Eh
 * total energy  :  -137.6083130 Eh     change       -0.1138528E-03 Eh
 * total energy  :  -137.6084141 Eh     change       -0.1010458E-03 Eh
 * total energy  :  -137.6090329 Eh     change       -0.5523324E-06 Eh
 * total energy  :  -137.6090335 Eh     change       -0.6229406E-06 Eh
 * total energy  :  -137.6090340 Eh     change       -0.4379574E-06 Eh
 * total energy  :  -137.6090344 Eh     change       -0.4478987E-06 Eh
 * total energy  :  -137.6090348 Eh     change       -0.3765339E-06 Eh
 * total energy  :  -137.6090352 Eh     change       -0.4542766E-06 Eh
 * total energy  :  -137.6090357 Eh     change       -0.4177498E-06 Eh
 * total energy  :  -137.6090362 Eh     change       -0.5666882E-06 Eh
 * total energy  :  -137.6090363 Eh     change       -0.5862165E-07 Eh
   *** GEOMETRY OPTIMIZATION CONVERGED AFTER 68 ITERATIONS ***

 final structure:
================
83
 xtb: 6.7.1 (edcfbbe)
F           -0.70952526255321        4.95134040204743       -2.28279378283260
C           -0.39134402643814        5.13722649094249       -0.99203028349486
F            0.96035942013422        5.15194890867005       -0.94385632376036
F           -0.78159657109215        6.38339008869990       -0.68126797713764
C           -0.96719773100964        4.09185641106682       -0.08477026527902
C           -1.29292901956595        4.42032200664443        1.22897245704516
C           -1.78150456628369        3.42471768344084        2.06744615354959
C           -1.93134793300148        2.13322032314034        1.61459425094449
C           -1.59868342931771        1.80244682042634        0.29104606866593
N           -1.70683058764687        0.50017800252580       -0.16709194900830
C           -0.69437273183437       -0.21157413696236       -0.87252767286718
C            0.64193668792096        0.15966767061293       -1.08151552493544
C            1.39286963866242       -0.60334284474930       -2.02171292905963
C            2.70985345515577       -0.34597911223331       -2.25191962228153
C            3.37817432626703        0.67889436456809       -1.55271054939016
O            4.69524045169236        0.82737990482539       -1.84495627286082
C            5.52615711920429        1.56400336591633       -0.97124741476575
C            5.63826391293836        0.90176066144696        0.40580519245492
C            6.12760790035033       -0.54419897467327        0.29686503988925
C            5.55524275511457       -1.42702150664085        1.41400215180225
N            4.14311201274130       -1.64931018561373        1.25335806014599
C            3.12093989751210       -1.01613746485022        1.92083247659119
C            3.16685922953355       -0.02963889862108        2.89777193342206
C            1.97021880574556        0.43682067204280        3.40674516255549
C            0.74723172660456       -0.06999102314185        2.97416480659857
C            0.69135619852521       -1.05847548959731        2.01231098439234
C            1.87945640418443       -1.52885755040391        1.47138735534082
C            2.18317655805615       -2.50817791660458        0.46873904147606
C            1.39964489130729       -3.32947515229018       -0.32990516943240
C            2.03000775903156       -4.17096323755101       -1.22433675106176
C            3.41905877178957       -4.20323316973826       -1.32289340772733
C            4.21842235039749       -3.39592221068994       -0.53638282078104
C            3.59250119300785       -2.54349012265261        0.36249782108165
C            2.65826487413943        1.43924867909923       -0.62406125209587
C            1.33237106915726        1.18508011086011       -0.38387618476288
N           -1.14348221813772       -1.43524110452427       -1.22758588601327
C           -2.34880737231790       -1.57121607186889       -0.71959215714784
C           -3.17038413658202       -2.73667515188541       -0.73157170052390
C           -2.70240926982632       -3.93313824597546       -1.27733982948625
C           -3.47768172880667       -5.07363986415324       -1.22394318848165
C           -4.72058664758068       -5.01811472214704       -0.61223799862534
C           -5.19755538079695       -3.83173113616565       -0.08109669163135
C           -4.44935914151660       -2.65278723436609       -0.13591115982488
C           -4.94640430770531       -1.37245898499394        0.35553574673906
C           -6.25843216633130       -1.22599804672093        0.79185094730282
C           -6.77055473788206       -0.00854269841585        1.20710841504362
C           -5.97020854286660        1.13216521016300        1.16193309724855
C           -4.66905126941540        1.03862362610209        0.74838710336936
C           -4.10290518596793       -0.20489780223370        0.36405903168878
C           -2.78228195387382       -0.35904571716676       -0.06688607071755
C           -1.11387561072315        2.80329099887783       -0.56158599465455
H           -1.16869369805276        5.43059831776536        1.58282623174868
H           -2.03206173988526        3.66666738935979        3.08881560607225
H           -2.29328823380620        1.35821585983300        2.27325503438171
H            0.88236624590614       -1.39275027232679       -2.54747359214021
H            3.27571989843886       -0.92592154819980       -2.96389552309769
H            6.49928950370258        1.57451297093746       -1.46946944498953
H            5.17380534227699        2.59796956718063       -0.87207527719043
H            4.65158046215053        0.90505317152704        0.86959282300726
H            6.30960040570166        1.49505400746302        1.02805423293106
H            7.21747280017194       -0.58131356780239        0.32938048865950
H            5.80326677338905       -0.95494068665995       -0.66123481855368
H            5.72950787556872       -0.96307087228575        2.38761194167926
H            6.06077241385180       -2.39848549407189        1.40561738590252
H            4.10358062406104        0.36902709339421        3.25967484381914
H            1.98388974335621        1.20862606078163        4.16239597323265
H           -0.16353083369934        0.31650449038139        3.40678163555766
H           -0.25293388690463       -1.46642884819959        1.68457257194453
H            0.32415260583094       -3.29179837590020       -0.26053107682632
H            1.44281339093335       -4.81646966477028       -1.86039927468003
H            3.88322177523405       -4.87353941372441       -2.03174251697809
H            5.29377495350882       -3.43512271042802       -0.62609840352368
H            3.13166917426085        2.23996752816593       -0.07756889324250
H            0.84089330750266        1.73972557599087        0.39648642793639
H           -1.72357177564389       -3.93543079958072       -1.73103209440752
H           -3.11787148276603       -6.00031729307560       -1.64480610668510
H           -5.33007569360867       -5.90788436446168       -0.54917036917122
H           -6.16923045613157       -3.84205752542145        0.38618078309064
H           -6.92060111500899       -2.07694906127692        0.79806916513988
H           -7.79464812600323        0.05933293995364        1.54071048478795
H           -6.37958620716562        2.09105287092483        1.44333884547081
H           -4.07077049469186        1.93168575036960        0.67752025126983
H           -0.86269795756801        2.56370777684049       -1.58319464717036

 projected vibrational frequencies (cm⁻¹)
eigval :       -0.00    -0.00     0.00     0.00     0.00     0.00
eigval :       10.86    16.55    19.11    20.74    21.48    26.81
eigval :       30.64    37.31    52.99    55.16    63.19    75.01
eigval :       77.57    95.24    99.42   108.09   109.56   115.88
eigval :      132.16   152.27   153.62   165.06   184.29   190.39
eigval :      198.99   207.49   208.21   218.63   234.08   245.06
eigval :      258.81   271.33   276.74   281.37   290.68   303.71
eigval :      313.38   320.32   329.57   335.90   350.01   379.14
eigval :      387.20   390.38   395.13   398.27   403.28   407.64
eigval :      423.95   428.13   429.21   434.22   446.98   462.46
eigval :      467.72   477.96   483.22   497.80   519.24   523.36
eigval :      526.61   528.43   541.52   546.86   556.20   576.23
eigval :      579.85   582.48   588.19   592.02   592.79   605.86
eigval :      612.61   634.66   651.56   652.39   660.76   664.65
eigval :      668.49   673.03   681.56   705.96   708.67   721.23
eigval :      722.88   747.41   757.74   761.97   764.32   770.90
eigval :      772.13   776.45   784.06   794.13   800.02   819.88
eigval :      828.07   842.37   844.14   860.97   862.07   862.55
eigval :      866.83   881.37   885.80   888.91   897.09   898.37
eigval :      903.06   909.17   910.91   912.01   912.75   918.38
eigval :      919.25   920.39   928.45   928.82   943.45   971.35
eigval :      975.36   980.03   994.15  1005.12  1018.07  1025.78
eigval :     1041.41  1063.37  1065.51  1072.29  1075.87  1077.36
eigval :     1083.30  1084.90  1090.35  1093.18  1102.08  1116.40
eigval :     1128.04  1131.78  1132.62  1149.23  1153.64  1158.45
eigval :     1166.20  1171.92  1178.61  1179.00  1181.56  1183.88
eigval :     1186.79  1187.59  1196.90  1201.50  1227.40  1232.13
eigval :     1233.98  1236.89  1242.44  1247.09  1249.78  1262.37
eigval :     1267.33  1274.11  1279.51  1293.82  1300.37  1311.05
eigval :     1319.43  1321.75  1325.41  1327.13  1328.40  1334.14
eigval :     1338.59  1350.27  1355.44  1364.16  1369.49  1374.77
eigval :     1375.14  1388.07  1398.89  1403.51  1417.62  1426.89
eigval :     1432.44  1436.04  1439.91  1441.15  1463.25  1466.43
eigval :     1468.94  1473.79  1476.68  1477.86  1482.17  1489.81
eigval :     1490.56  1498.34  1501.58  1542.97  1551.91  1558.33
eigval :     1565.12  1568.99  1574.42  1590.37  1594.81  1598.81
eigval :     1616.74  2909.94  2940.45  2972.88  2976.25  2984.47
eigval :     2995.92  2999.08  3013.94  3068.77  3072.83  3076.51
eigval :     3077.50  3080.00  3081.05  3084.82  3088.63  3088.84
eigval :     3089.73  3091.07  3093.76  3096.89  3099.25  3099.43
eigval :     3102.52  3104.18  3104.87  3107.01  3109.94  3116.29
eigval :     3122.98  3123.99  3133.22

   temp. (K)  partition function   enthalpy   heat capacity  entropy
                                   cal/mol     cal/K/mol   cal/K/mol   J/K/mol
 298.15  VIB  0.893E+19            24395.725    153.413    150.917
         ROT  0.697E+08              888.752      2.981     38.870
         INT  0.622E+27            25284.478    156.394    189.787
         TR   0.170E+29             1481.254      4.968     45.393
         TOT                       26765.7316   161.3619   235.1796   983.9914

       T/K    H(0)-H(T)+PV         H(T)/Eh          T*S/Eh         G(T)/Eh
   ------------------------------------------------------------------------
    298.15    0.426539E-01    0.672276E+00    0.111741E+00    0.560534E+00
   ------------------------------------------------------------------------

         :::::::::::::::::::::::::::::::::::::::::::::::::::::
         ::                  THERMODYNAMIC                  ::
         :::::::::::::::::::::::::::::::::::::::::::::::::::::
         :: total free energy        -137.048501999254 Eh   ::
         ::.................................................::
         :: total energy             -137.609036202808 Eh   ::
         :: zero point energy           0.629621705156 Eh   ::
         :: G(RRHO) w/o ZPVE           -0.069087501602 Eh   ::
         :: G(RRHO) contrib.            0.560534203554 Eh   ::
         :::::::::::::::::::::::::::::::::::::::::::::::::::::

           -------------------------------------------------
          | TOTAL ENERGY             -137.609036202808 Eh   |
          | TOTAL ENTHALPY           -136.936760589276 Eh   |
          | TOTAL FREE ENERGY        -137.048501999254 Eh   |
          | GRADIENT NORM               0.000087631316 Eh/α |
           -------------------------------------------------

 * finished run on 2025/09/13 at 02:37:55.080
