   * xtb version 6.7.1 (edcfbbe) compiled by 'albert@albert-system' on 2024-07-22

   ID    Z sym.   atoms
    1    9 F      1, 3, 4
    2    6 C      2, 5-9, 11-15, 17-20, 22-35, 37-51
    3    7 N      10, 21, 36
    4    8 O      16
    5    1 H      52-83

          program call               : xtb data2507/gas/PICFOCz/PICFOCz_gas_T1_crest.xyz --gfn 2 --spinpol --tblite --uhf 2 --ohess vtight --parallel 40 --molden --ceasefiles --namespace data2507/gas/PICFOCz/PICFOCz_gas_T1_finalOpt
 * total energy  :  -137.6090754 Eh     change        0.1167251E-08 Eh
 * total energy  :  -137.6090852 Eh     change       -0.9799412E-05 Eh
 * total energy  :  -137.6090896 Eh     change       -0.4347562E-05 Eh
 * total energy  :  -137.6090907 Eh     change       -0.1190105E-05 Eh
 * total energy  :  -137.6090927 Eh     change       -0.1990055E-05 Eh
 * total energy  :  -137.6090946 Eh     change       -0.1904978E-05 Eh
 * total energy  :  -137.6090962 Eh     change       -0.1597259E-05 Eh
 * total energy  :  -137.6090974 Eh     change       -0.1189237E-05 Eh
 * total energy  :  -137.6090981 Eh     change       -0.6978167E-06 Eh
 * total energy  :  -137.6090988 Eh     change       -0.7062851E-06 Eh
 * total energy  :  -137.6091010 Eh     change       -0.1002702E-05 Eh
 * total energy  :  -137.6091019 Eh     change       -0.8624176E-06 Eh
 * total energy  :  -137.6091026 Eh     change       -0.7518426E-06 Eh
 * total energy  :  -137.6091033 Eh     change       -0.7118095E-06 Eh
 * total energy  :  -137.6091041 Eh     change       -0.8017440E-06 Eh
 * total energy  :  -137.6091049 Eh     change       -0.7616975E-06 Eh
 * total energy  :  -137.6091054 Eh     change       -0.5404171E-06 Eh
 * total energy  :  -137.6091056 Eh     change       -0.1785550E-06 Eh
 * total energy  :  -137.6091057 Eh     change       -0.7079373E-07 Eh
   *** GEOMETRY OPTIMIZATION CONVERGED AFTER 20 ITERATIONS ***

 final structure:
================
83
 xtb: 6.7.1 (edcfbbe)
F           -0.29134614777851        4.99569006475634       -2.26887642474512
C            0.05593468613849        5.11403985628622       -0.97735666630668
F            1.40179301185206        4.98147778673682       -0.94437564162226
F           -0.19470816387128        6.38651537953074       -0.63260902493919
C           -0.62147263080022        4.11336550310349       -0.09012718390144
C           -0.93345995838353        4.45134618983569        1.22439172722034
C           -1.52001436126783        3.49205873902145        2.04199781982793
C           -1.77662270349868        2.22519428271063        1.56834910092765
C           -1.45428104589577        1.88319798941469        0.24498299404721
N           -1.67866652464316        0.60137748157049       -0.22927115439610
C           -0.73072811482388       -0.21882558609426       -0.90711894526429
C            0.63324742366445        0.01683670435704       -1.13130083783080
C            1.30311122169777       -0.86252454169019       -2.03189547282189
C            2.63563309242821       -0.74185357337946       -2.28125848130358
C            3.40225114018984        0.25571837341733       -1.64557891001998
O            4.72304269816811        0.26671714734952       -1.95714472972447
C            5.62923998823231        0.98796224782915       -1.14805956236866
C            5.71102349392529        0.41920015986650        0.27227236166985
C            6.05343953150862       -1.07238201482924        0.26481696456438
C            5.42832234980557       -1.80670993729334        1.45857497369324
N            3.99612863842693       -1.88658738405527        1.34980376579674
C            3.06998802270812       -1.09421608861689        1.98648905990225
C            3.25369181339218       -0.04933492562693        2.88326924016957
C            2.13190975436085        0.58863830352857        3.37615483749443
C            0.84825347488934        0.19639087662583        3.00466725791351
C            0.65512386972385       -0.84841222847671        2.12343596468885
C            1.76689010691545       -1.49454465752303        1.60160854901436
C            1.93125266216273       -2.57590010415209        0.67375395511364
C            1.04011391348740       -3.36563793160391       -0.03961608880827
C            1.54840400854223       -4.33796871100427       -0.87710727089384
C            2.92198702693602       -4.53052082254609       -1.00332052131278
C            3.82718802292432       -3.75901297656052       -0.30008274762465
C            3.32459387416269       -2.77683507603509        0.54186899864847
C            2.76429178110658        1.12846649986369       -0.75691010755918
C            1.42377905367791        1.00852451886145       -0.49326315220476
N           -1.29128570389760       -1.40412535797568       -1.23590479368248
C           -2.51020350406424       -1.41208799127949       -0.74425239404376
C           -3.44083830052140       -2.49262074919472       -0.74431985756595
C           -3.07974934108911       -3.74330580418292       -1.24763824844504
C           -3.96505454922653       -4.80028770289900       -1.18695182883957
C           -5.21069981734709       -4.60646438060969       -0.60984317278162
C           -5.58004406489974       -3.36580904437950       -0.11858253945973
C           -4.71768663170561       -2.26799831835013       -0.18185896573842
C           -5.09517049553109       -0.93317440753989        0.26953720379072
C           -6.39492729295277       -0.64718105450091        0.67217451219735
C           -6.79140497742583        0.62418157991490        1.05062352702848
C           -5.88018678646836        1.67829691526877        1.00169431984945
C           -4.58654150463567        1.44677998077881        0.62014376149490
C           -4.13994789234223        0.14498609980149        0.27295865020964
C           -2.83343553081059       -0.14865499592514       -0.12752265426700
C           -0.87494740479837        2.84905307648709       -0.58789759716159
H           -0.72508617448084        5.44169125769939        1.59460513185658
H           -1.76324155672806        3.74190590606893        3.06326761654296
H           -2.21810267294277        1.47707833680266        2.20952784419066
H            0.71694830599786       -1.62861041714626       -2.51105173890256
H            3.13890477945589       -1.40994431510777       -2.96230923828904
H            6.59028332990342        0.87892362673125       -1.65790025494109
H            5.36802923845783        2.05291692517814       -1.11921802991201
H            4.74211895550327        0.55445527952597        0.75306920892714
H            6.45295946133289        0.98703623424516        0.83529272115881
H            7.13484960907354       -1.21588997188692        0.27795397896573
H            5.66376328830686       -1.51936446692770       -0.65182643295440
H            5.68184902236253       -1.29529893190469        2.39009210909052
H            5.82835162879237       -2.82479739934685        1.51052893568571
H            4.23903425849258        0.26518052992355        3.19550916514580
H            2.25320394661395        1.40821078720144        4.06926005523464
H           -0.00053826629254        0.71959700488420        3.41897253830396
H           -0.33799056588920       -1.16493610090070        1.84171924753672
H           -0.02317919490614       -3.20904148491944        0.04890232844288
H            0.87520808265962       -4.96205084112052       -1.44557264355492
H            3.28924539327907       -5.30018802922407       -1.66656907964962
H            4.88880876021702       -3.92371939376291       -0.40859116501432
H            3.31317830331912        1.91300829257986       -0.25982450593772
H            0.99484905296344        1.64889503231120        0.25741178267534
H           -2.09451977450309       -3.85286551725567       -1.67341139749087
H           -3.68900973489590       -5.76883508855891       -1.57563299070949
H           -5.90677961719384       -5.42990653859309       -0.54211848831608
H           -6.55842061721699       -3.26859283082881        0.32409189682302
H           -7.13872152775125       -1.42778752481878        0.68023781947239
H           -7.81044822383000        0.80111163045998        1.35872754110320
H           -6.19742623473506        2.67904065571275        1.25486343970312
H           -3.90044190822690        2.27403729032788        0.54602003037869
H           -0.63370559787916        2.60271155754965       -1.61037824909260

 projected vibrational frequencies (cm⁻¹)
eigval :       -0.00    -0.00    -0.00    -0.00     0.00     0.00
eigval :       10.63    16.50    18.10    20.24    20.88    27.67
eigval :       31.60    37.94    53.85    55.23    64.43    74.85
eigval :       76.81    95.31    98.80   108.27   109.40   115.49
eigval :      132.28   152.67   154.06   164.93   184.60   189.58
eigval :      199.16   206.63   208.86   218.41   234.67   244.64
eigval :      259.04   271.33   276.51   281.16   290.55   303.90
eigval :      313.59   318.95   329.07   335.81   350.04   378.66
eigval :      387.43   390.02   394.92   398.09   403.37   407.87
eigval :      424.34   428.12   429.20   434.49   447.00   462.71
eigval :      467.46   477.76   482.65   497.85   519.17   523.38
eigval :      526.61   528.54   541.56   547.29   556.32   576.25
eigval :      579.90   582.15   588.10   592.15   592.86   606.01
eigval :      612.88   634.66   651.33   652.81   661.02   664.90
eigval :      667.98   673.01   681.67   705.98   708.68   721.05
eigval :      723.02   747.65   757.41   761.77   764.17   771.11
eigval :      771.66   776.30   784.34   793.17   799.08   818.90
eigval :      827.28   842.90   844.51   861.93   862.13   863.21
eigval :      866.75   882.13   886.20   889.11   897.43   898.17
eigval :      902.06   909.24   911.06   912.35   912.93   918.17
eigval :      919.31   920.57   927.19   927.94   943.37   971.12
eigval :      975.40   979.97   993.87  1005.04  1017.60  1025.17
eigval :     1040.72  1062.68  1065.48  1072.61  1075.22  1077.47
eigval :     1083.55  1084.94  1090.20  1093.46  1101.86  1116.37
eigval :     1129.24  1132.31  1132.94  1149.56  1154.00  1159.21
eigval :     1166.42  1172.23  1178.90  1179.81  1181.77  1184.71
eigval :     1186.64  1187.67  1196.35  1201.97  1227.89  1231.89
eigval :     1233.80  1236.60  1242.67  1247.20  1249.93  1262.49
eigval :     1267.21  1274.26  1279.42  1294.09  1300.27  1311.59
eigval :     1319.51  1322.08  1325.62  1327.18  1328.66  1334.60
eigval :     1339.37  1350.31  1355.88  1364.21  1370.01  1375.09
eigval :     1375.30  1388.21  1397.24  1403.74  1418.19  1427.14
eigval :     1432.55  1436.14  1440.02  1441.13  1463.50  1466.11
eigval :     1468.74  1473.26  1476.29  1478.15  1482.25  1489.85
eigval :     1490.66  1498.41  1501.70  1543.29  1552.10  1558.52
eigval :     1565.35  1569.56  1574.44  1590.44  1594.53  1599.05
eigval :     1616.31  2909.69  2941.41  2972.58  2976.35  2984.74
eigval :     2996.31  2999.25  3016.18  3069.31  3073.27  3076.48
eigval :     3078.08  3080.22  3081.72  3083.92  3088.10  3088.84
eigval :     3090.22  3091.17  3094.19  3097.39  3098.95  3099.39
eigval :     3102.51  3103.62  3105.20  3106.58  3109.96  3116.76
eigval :     3122.89  3124.87  3137.14

   temp. (K)  partition function   enthalpy   heat capacity  entropy
                                   cal/mol     cal/K/mol   cal/K/mol   J/K/mol
 298.15  VIB  0.928E+19            24396.530    153.466    151.015
         ROT  0.696E+08              888.752      2.981     38.866
         INT  0.645E+27            25285.283    156.447    189.881
         TR   0.170E+29             1481.254      4.968     45.393
         TOT                       26766.5365   161.4154   235.2735   984.3842

       T/K    H(0)-H(T)+PV         H(T)/Eh          T*S/Eh         G(T)/Eh
   ------------------------------------------------------------------------
    298.15    0.426552E-01    0.672311E+00    0.111786E+00    0.560525E+00
   ------------------------------------------------------------------------

         :::::::::::::::::::::::::::::::::::::::::::::::::::::
         ::                  THERMODYNAMIC                  ::
         :::::::::::::::::::::::::::::::::::::::::::::::::::::
         :: total free energy        -137.048580896014 Eh   ::
         ::.................................................::
         :: total energy             -137.609105705778 Eh   ::
         :: zero point energy           0.629655641166 Eh   ::
         :: G(RRHO) w/o ZPVE           -0.069130831402 Eh   ::
         :: G(RRHO) contrib.            0.560524809764 Eh   ::
         :::::::::::::::::::::::::::::::::::::::::::::::::::::

           -------------------------------------------------
          | TOTAL ENERGY             -137.609105705778 Eh   |
          | TOTAL ENTHALPY           -136.936794873559 Eh   |
          | TOTAL FREE ENERGY        -137.048580896014 Eh   |
          | GRADIENT NORM               0.000077472065 Eh/α |
           -------------------------------------------------

 * finished run on 2025/09/13 at 02:57:35.270
