   * xtb version 6.7.1 (edcfbbe) compiled by 'albert@albert-system' on 2024-07-22

   ID    Z sym.   atoms
    1    9 F      1, 3, 4
    2    6 C      2, 5-9, 11-15, 17-20, 22-35, 37-51
    3    7 N      10, 21, 36
    4    8 O      16
    5    1 H      52-83

          program call               : xtb data2507/gas/PICFOCz/PICFOCz_gas_S0_crest.xyz --gfn 2 --ohess vtight --parallel 40 --molden --ceasefiles --namespace data2507/gas/PICFOCz/PICFOCz_gas_S0_finalOpt
          :  Hamiltonian                  GFN2-xTB          :
 * total energy  :  -137.6945499 Eh     change       -0.2986098E-08 Eh
 * total energy  :  -137.6945506 Eh     change       -0.7164231E-06 Eh
 * total energy  :  -137.6945524 Eh     change       -0.1798817E-05 Eh
 * total energy  :  -137.6945552 Eh     change       -0.2746495E-05 Eh
 * total energy  :  -137.6945574 Eh     change       -0.2273669E-05 Eh
 * total energy  :  -137.6945585 Eh     change       -0.1069978E-05 Eh
 * total energy  :  -137.6945592 Eh     change       -0.6779386E-06 Eh
 * total energy  :  -137.6945600 Eh     change       -0.8720201E-06 Eh
 * total energy  :  -137.6945611 Eh     change       -0.1088213E-05 Eh
 * total energy  :  -137.6945622 Eh     change       -0.1043420E-05 Eh
 * total energy  :  -137.6945633 Eh     change       -0.2335463E-06 Eh
 * total energy  :  -137.6945636 Eh     change       -0.3428608E-06 Eh
 * total energy  :  -137.6945639 Eh     change       -0.3131458E-06 Eh
 * total energy  :  -137.6945642 Eh     change       -0.2448872E-06 Eh
 * total energy  :  -137.6945644 Eh     change       -0.2692223E-06 Eh
 * total energy  :  -137.6945647 Eh     change       -0.2882038E-06 Eh
 * total energy  :  -137.6945650 Eh     change       -0.2668675E-06 Eh
 * total energy  :  -137.6945652 Eh     change       -0.2370809E-06 Eh
 * total energy  :  -137.6945652 Eh     change       -0.7671190E-08 Eh
   *** GEOMETRY OPTIMIZATION CONVERGED AFTER 22 ITERATIONS ***

 final structure:
================
83
 xtb: 6.7.1 (edcfbbe)
F           -0.94347576139172        4.92193856069285       -2.31545387390051
C           -0.59165302968786        5.14784533283663       -1.04296493286683
F            0.75060409220296        5.28275515261047       -1.04059728022764
F           -1.08495867458843        6.35305666676967       -0.71699350527563
C           -1.03976579910514        4.06357935708935       -0.10454120071229
C           -1.21311581576985        4.35709185864755        1.24201346329700
C           -1.58249870085017        3.34691891501305        2.11463376839929
C           -1.76501383016867        2.05729718356799        1.65251374688619
C           -1.58814041060253        1.76895764374228        0.30034968952289
N           -1.73258320289472        0.45545018000470       -0.16412079123566
C           -0.72992491606282       -0.31138001324247       -0.73119968152130
C            0.63939608257945        0.11157086820461       -0.95711303518450
C            1.34936443590106       -0.50729925976761       -1.99048152940332
C            2.67153933011533       -0.20867016614298       -2.21316074807336
C            3.33459784128650        0.72624145593913       -1.41392237200520
O            4.64335205850246        0.93830276296985       -1.71780438742616
C            5.46923420705943        1.63748399556501       -0.80877860024494
C            5.66539092697703        0.87665239064482        0.50592550043198
C            6.21289466065294       -0.53229206499726        0.26616302159832
C            5.72264483989717       -1.52326747532118        1.33029637522158
N            4.31146993760443       -1.77643785927342        1.21262605007790
C            3.30136045002650       -1.21692451592388        1.95883975230002
C            3.36309479127755       -0.33025892062229        3.02647961424291
C            2.17552974032646        0.07859085866003        3.60194806145251
C            0.94536556912322       -0.38680144584770        3.14328986818072
C            0.87342621560367       -1.27660563436437        2.09051479435084
C            2.05246073416439       -1.68985384467222        1.48627911051452
C            2.33827555427709       -2.56361459868733        0.38651068803172
C            1.53946484015101       -3.30078183411709       -0.47728238255977
C            2.15387377329398       -4.04659982349978       -1.46244722522223
C            3.54103889077712       -4.06616452519891       -1.58883371617634
C            4.35436777912908       -3.33804557399885       -0.74191448820266
C            3.74477388803477       -2.58141366533729        0.24906921881235
C            2.62827860295162        1.35820737428127       -0.39567175901221
C            1.30397695729231        1.04064767256243       -0.16300716659554
N           -1.14919201822804       -1.51743265657206       -1.01627378364258
C           -2.45035902575414       -1.57499796414972       -0.63148359213908
C           -3.32610518432153       -2.69430002235772       -0.69122659869329
C           -2.89380928521749       -3.92749609306997       -1.19036327181257
C           -3.74295298270034       -5.00537110541089       -1.20220186491922
C           -5.03810216722320       -4.86137673759347       -0.70823861642903
C           -5.47564591790814       -3.65153036159425       -0.22228859366971
C           -4.64154576962943       -2.52296554978872       -0.20328708126713
C           -5.08430964525253       -1.22056657453282        0.26322478183739
C           -6.40868459718364       -0.99738220094587        0.66591400841551
C           -6.85383737037998        0.24252364891658        1.05814328318259
C           -5.98749135372315        1.33096987587907        1.04457694597151
C           -4.67958526355902        1.15380340059205        0.66693952625835
C           -4.19576045896006       -0.10954489701038        0.29640099345434
C           -2.85109279510481       -0.35212181391901       -0.10064298647026
C           -1.22618413994982        2.77753673003353       -0.58638568462916
H           -1.06358514905359        5.36459494844610        1.59720499492462
H           -1.72010074437179        3.56687714148753        3.16168669111677
H           -2.04558571567272        1.26301796985784        2.32775606256005
H            0.84207291740161       -1.23681632745585       -2.60047526902112
H            3.22570756172065       -0.69501915929149       -3.00009809737920
H            6.42264510574226        1.73501455743838       -1.33523178510774
H            5.07531624632294        2.64325516637604       -0.61542532730381
H            4.70082194453855        0.79695355787019        1.00726539483468
H            6.33534136272023        1.45156467265544        1.14703957776006
H            7.30381850319393       -0.52146983296034        0.25548613666112
H            5.86755155751763       -0.88104601559008       -0.70904214514586
H            5.92819666839668       -1.13523036689398        2.33066905285111
H            6.25582581672328       -2.47332740716719        1.21855960636388
H            4.30568735773461        0.03659423201600        3.40671766346925
H            2.20273680574214        0.77185593202559        4.43035504060033
H            0.04139493460288       -0.04860037112140        3.62925792765349
H           -0.07577325903129       -1.65022345730320        1.73701119633606
H            0.46537275525533       -3.26550760601074       -0.38888048802731
H            1.55523070139598       -4.62524888972323       -2.15018426521576
H            3.99255201519005       -4.66167364706006       -2.36926757530158
H            5.42790429464130       -3.36430558234223       -0.85587768058026
H            3.09323954642435        2.10079514121538        0.23320610216565
H            0.81239019351756        1.50384106284621        0.67780150544224
H           -1.88124058229053       -3.99875886172370       -1.55616931843035
H           -3.41394792023797       -5.96005828981416       -1.58495490363039
H           -5.70753686700625       -5.70945936065501       -0.70763404540764
H           -6.48527743132090       -3.58961857737572        0.15156968684641
H           -7.11420770305041       -1.81227655306125        0.66149693657356
H           -7.88187188654630        0.37544951309782        1.36092392934606
H           -6.34217029948619        2.31214044931522        1.32329625362376
H           -4.02025447720179        2.00682321370412        0.63457894779258
H           -1.08532685681401        2.55355584413786       -1.63258197469779

          :  Hamiltonian                  GFN2-xTB          :
         :: gradient norm              0.000050694170 Eh/a0 ::
         :: HOMO-LUMO gap              2.228575635789 eV    ::
         :: SCC energy              -139.892298192083 Eh    ::
         :: -> dispersion             -0.129465048222 Eh    ::
         :: repulsion energy           2.197732948338 Eh    ::

    * Orbital Energies and Occupations

         #    Occupation            Energy/Eh            Energy/eV
      -------------------------------------------------------------
         1        2.0000           -0.8804484             -23.9582
       ...           ...                  ...                  ...
       113        2.0000           -0.4152321             -11.2990
       114        2.0000           -0.4136211             -11.2552
       115        2.0000           -0.4109941             -11.1837
       116        2.0000           -0.4093303             -11.1384
       117        2.0000           -0.4086814             -11.1208
       118        2.0000           -0.4020632             -10.9407
       119        2.0000           -0.3978668             -10.8265
       120        2.0000           -0.3878790             -10.5547
       121        2.0000           -0.3830018             -10.4220
       122        2.0000           -0.3792459             -10.3198
       123        2.0000           -0.3709072             -10.0929
       124        2.0000           -0.3628642              -9.8740
       125        2.0000           -0.3573795              -9.7248 (HOMO)
       126                         -0.2754808              -7.4962 (LUMO)
       127                         -0.2697814              -7.3411
       128                         -0.2554983              -6.9525
       129                         -0.2492486              -6.7824
       130                         -0.2393986              -6.5144
       131                         -0.2382644              -6.4835
       132                         -0.2272837              -6.1847
       133                         -0.2146422              -5.8407
       134                         -0.2084418              -5.6720
       135                         -0.1902358              -5.1766
       136                         -0.1878048              -5.1104
       ...                                ...                  ...
       236                          0.7549882              20.5443
      -------------------------------------------------------------
                  HL-Gap            0.0818987 Eh            2.2286 eV

     #   Z          covCN         q      C6AA      α(0)
     1   9 F        0.791    -0.204    11.273     3.966
     2   6 C        3.337     0.486    17.272     6.580
     3   9 F        0.791    -0.210    11.344     3.979
     4   9 F        0.791    -0.206    11.292     3.969
     5   6 C        2.977    -0.022    28.542     8.763
     6   6 C        2.920    -0.026    28.657     8.779
     7   6 C        2.920    -0.022    28.549     8.762
     8   6 C        2.921    -0.029    28.735     8.791
     9   6 C        2.913     0.081    26.203     8.394
    10   7 N        2.842    -0.045    22.111     6.984
    11   6 C        3.174     0.132    24.762     8.127
    12   6 C        2.973    -0.009    28.242     8.717
    13   6 C        2.929    -0.025    28.623     8.774
    14   6 C        2.919    -0.051    29.266     8.871
    15   6 C        2.861     0.150    24.736     8.152
    16   8 O        1.705    -0.271    18.495     5.806
    17   6 C        3.691     0.076    19.482     6.316
    18   6 C        3.800    -0.070    21.840     6.654
    19   6 C        3.802    -0.065    21.752     6.640
    20   6 C        3.740     0.001    20.633     6.481
    21   7 N        2.796    -0.054    22.273     7.009
    22   6 C        3.078     0.044    26.931     8.508
    23   6 C        2.910    -0.056    29.392     8.890
    24   6 C        2.923    -0.037    28.928     8.820
    25   6 C        2.920    -0.045    29.119     8.849
    26   6 C        2.912    -0.032    28.799     8.800
    27   6 C        3.073    -0.019    28.393     8.737
    28   6 C        3.070    -0.019    28.410     8.740
    29   6 C        2.912    -0.032    28.802     8.800
    30   6 C        2.921    -0.040    29.006     8.832
    31   6 C        2.924    -0.034    28.853     8.809
    32   6 C        2.910    -0.054    29.332     8.881
    33   6 C        3.085     0.044    26.919     8.505
    34   6 C        2.917    -0.064    29.580     8.919
    35   6 C        2.923    -0.035    28.877     8.812
    36   7 N        1.898    -0.285    28.230     7.877
    37   6 C        3.199     0.058    26.160     8.336
    38   6 C        2.986     0.003    27.953     8.673
    39   6 C        2.922    -0.030    28.761     8.795
    40   6 C        2.917    -0.030    28.739     8.791
    41   6 C        2.918    -0.032    28.800     8.800
    42   6 C        2.922    -0.034    28.856     8.809
    43   6 C        2.979    -0.001    28.046     8.687
    44   6 C        2.980     0.003    27.961     8.674
    45   6 C        2.922    -0.033    28.826     8.805
    46   6 C        2.916    -0.033    28.819     8.803
    47   6 C        2.917    -0.031    28.782     8.798
    48   6 C        2.919    -0.041    29.017     8.834
    49   6 C        2.978    -0.002    28.076     8.692
    50   6 C        3.065     0.018    27.537     8.605
    51   6 C        2.923    -0.034    28.842     8.807
    52   1 H        0.926     0.063     2.160     2.298
    53   1 H        0.926     0.059     2.211     2.325
    54   1 H        0.926     0.062     2.178     2.308
    55   1 H        0.926     0.062     2.177     2.307
    56   1 H        0.926     0.053     2.283     2.363
    57   1 H        0.924     0.054     2.275     2.359
    58   1 H        0.924     0.032     2.561     2.502
    59   1 H        0.925     0.053     2.286     2.364
    60   1 H        0.924     0.036     2.509     2.477
    61   1 H        0.924     0.038     2.475     2.460
    62   1 H        0.924     0.060     2.201     2.320
    63   1 H        0.924     0.048     2.343     2.394
    64   1 H        0.924     0.047     2.364     2.404
    65   1 H        0.926     0.020     2.736     2.586
    66   1 H        0.926     0.024     2.679     2.559
    67   1 H        0.926     0.017     2.778     2.607
    68   1 H        0.926     0.026     2.637     2.539
    69   1 H        0.926     0.050     2.321     2.383
    70   1 H        0.926     0.028     2.612     2.527
    71   1 H        0.926     0.027     2.632     2.537
    72   1 H        0.926     0.022     2.699     2.569
    73   1 H        0.926     0.036     2.497     2.471
    74   1 H        0.926     0.026     2.649     2.545
    75   1 H        0.926     0.051     2.312     2.378
    76   1 H        0.926     0.032     2.563     2.504
    77   1 H        0.926     0.029     2.597     2.520
    78   1 H        0.926     0.031     2.566     2.505
    79   1 H        0.926     0.036     2.504     2.474
    80   1 H        0.926     0.030     2.582     2.513
    81   1 H        0.926     0.028     2.614     2.528
    82   1 H        0.926     0.021     2.722     2.580
    83   1 H        0.926     0.066     2.126     2.280

molecular dipole:
                 x           y           z       tot (Debye)
 q only:        0.779      -0.458       1.223
   full:        0.701       0.106       1.553       4.338

 projected vibrational frequencies (cm⁻¹)
eigval :       -0.00    -0.00     0.00     0.00     0.00     0.00
eigval :       10.45    13.84    16.70    18.48    20.32    27.30
eigval :       32.40    36.31    52.41    56.17    63.69    73.36
eigval :       77.84    90.94    95.24   110.00   112.19   118.16
eigval :      124.91   152.98   153.96   157.72   186.58   188.62
eigval :      194.82   208.03   214.43   224.05   231.69   246.22
eigval :      263.27   271.50   276.86   281.04   298.84   301.13
eigval :      312.63   325.42   335.22   345.70   374.94   382.50
eigval :      389.93   397.03   401.19   402.31   416.52   423.82
eigval :      428.99   429.35   437.26   442.39   454.79   475.60
eigval :      476.91   492.99   506.86   519.74   521.45   529.10
eigval :      531.23   535.58   542.50   551.49   556.45   580.05
eigval :      583.99   592.31   595.91   598.95   606.90   622.27
eigval :      642.66   643.57   661.91   667.76   673.33   677.45
eigval :      681.47   689.81   694.49   708.87   710.75   721.70
eigval :      734.64   758.69   764.62   765.86   767.52   778.19
eigval :      782.18   782.78   801.52   804.59   814.58   834.12
eigval :      846.02   862.55   863.18   863.81   866.81   875.31
eigval :      880.51   886.54   898.65   901.91   903.63   907.85
eigval :      910.40   914.82   918.78   919.97   920.63   924.19
eigval :      927.62   930.26   930.42   939.45   960.61   975.57
eigval :      989.02  1005.00  1012.88  1025.50  1029.84  1032.20
eigval :     1066.04  1067.04  1071.77  1072.41  1077.53  1084.61
eigval :     1085.66  1088.76  1099.38  1108.75  1117.73  1125.10
eigval :     1132.21  1139.17  1151.58  1155.45  1159.14  1169.74
eigval :     1172.17  1182.12  1183.02  1184.10  1185.91  1186.76
eigval :     1198.15  1204.00  1204.43  1231.02  1234.68  1237.07
eigval :     1245.02  1248.94  1255.42  1260.24  1263.68  1269.55
eigval :     1279.92  1283.86  1301.87  1305.79  1314.07  1318.03
eigval :     1323.70  1327.67  1328.30  1331.44  1339.19  1342.28
eigval :     1348.42  1352.25  1365.44  1371.99  1372.89  1378.29
eigval :     1408.97  1412.49  1415.69  1428.26  1430.51  1435.50
eigval :     1441.46  1442.89  1464.75  1466.06  1470.97  1476.95
eigval :     1477.53  1478.88  1485.62  1491.24  1511.93  1515.21
eigval :     1541.75  1560.03  1567.11  1574.47  1575.89  1576.79
eigval :     1591.01  1591.36  1594.76  1601.50  1603.09  1605.20
eigval :     1619.66  2904.02  2940.35  2970.80  2976.29  2983.15
eigval :     2994.82  2998.88  3016.99  3065.55  3070.01  3070.99
eigval :     3073.87  3077.65  3079.94  3082.63  3085.25  3087.75
eigval :     3088.89  3091.61  3095.33  3097.33  3098.25  3103.44
eigval :     3103.86  3105.76  3106.29  3108.67  3110.01  3110.67
eigval :     3111.76  3112.25  3118.51

   temp. (K)  partition function   enthalpy   heat capacity  entropy
                                   cal/mol     cal/K/mol   cal/K/mol   J/K/mol
 298.15  VIB  0.116E+20            24127.341    151.334    150.013
         ROT  0.719E+08              888.752      2.981     38.931
         INT  0.835E+27            25016.093    154.315    188.944
         TR   0.170E+29             1481.254      4.968     45.393
         TOT                       26497.3468   159.2833   234.3368   980.4653

       T/K    H(0)-H(T)+PV         H(T)/Eh          T*S/Eh         G(T)/Eh
   ------------------------------------------------------------------------
    298.15    0.422262E-01    0.676269E+00    0.111341E+00    0.564928E+00
   ------------------------------------------------------------------------

         :::::::::::::::::::::::::::::::::::::::::::::::::::::
         ::                  THERMODYNAMIC                  ::
         :::::::::::::::::::::::::::::::::::::::::::::::::::::
         :: total free energy        -137.129637472113 Eh   ::
         ::.................................................::
         :: total energy             -137.694565243745 Eh   ::
         :: zero point energy           0.634042546862 Eh   ::
         :: G(RRHO) w/o ZPVE           -0.069114775231 Eh   ::
         :: G(RRHO) contrib.            0.564927771632 Eh   ::
         :::::::::::::::::::::::::::::::::::::::::::::::::::::

           -------------------------------------------------
          | TOTAL ENERGY             -137.694565243745 Eh   |
          | TOTAL ENTHALPY           -137.018296486951 Eh   |
          | TOTAL FREE ENERGY        -137.129637472113 Eh   |
          | GRADIENT NORM               0.000050697941 Eh/α |
          | HOMO-LUMO GAP               2.228576510894 eV   |
           -------------------------------------------------

 * finished run on 2025/09/13 at 02:37:42.203
