   * xtb version 6.7.1 (edcfbbe) compiled by 'albert@albert-system' on 2024-07-22

   ID    Z sym.   atoms
    1    9 F      1, 3, 4
    2    6 C      2, 5-9, 11-15, 17-20, 22-35, 37-51
    3    7 N      10, 21, 36
    4    8 O      16
    5    1 H      52-83

          program call               : xtb data2507/gas/PICFOCz/PICFOCz.xyz --gfn 2 --ohess vtight --parallel 40 --molden --ceasefiles --namespace data2507/gas/PICFOCz/PICFOCz_gas_S0_preOpt
          :  Hamiltonian                  GFN2-xTB          :
 * total energy  :  -137.6596722 Eh     change       -0.2146066E-08 Eh
 * total energy  :  -137.6739220 Eh     change       -0.1424983E-01 Eh
 * total energy  :  -137.6772760 Eh     change       -0.3353948E-02 Eh
 * total energy  :  -137.6779079 Eh     change       -0.6318739E-03 Eh
 * total energy  :  -137.6783129 Eh     change       -0.4050495E-03 Eh
 * total energy  :  -137.6785234 Eh     change       -0.2104815E-03 Eh
 * total energy  :  -137.6787400 Eh     change       -0.2165988E-03 Eh
 * total energy  :  -137.6789408 Eh     change       -0.2007766E-03 Eh
 * total energy  :  -137.6791414 Eh     change       -0.2006114E-03 Eh
 * total energy  :  -137.6793297 Eh     change       -0.1883592E-03 Eh
 * total energy  :  -137.6839259 Eh     change       -0.5378200E-06 Eh
 * total energy  :  -137.6839263 Eh     change       -0.3772397E-06 Eh
 * total energy  :  -137.6839266 Eh     change       -0.3004851E-06 Eh
 * total energy  :  -137.6839268 Eh     change       -0.2688342E-06 Eh
 * total energy  :  -137.6839271 Eh     change       -0.2641422E-06 Eh
 * total energy  :  -137.6839274 Eh     change       -0.2890318E-06 Eh
 * total energy  :  -137.6839277 Eh     change       -0.2832786E-06 Eh
 * total energy  :  -137.6839280 Eh     change       -0.2778245E-06 Eh
 * total energy  :  -137.6839280 Eh     change       -0.3551690E-08 Eh
   *** GEOMETRY OPTIMIZATION CONVERGED AFTER 340 ITERATIONS ***

 final structure:
================
83
 xtb: 6.7.1 (edcfbbe)
F           -3.79943934070097       -2.61492488075430        4.21323476465614
C           -4.50425755145196       -3.36189563789415        3.34893694494300
F           -4.39150418520859       -4.63220614215250        3.76178227001542
F           -5.79595403864819       -3.02140937898382        3.52523573042153
C           -4.06526388351828       -3.16541997111803        1.92509104590442
C           -4.06129233394831       -4.23529710099762        1.03939379486824
C           -3.68082701795130       -4.02390654882710       -0.27498993711539
C           -3.31879469405708       -2.76093408289431       -0.70559622451489
C           -3.33093568824000       -1.69051944172992        0.18494741088165
N           -2.92865196602609       -0.42071358496464       -0.24674542590288
C           -1.69657012346337       -0.14205248338090       -0.80671251547609
C           -0.64031571294604       -1.11961380415878       -1.01542163139786
C            0.11650741476116       -1.04854429237907       -2.18618373848376
C            1.17224229720083       -1.90663960658274       -2.38978164441840
C            1.51790867411925       -2.85166295239367       -1.42025207315637
O            2.57806578935113       -3.65121646623837       -1.71101797668739
C            3.41185419354386       -4.13213058674734       -0.67154613430499
C            4.83580478044667       -3.60521933795758       -0.87824045866452
C            4.90826911850206       -2.07862848935556       -0.89972799523563
C            4.58858614933148       -1.42763500777896        0.45239288919247
N            4.77110109497809       -0.00391730121675        0.39844008513989
C            5.97326426616344        0.65005000439773        0.53095169641209
C            7.22897605463061        0.14360512871418        0.83618384827546
C            8.28190875240998        1.03377727501815        0.92660394414292
C            8.09999778955304        2.39885313253514        0.71764566873531
C            6.85462931887389        2.91001780194979        0.41107069732502
C            5.78045677411817        2.03586702969988        0.31449516170104
C            4.38719564977894        2.20833069870885        0.01559089132775
C            3.60226885400219        3.31329593245337       -0.28791864088260
C            2.25817751172286        3.12191841162289       -0.53847777233319
C            1.69036327123156        1.85034712587608       -0.48812890624857
C            2.45232921035895        0.73835777902623       -0.18356994462078
C            3.80472851757067        0.91989251605931        0.06723202833332
C            0.75390569974514       -2.93589517342860       -0.25867716850636
C           -0.31016095799931       -2.07603853870766       -0.06027416834378
N           -1.56143360362884        1.12569116687855       -1.08655443302976
C           -2.72055797422022        1.72562096701651       -0.70250419799453
C           -3.03661080667884        3.11124812667821       -0.74957259897007
C           -2.11452114372575        4.04908900546337       -1.22588919994399
C           -2.42364515134650        5.38604513040362       -1.22022408044124
C           -3.66182933684787        5.80016168474957       -0.73270040025247
C           -4.57797865078868        4.88537324034166       -0.26874764319694
C           -4.30388467884622        3.50894048247270       -0.26657591368294
C           -5.26156090431711        2.51255394030931        0.18100448098597
C           -6.55856692766827        2.86801498442582        0.57800288717062
C           -7.48930244641856        1.93007408499661        0.95684367580609
C           -7.16710155368347        0.57695904135583        0.93158099679909
C           -5.90560022508135        0.18681775079323        0.55601838269743
C           -4.92882209428192        1.12946451547808        0.20375317056327
C           -3.60352264918973        0.78323113993191       -0.18346828912319
C           -3.70012427327399       -1.89376487353758        1.51170815994128
H           -4.34806783406704       -5.21782879520003        1.37934026301332
H           -3.67296883073034       -4.84929735468597       -0.96920131748460
H           -3.02551459545212       -2.59272880675424       -1.73061907515426
H           -0.12893740331186       -0.29806015352286       -2.92054627584880
H            1.76277397306906       -1.85723556582854       -3.29099075798650
H            3.04289655508775       -3.82652189348398        0.31017007338907
H            3.41249142898620       -5.22756764437610       -0.71738333183776
H            5.20481347506958       -3.98399035436958       -1.83240182490157
H            5.46910022419809       -4.00294667436427       -0.08289075714454
H            4.21539456138918       -1.69317666425469       -1.65012455817115
H            5.91600806808952       -1.77751759264074       -1.19397263577756
H            5.24395271694466       -1.83809997593238        1.22774153402079
H            3.55286941293617       -1.62418038175413        0.74014771145714
H            7.38866376001653       -0.91218472443553        0.99878998886361
H            9.26866188620748        0.66268809644190        1.16287524381019
H            8.94875865598671        3.06197586551008        0.79676925729111
H            6.71428735333571        3.96814940990560        0.24829292586616
H            4.04071566262521        4.29949711211773       -0.32675162379712
H            1.63187186544870        3.96912833444194       -0.77630215515704
H            0.63720311837667        1.72601494320749       -0.69373336047864
H            1.99599952202215       -0.23888260806211       -0.14858544475271
H            0.97687803950935       -3.67184140826554        0.49958237626833
H           -0.86525349338154       -2.13858676836318        0.86418063599932
H           -1.16369869890067        3.68677699921038       -1.58457517380784
H           -1.71526302747834        6.11558300823471       -1.58373093610184
H           -3.90588998527139        6.85257001590210       -0.71839477808986
H           -5.52092749247006        5.25406558805823        0.10240263557592
H           -6.85183509296406        3.90521151321165        0.58127034817329
H           -8.47773772375420        2.24291775067986        1.25874693705794
H           -7.90408986153337       -0.16422938322649        1.20176982317088
H           -5.67219959731132       -0.86538895109510        0.51198885374630
H           -3.70047491037106       -1.06772634919705        2.20749588541749

          :  Hamiltonian                  GFN2-xTB          :
         :: gradient norm              0.000040208585 Eh/a0 ::
         :: HOMO-LUMO gap              2.042004625972 eV    ::
         :: SCC energy              -139.880129786547 Eh    ::
         :: -> dispersion             -0.117899754361 Eh    ::
         :: repulsion energy           2.196201824194 Eh    ::

    * Orbital Energies and Occupations

         #    Occupation            Energy/Eh            Energy/eV
      -------------------------------------------------------------
         1        2.0000           -0.8835018             -24.0413
       ...           ...                  ...                  ...
       113        2.0000           -0.4188941             -11.3987
       114        2.0000           -0.4120548             -11.2126
       115        2.0000           -0.4113354             -11.1930
       116        2.0000           -0.4098241             -11.1519
       117        2.0000           -0.4073649             -11.0850
       118        2.0000           -0.4040514             -10.9948
       119        2.0000           -0.3950317             -10.7494
       120        2.0000           -0.3944374             -10.7332
       121        2.0000           -0.3857431             -10.4966
       122        2.0000           -0.3836449             -10.4395
       123        2.0000           -0.3685119             -10.0277
       124        2.0000           -0.3675002             -10.0002
       125        2.0000           -0.3538603              -9.6290 (HOMO)
       126                         -0.2788181              -7.5870 (LUMO)
       127                         -0.2740833              -7.4582
       128                         -0.2582529              -7.0274
       129                         -0.2505692              -6.8183
       130                         -0.2435355              -6.6269
       131                         -0.2389125              -6.5011
       132                         -0.2343560              -6.3772
       133                         -0.2133479              -5.8055
       134                         -0.2114793              -5.7546
       135                         -0.1915645              -5.2127
       136                         -0.1844056              -5.0179
       ...                                ...                  ...
       236                          0.7573585              20.6088
      -------------------------------------------------------------
                  HL-Gap            0.0750423 Eh            2.0420 eV

     #   Z          covCN         q      C6AA      α(0)
     1   9 F        0.791    -0.206    11.296     3.970
     2   6 C        3.337     0.487    17.266     6.579
     3   9 F        0.791    -0.205    11.284     3.968
     4   9 F        0.791    -0.208    11.319     3.974
     5   6 C        2.977    -0.023    28.569     8.768
     6   6 C        2.919    -0.027    28.667     8.780
     7   6 C        2.921    -0.021    28.527     8.759
     8   6 C        2.922    -0.033    28.822     8.804
     9   6 C        2.913     0.079    26.242     8.400
    10   7 N        2.842    -0.045    22.104     6.983
    11   6 C        3.186     0.129    24.747     8.117
    12   6 C        2.974    -0.008    28.205     8.711
    13   6 C        2.926    -0.025    28.627     8.774
    14   6 C        2.919    -0.050    29.239     8.867
    15   6 C        2.859     0.148    24.779     8.159
    16   8 O        1.705    -0.276    18.578     5.819
    17   6 C        3.689     0.078    19.459     6.314
    18   6 C        3.800    -0.067    21.788     6.646
    19   6 C        3.802    -0.062    21.686     6.630
    20   6 C        3.739     0.003    20.602     6.476
    21   7 N        2.797    -0.056    22.328     7.018
    22   6 C        3.080     0.043    26.942     8.510
    23   6 C        2.910    -0.055    29.356     8.884
    24   6 C        2.923    -0.035    28.881     8.813
    25   6 C        2.920    -0.043    29.074     8.842
    26   6 C        2.912    -0.033    28.831     8.805
    27   6 C        3.069    -0.019    28.403     8.739
    28   6 C        3.070    -0.020    28.434     8.743
    29   6 C        2.912    -0.034    28.846     8.807
    30   6 C        2.920    -0.041    29.010     8.832
    31   6 C        2.922    -0.039    28.965     8.826
    32   6 C        2.910    -0.053    29.327     8.880
    33   6 C        3.079     0.043    26.946     8.510
    34   6 C        2.917    -0.064    29.596     8.921
    35   6 C        2.922    -0.035    28.868     8.811
    36   7 N        1.895    -0.284    28.208     7.874
    37   6 C        3.206     0.059    26.106     8.321
    38   6 C        2.986     0.003    27.942     8.671
    39   6 C        2.921    -0.030    28.754     8.794
    40   6 C        2.917    -0.029    28.726     8.789
    41   6 C        2.918    -0.032    28.787     8.798
    42   6 C        2.922    -0.034    28.850     8.808
    43   6 C        2.979    -0.000    28.032     8.685
    44   6 C        2.980     0.003    27.947     8.672
    45   6 C        2.922    -0.033    28.817     8.803
    46   6 C        2.917    -0.032    28.788     8.798
    47   6 C        2.917    -0.030    28.751     8.793
    48   6 C        2.919    -0.040    28.995     8.830
    49   6 C        2.978    -0.002    28.076     8.692
    50   6 C        3.068     0.018    27.528     8.603
    51   6 C        2.923    -0.032    28.804     8.801
    52   1 H        0.926     0.065     2.137     2.286
    53   1 H        0.926     0.059     2.206     2.323
    54   1 H        0.926     0.058     2.222     2.331
    55   1 H        0.926     0.058     2.223     2.332
    56   1 H        0.926     0.054     2.266     2.354
    57   1 H        0.924     0.033     2.540     2.492
    58   1 H        0.924     0.041     2.439     2.442
    59   1 H        0.924     0.055     2.257     2.349
    60   1 H        0.924     0.040     2.449     2.447
    61   1 H        0.924     0.051     2.302     2.373
    62   1 H        0.924     0.045     2.388     2.416
    63   1 H        0.924     0.044     2.392     2.418
    64   1 H        0.924     0.044     2.402     2.424
    65   1 H        0.926     0.020     2.738     2.588
    66   1 H        0.926     0.025     2.661     2.551
    67   1 H        0.926     0.025     2.664     2.552
    68   1 H        0.926     0.029     2.604     2.524
    69   1 H        0.926     0.028     2.619     2.531
    70   1 H        0.926     0.026     2.637     2.540
    71   1 H        0.926     0.051     2.312     2.378
    72   1 H        0.926     0.015     2.817     2.624
    73   1 H        0.926     0.034     2.532     2.488
    74   1 H        0.926     0.028     2.618     2.530
    75   1 H        0.926     0.053     2.288     2.365
    76   1 H        0.926     0.032     2.553     2.499
    77   1 H        0.926     0.030     2.583     2.513
    78   1 H        0.926     0.032     2.552     2.498
    79   1 H        0.926     0.037     2.491     2.468
    80   1 H        0.926     0.032     2.556     2.500
    81   1 H        0.926     0.032     2.557     2.500
    82   1 H        0.926     0.021     2.719     2.579
    83   1 H        0.926     0.068     2.105     2.269

molecular dipole:
                 x           y           z       tot (Debye)
 q only:        0.364      -1.053      -1.165
   full:       -0.007      -1.541      -0.774       4.385

 projected vibrational frequencies (cm⁻¹)
eigval :       -0.00    -0.00    -0.00    -0.00     0.00     0.00
eigval :        5.42    14.10    15.35    16.93    21.55    24.85
eigval :       26.35    32.79    36.99    44.04    57.22    60.57
eigval :       71.76    81.06    84.11    94.69   107.06   115.57
eigval :      129.87   141.18   147.21   148.36   176.22   190.56
eigval :      194.11   200.31   210.97   229.16   233.08   238.72
eigval :      254.69   269.28   273.68   277.04   282.51   296.92
eigval :      312.06   321.77   328.41   340.51   372.63   374.32
eigval :      378.44   395.25   397.71   401.15   408.77   417.34
eigval :      426.28   428.57   435.67   441.17   447.23   469.46
eigval :      472.96   481.16   502.08   516.25   520.41   525.84
eigval :      530.16   530.58   535.55   542.69   558.87   584.00
eigval :      591.07   594.10   599.20   607.95   611.36   621.79
eigval :      640.82   644.90   661.06   669.13   673.91   677.90
eigval :      681.70   690.62   693.82   709.29   718.05   734.89
eigval :      745.04   762.53   765.43   767.43   771.85   776.82
eigval :      782.34   783.13   796.20   803.79   814.10   829.12
eigval :      837.40   862.25   863.00   864.37   867.18   875.22
eigval :      877.54   891.95   898.89   901.76   905.52   908.49
eigval :      909.46   915.29   919.15   920.70   925.46   925.85
eigval :      927.70   928.90   936.95   939.38   960.75   978.49
eigval :      989.06   997.66  1012.63  1020.61  1031.72  1034.84
eigval :     1055.98  1064.12  1068.73  1072.21  1077.02  1085.90
eigval :     1089.67  1095.58  1102.15  1108.77  1119.60  1127.64
eigval :     1131.98  1134.94  1152.17  1157.13  1160.04  1167.52
eigval :     1171.52  1182.74  1184.17  1185.35  1186.07  1188.68
eigval :     1193.70  1203.02  1204.79  1232.20  1233.96  1235.69
eigval :     1246.03  1254.52  1257.71  1260.13  1265.38  1271.38
eigval :     1275.84  1283.31  1299.19  1299.67  1310.20  1317.86
eigval :     1325.91  1328.28  1330.42  1338.98  1339.08  1345.29
eigval :     1347.73  1351.77  1357.62  1365.93  1371.38  1376.48
eigval :     1408.41  1410.64  1415.71  1428.28  1429.75  1435.69
eigval :     1439.14  1441.65  1458.76  1466.39  1468.24  1470.28
eigval :     1478.16  1484.81  1489.07  1490.46  1514.01  1518.31
eigval :     1547.43  1559.69  1566.50  1573.18  1574.96  1577.65
eigval :     1590.89  1591.09  1594.82  1601.34  1602.37  1605.56
eigval :     1618.47  2920.09  2942.10  2963.16  2969.95  2980.26
eigval :     2985.52  2998.74  3002.79  3070.18  3074.43  3074.87
eigval :     3076.79  3079.17  3080.46  3083.53  3085.17  3085.73
eigval :     3089.82  3090.36  3091.36  3093.15  3097.20  3098.20
eigval :     3098.70  3099.11  3102.61  3105.52  3105.65  3108.81
eigval :     3112.66  3113.19  3113.84

   temp. (K)  partition function   enthalpy   heat capacity  entropy
                                   cal/mol     cal/K/mol   cal/K/mol   J/K/mol
 298.15  VIB  0.160E+21            24404.461    150.548    153.192
         ROT  0.102E+09              888.752      2.981     39.631
         INT  0.164E+29            25293.214    153.529    192.823
         TR   0.170E+29             1481.254      4.968     45.393
         TOT                       26774.4677   158.4975   238.2156   996.6939

       T/K    H(0)-H(T)+PV         H(T)/Eh          T*S/Eh         G(T)/Eh
   ------------------------------------------------------------------------
    298.15    0.426678E-01    0.675969E+00    0.113184E+00    0.562785E+00
   ------------------------------------------------------------------------

         :::::::::::::::::::::::::::::::::::::::::::::::::::::
         ::                  THERMODYNAMIC                  ::
         :::::::::::::::::::::::::::::::::::::::::::::::::::::
         :: total free energy        -137.121142944445 Eh   ::
         ::.................................................::
         :: total energy             -137.683927962353 Eh   ::
         :: zero point energy           0.633301092103 Eh   ::
         :: G(RRHO) w/o ZPVE           -0.070516074195 Eh   ::
         :: G(RRHO) contrib.            0.562785017908 Eh   ::
         :::::::::::::::::::::::::::::::::::::::::::::::::::::

           -------------------------------------------------
          | TOTAL ENERGY             -137.683927962353 Eh   |
          | TOTAL ENTHALPY           -137.007959040097 Eh   |
          | TOTAL FREE ENERGY        -137.121142944445 Eh   |
          | GRADIENT NORM               0.000040212397 Eh/α |
          | HOMO-LUMO GAP               2.042004091194 eV   |
           -------------------------------------------------

 * finished run on 2025/09/13 at 02:23:07.552
