   * xtb version 6.7.1 (edcfbbe) compiled by 'albert@albert-system' on 2024-07-22

   ID    Z sym.   atoms
    1    6 C      1-9, 11-23, 25-31, 33-46, 48-53
    2    7 N      10, 24, 32, 47
    3    1 H      54-89

          program call               : xtb data2507/toluene/23AcCz-PM/23AcCz-PM.xyz --gfn 2 --gbsa toluene --ohess vtight --parallel 40 --molden --ceasefiles --namespace data2507/toluene/23AcCz-PM/23AcCz-PM_toluene_S0_preOpt
      * Solvation model:               GBSA
        Solvent                        toluene
        Solvent mass                       9.2140E+01 g/mol
          :  Hamiltonian                  GFN2-xTB          :
 * total energy  :  -135.0806507 Eh     change       -0.3690673E-08 Eh
 * total energy  :  -135.0970720 Eh     change       -0.1642126E-01 Eh
 * total energy  :  -135.1030099 Eh     change       -0.5937887E-02 Eh
 * total energy  :  -135.1046101 Eh     change       -0.1600257E-02 Eh
 * total energy  :  -135.1053675 Eh     change       -0.7574139E-03 Eh
 * total energy  :  -135.1057080 Eh     change       -0.3405050E-03 Eh
 * total energy  :  -135.1058977 Eh     change       -0.1896888E-03 Eh
 * total energy  :  -135.1060083 Eh     change       -0.1105736E-03 Eh
 * total energy  :  -135.1060845 Eh     change       -0.7620638E-04 Eh
 * total energy  :  -135.1061789 Eh     change       -0.9435409E-04 Eh
 * total energy  :  -135.1067735 Eh     change       -0.1012564E-05 Eh
 * total energy  :  -135.1067743 Eh     change       -0.8414929E-06 Eh
 * total energy  :  -135.1067750 Eh     change       -0.7161239E-06 Eh
 * total energy  :  -135.1067757 Eh     change       -0.6354535E-06 Eh
 * total energy  :  -135.1067765 Eh     change       -0.8157672E-06 Eh
 * total energy  :  -135.1067777 Eh     change       -0.1182148E-05 Eh
 * total energy  :  -135.1067792 Eh     change       -0.1545196E-05 Eh
 * total energy  :  -135.1067807 Eh     change       -0.1530717E-05 Eh
 * total energy  :  -135.1067807 Eh     change       -0.7041507E-08 Eh
   *** GEOMETRY OPTIMIZATION CONVERGED AFTER 68 ITERATIONS ***

 final structure:
================
89
 xtb: 6.7.1 (edcfbbe)
C           -5.87525595981728       -3.01218386756362       -0.77381482684724
C           -5.12094182183547       -2.50312303968851        0.46910447269067
C           -6.09324380909268       -2.34841733644561        1.65408129282412
C           -4.06196957401836       -3.52437930951224        0.84185907940549
C           -4.44072934793480       -4.82121700805198        1.16167578269743
C           -3.51902103295108       -5.79186636847458        1.51046301095197
C           -2.17454610047923       -5.46730649743277        1.54876150771248
C           -1.76972610453794       -4.18656090460212        1.23635763981986
C           -2.70009426783149       -3.20693076302784        0.87633762567699
N           -2.26161292358648       -1.92931495964827        0.57451507864817
C           -0.86604752053599       -1.65507618458707        0.54079882299619
C           -0.12432068441664       -1.96361930731420       -0.59445919860982
C            1.21610139930664       -1.63890763023354       -0.65160289306263
C            1.83361962496933       -0.98738816771232        0.41465429770243
C            3.25263469050540       -0.62036023987124        0.31087200386599
C            3.77963515859442        0.50019628710790        0.95078837744334
C            5.14413794665320        0.74390616789083        0.78883776830164
C            5.82628731235419        1.88264226957022        1.41747487832781
C            6.98398950003697        2.39266025373224        0.83083331804372
C            7.64564183905878        3.46340058920784        1.40054911068044
C            7.16536941698676        4.03535904827632        2.56822833117773
C            6.02239288655285        3.52784252562224        3.16481325066667
C            5.35401318326338        2.45983883199006        2.59484815491587
N            5.89261630360450       -0.05566567777368        0.03061262494473
C            5.30514034376068       -1.08890733416757       -0.56314172579542
C            6.13828739043432       -1.95001466158894       -1.40832156324305
C            7.50752672907135       -1.71391272292639       -1.52050086600278
C            8.28900852844241       -2.52569826422434       -2.32039575405291
C            7.71502697726464       -3.57974205461003       -3.01452766446199
C            6.35426390826615       -3.82173003909881       -2.90514359049097
C            5.56819895297248       -3.01382745443020       -2.10594848095610
N            4.01819464306227       -1.40189806988036       -0.44773006252886
C            1.09064089593357       -0.70418179159778        1.55891083799911
C           -0.24776212580985       -1.04013945825855        1.62396686903370
C           -3.13432456048918       -0.91015762928897        0.22417368945477
C           -2.60606278605631        0.34794350084591       -0.06559016236700
C           -3.46223839035871        1.36538454084608       -0.43421596289438
C           -4.85414964383753        1.15450382743062       -0.49863280199192
C           -5.36212527071982       -0.10250511040113       -0.20237159283845
C           -4.52117583239349       -1.14326385425407        0.15427767820035
C           -5.43980484429852        2.41216256505705       -0.86799832180225
C           -6.74253197380197        2.82940516422696       -1.10695181240154
C           -6.96272319458577        4.14306375250233       -1.47396881956609
C           -5.90184425077888        5.03364135378253       -1.61782179872691
C           -4.59545436559026        4.64199937474290       -1.38669558218408
C           -4.36948388140813        3.33085550704170       -0.99668587262262
N           -3.17640145013170        2.68268161172589       -0.73527384455831
C           -1.89495413944384        3.25139630462754       -0.70632369506853
C           -0.84060565472874        2.62879681208962       -1.37085431814071
C            0.43439536022729        3.15906967044504       -1.29812362798526
C            0.66745214010602        4.32320495261505       -0.58413485387445
C           -0.38345337467349        4.95630418879303        0.05962125681079
C           -1.65834742050838        4.42252928079904        0.00869746123215
H           -5.18021205367975       -3.14295961997288       -1.60160897821478
H           -6.64215927222990       -2.30559984430601       -1.07871356780532
H           -6.35275884144963       -3.96731918138414       -0.57324439724270
H           -6.54785044314585       -3.30133023248888        1.91047559527152
H           -5.55809854960384       -1.97725548144903        2.52665196661217
H           -6.88709783935974       -1.64633290346004        1.41493330780397
H           -5.48609749097557       -5.08988841304359        1.13902324502100
H           -3.84959569256213       -6.79094612502733        1.75227423943803
H           -1.43840525555377       -6.20886890806329        1.82299127708577
H           -0.72037558791119       -3.93468720064892        1.27146597645257
H           -0.60866475235571       -2.45025819706418       -1.42815867256235
H            1.80143395773764       -1.86712086739322       -1.52875610991207
H            3.14964346683263        1.16943128532515        1.51200777362334
H            7.34523649769388        1.93729445051343       -0.07847710206338
H            8.53886872590664        3.85295319175687        0.93459401123955
H            7.68326308865598        4.87086150755509        3.01568905457260
H            5.65133778501137        3.96396038518473        4.08088148383285
H            4.47695015072248        2.06000083560295        3.08194206795911
H            7.94021879068297       -0.89290324861260       -0.97021094010720
H            9.34975969769122       -2.33874829880185       -2.40298041159920
H            8.32793592389732       -4.21267622998815       -3.63958861487265
H            5.90645734898950       -4.64386472661322       -3.44423580305259
H            4.50874053534461       -3.19169894495715       -2.00653240782443
H            1.56173854191565       -0.23572145274200        2.40987210971528
H           -0.82677899867472       -0.81759325902430        2.50808850225188
H           -1.54657737589388        0.52673826700027        0.00739212536427
H           -6.42868523442139       -0.25656741827801       -0.25187045980959
H           -7.56537637003770        2.13644556500393       -1.01039445428924
H           -7.96990520183714        4.48621146304984       -1.66158960410879
H           -6.10246209184213        6.05149713416005       -1.91985105725322
H           -3.77837127225745        5.33566966898633       -1.51810956592128
H           -1.02778050048703        1.73721624612603       -1.95035987167799
H            1.24810767831415        2.66343046727114       -1.80808679756759
H            1.66401036741571        4.73583112867804       -0.53096515062001
H           -0.20758296541733        5.86510257737701        0.61636818222827
H           -2.47248759193004        4.89920970545957        0.53419851888637

          :  Hamiltonian                  GFN2-xTB          :
         :: gradient norm              0.000064605174 Eh/a0 ::
         :: HOMO-LUMO gap              1.577413922313 eV    ::
         :: SCC energy              -137.594799239936 Eh    ::
         :: -> dispersion             -0.124269383099 Eh    ::
         :: -> Gsolv                  -0.056910671162 Eh    ::
         :: repulsion energy           2.488018497824 Eh    ::

    * Orbital Energies and Occupations

         #    Occupation            Energy/Eh            Energy/eV
      -------------------------------------------------------------
         1        2.0000           -0.6785030             -18.4630
       ...           ...                  ...                  ...
       114        2.0000           -0.4095511             -11.1445
       115        2.0000           -0.4089062             -11.1269
       116        2.0000           -0.4083595             -11.1120
       117        2.0000           -0.4070000             -11.0750
       118        2.0000           -0.4052596             -11.0277
       119        2.0000           -0.4023753             -10.9492
       120        2.0000           -0.3999734             -10.8838
       121        2.0000           -0.3978743             -10.8267
       122        2.0000           -0.3933318             -10.7031
       123        2.0000           -0.3843542             -10.4588
       124        2.0000           -0.3664340              -9.9712
       125        2.0000           -0.3581307              -9.7452
       126        2.0000           -0.3424361              -9.3182 (HOMO)
       127                         -0.2844672              -7.7407 (LUMO)
       128                         -0.2762639              -7.5175
       129                         -0.2452628              -6.6739
       130                         -0.2416883              -6.5767
       131                         -0.2401152              -6.5339
       132                         -0.2325292              -6.3274
       133                         -0.2313152              -6.2944
       134                         -0.2306474              -6.2762
       135                         -0.2260145              -6.1502
       136                         -0.2187142              -5.9515
       137                         -0.2171063              -5.9078
       ...                                ...                  ...
       248                          0.7512760              20.4433
      -------------------------------------------------------------
                  HL-Gap            0.0579689 Eh            1.5774 eV

     #   Z          covCN         q      C6AA      α(0)
     1   6 C        3.761    -0.103    22.516     6.764
     2   6 C        3.908     0.022    20.153     6.381
     3   6 C        3.761    -0.103    22.518     6.765
     4   6 C        2.978    -0.014    28.360     8.735
     5   6 C        2.928    -0.038    28.939     8.822
     6   6 C        2.917    -0.047    29.164     8.856
     7   6 C        2.919    -0.035    28.871     8.811
     8   6 C        2.924    -0.060    29.493     8.906
     9   6 C        2.927     0.059    26.683     8.471
    10   7 N        2.756    -0.072    22.645     7.068
    11   6 C        2.929     0.074    26.353     8.419
    12   6 C        2.920    -0.036    28.902     8.816
    13   6 C        2.925    -0.023    28.582     8.767
    14   6 C        2.980     0.001    27.997     8.679
    15   6 C        2.968     0.113    25.511     8.285
    16   6 C        2.912    -0.071    29.778     8.948
    17   6 C        2.966     0.113    25.502     8.283
    18   6 C        2.979    -0.000    28.024     8.684
    19   6 C        2.926    -0.024    28.611     8.772
    20   6 C        2.918    -0.027    28.685     8.783
    21   6 C        2.920    -0.026    28.641     8.776
    22   6 C        2.918    -0.028    28.711     8.787
    23   6 C        2.923    -0.032    28.791     8.799
    24   7 N        1.849    -0.291    28.383     7.896
    25   6 C        2.943     0.190    23.961     8.028
    26   6 C        2.984    -0.004    28.121     8.699
    27   6 C        2.923    -0.028    28.711     8.787
    28   6 C        2.918    -0.029    28.716     8.788
    29   6 C        2.920    -0.025    28.638     8.776
    30   6 C        2.918    -0.029    28.717     8.788
    31   6 C        2.924    -0.029    28.715     8.788
    32   7 N        1.849    -0.291    28.401     7.898
    33   6 C        2.922    -0.031    28.770     8.796
    34   6 C        2.920    -0.037    28.930     8.820
    35   6 C        2.931     0.057    26.729     8.479
    36   6 C        2.916    -0.085    30.134     9.002
    37   6 C        3.080     0.046    26.875     8.499
    38   6 C        3.062    -0.032    28.725     8.789
    39   6 C        2.920    -0.042    29.035     8.836
    40   6 C        2.977    -0.022    28.559     8.766
    41   6 C        3.069    -0.018    28.375     8.734
    42   6 C        2.912    -0.038    28.934     8.820
    43   6 C        2.919    -0.044    29.092     8.845
    44   6 C        2.923    -0.038    28.941     8.822
    45   6 C        2.910    -0.053    29.320     8.879
    46   6 C        3.076     0.046    26.884     8.501
    47   7 N        2.800    -0.051    22.229     7.002
    48   6 C        2.912     0.065    26.535     8.447
    49   6 C        2.922    -0.043    29.080     8.843
    50   6 C        2.919    -0.029    28.722     8.788
    51   6 C        2.919    -0.034    28.858     8.809
    52   6 C        2.920    -0.029    28.715     8.787
    53   6 C        2.922    -0.043    29.074     8.842
    54   1 H        0.925     0.030     2.592     2.518
    55   1 H        0.925     0.041     2.437     2.441
    56   1 H        0.925     0.041     2.438     2.442
    57   1 H        0.925     0.041     2.440     2.443
    58   1 H        0.925     0.029     2.596     2.519
    59   1 H        0.925     0.041     2.436     2.441
    60   1 H        0.926     0.032     2.562     2.503
    61   1 H        0.926     0.025     2.659     2.550
    62   1 H        0.926     0.026     2.645     2.543
    63   1 H        0.926     0.023     2.691     2.565
    64   1 H        0.926     0.049     2.331     2.387
    65   1 H        0.926     0.056     2.246     2.343
    66   1 H        0.926     0.039     2.462     2.454
    67   1 H        0.926     0.048     2.340     2.392
    68   1 H        0.926     0.042     2.428     2.437
    69   1 H        0.926     0.042     2.425     2.435
    70   1 H        0.926     0.040     2.446     2.446
    71   1 H        0.926     0.035     2.515     2.480
    72   1 H        0.926     0.051     2.313     2.378
    73   1 H        0.926     0.041     2.433     2.439
    74   1 H        0.926     0.042     2.420     2.433
    75   1 H        0.926     0.041     2.434     2.440
    76   1 H        0.926     0.050     2.315     2.379
    77   1 H        0.926     0.044     2.396     2.421
    78   1 H        0.926     0.049     2.336     2.390
    79   1 H        0.926     0.025     2.662     2.551
    80   1 H        0.926     0.034     2.524     2.485
    81   1 H        0.926     0.027     2.626     2.534
    82   1 H        0.926     0.025     2.665     2.553
    83   1 H        0.926     0.026     2.641     2.541
    84   1 H        0.926     0.026     2.641     2.541
    85   1 H        0.926     0.039     2.462     2.454
    86   1 H        0.926     0.033     2.545     2.495
    87   1 H        0.926     0.036     2.497     2.471
    88   1 H        0.926     0.040     2.448     2.447
    89   1 H        0.926     0.041     2.429     2.437

molecular dipole:
                 x           y           z       tot (Debye)
 q only:        0.827       0.388       0.161
   full:        0.702       0.644       0.404       2.630

 projected vibrational frequencies (cm⁻¹)
eigval :       -0.00    -0.00    -0.00     0.00     0.00     0.00
eigval :        1.89     9.39    14.70    27.35    33.33    34.70
eigval :       38.52    41.56    45.23    47.58    52.87    55.93
eigval :       69.45    76.22    83.16    94.96    98.80   108.08
eigval :      111.79   129.48   147.23   148.77   161.48   182.46
eigval :      197.99   202.46   205.19   207.71   210.40   218.76
eigval :      227.64   245.49   259.95   265.30   270.67   294.48
eigval :      298.77   317.07   334.33   335.56   338.98   366.36
eigval :      366.76   368.97   372.49   375.11   384.60   385.13
eigval :      404.49   410.57   419.96   426.88   430.81   436.95
eigval :      450.03   450.46   480.30   485.08   493.08   512.64
eigval :      534.89   540.71   545.38   549.39   560.52   585.04
eigval :      585.59   587.37   588.32   598.68   602.29   602.84
eigval :      607.13   619.25   629.80   634.14   638.03   654.66
eigval :      663.20   665.56   673.09   675.17   679.44   685.69
eigval :      691.59   703.34   707.38   737.53   739.96   763.99
eigval :      764.64   776.09   777.01   779.23   780.76   814.08
eigval :      830.72   833.16   837.41   844.63   854.90   868.07
eigval :      868.23   870.41   874.29   879.03   879.70   883.83
eigval :      891.99   899.62   904.14   906.79   912.27   914.21
eigval :      917.80   920.41   922.40   924.18   925.08   927.94
eigval :      928.65   932.47   932.84   933.84   934.87   935.36
eigval :      940.05   957.13   970.42   987.94   994.74  1012.34
eigval :     1012.81  1025.76  1033.78  1071.77  1075.08  1078.06
eigval :     1078.69  1080.08  1086.93  1087.58  1102.09  1109.62
eigval :     1114.05  1117.96  1123.69  1127.44  1130.21  1153.71
eigval :     1158.11  1168.51  1169.78  1177.83  1178.42  1178.67
eigval :     1179.21  1180.18  1184.12  1189.89  1194.95  1197.01
eigval :     1201.68  1217.77  1220.59  1237.98  1245.12  1247.00
eigval :     1251.10  1260.47  1264.53  1269.00  1277.13  1277.81
eigval :     1279.92  1293.30  1309.41  1315.48  1320.03  1321.57
eigval :     1326.14  1328.58  1334.82  1356.34  1360.68  1363.54
eigval :     1365.46  1385.22  1394.13  1400.53  1404.60  1418.87
eigval :     1425.85  1429.16  1433.87  1436.44  1438.56  1450.72
eigval :     1467.37  1468.16  1474.91  1480.08  1482.10  1482.88
eigval :     1487.74  1489.56  1491.52  1497.59  1504.58  1513.11
eigval :     1528.77  1562.43  1563.52  1579.18  1580.72  1581.51
eigval :     1583.50  1588.05  1591.22  1593.56  1593.87  1594.80
eigval :     1594.86  1602.56  1615.03  3021.58  3024.28  3037.54
eigval :     3039.45  3046.39  3050.39  3068.69  3071.37  3071.92
eigval :     3072.65  3073.26  3073.66  3076.48  3077.14  3077.55
eigval :     3077.90  3081.17  3082.62  3083.97  3085.84  3086.60
eigval :     3087.63  3087.91  3089.23  3090.71  3091.26  3092.50
eigval :     3093.37  3093.89  3096.13  3099.72  3102.22  3103.05
eigval :     3104.17  3108.35  3122.08

   temp. (K)  partition function   enthalpy   heat capacity  entropy
                                   cal/mol     cal/K/mol   cal/K/mol   J/K/mol
 298.15  VIB  0.445E+21            25361.064    159.081    159.962
         ROT  0.123E+09              888.752      2.981     40.006
         INT  0.549E+29            26249.816    162.062    199.968
         TR   0.172E+29             1481.254      4.968     45.415
         TOT                       27731.0700   167.0305   245.3826  1026.6808

       T/K    H(0)-H(T)+PV         H(T)/Eh          T*S/Eh         G(T)/Eh
   ------------------------------------------------------------------------
    298.15    0.441923E-01    0.738636E+00    0.116589E+00    0.622046E+00
   ------------------------------------------------------------------------

         :::::::::::::::::::::::::::::::::::::::::::::::::::::
         ::                  THERMODYNAMIC                  ::
         :::::::::::::::::::::::::::::::::::::::::::::::::::::
         :: total free energy        -134.484734389705 Eh   ::
         ::.................................................::
         :: total energy             -135.106780741596 Eh   ::
         :: zero point energy           0.694443268825 Eh   ::
         :: G(RRHO) w/o ZPVE           -0.072396916934 Eh   ::
         :: G(RRHO) contrib.            0.622046351891 Eh   ::
         :::::::::::::::::::::::::::::::::::::::::::::::::::::

           -------------------------------------------------
          | TOTAL ENERGY             -135.106780741596 Eh   |
          | TOTAL ENTHALPY           -134.368145199837 Eh   |
          | TOTAL FREE ENERGY        -134.484734389705 Eh   |
          | GRADIENT NORM               0.000064606482 Eh/α |
          | HOMO-LUMO GAP               1.577414196990 eV   |
           -------------------------------------------------

 * finished run on 2025/09/12 at 18:20:16.791
