   * xtb version 6.7.1 (edcfbbe) compiled by 'albert@albert-system' on 2024-07-22

   ID    Z sym.   atoms
    1    6 C      1-9, 11-23, 25-31, 33-46, 48-53
    2    7 N      10, 24, 32, 47
    3    1 H      54-89

          program call               : xtb data2507/toluene/23AcCz-PM/23AcCz-PM_toluene_S0_finalOpt.xtbopt.xyz --gfn 2 --uhf 2 --gbsa toluene --ohess vtight --parallel 40 --molden --ceasefiles --namespace data2507/toluene/23AcCz-PM/23AcCz-PM_toluene_T1_preOpt
      * Solvation model:               GBSA
        Solvent                        toluene
        Solvent mass                       9.2140E+01 g/mol
          :  Hamiltonian                  GFN2-xTB          :
 * total energy  :  -135.0246154 Eh     change       -0.2183307E-07 Eh
 * total energy  :  -135.0278320 Eh     change       -0.3216606E-02 Eh
 * total energy  :  -135.0293123 Eh     change       -0.1480306E-02 Eh
 * total energy  :  -135.0295594 Eh     change       -0.2471072E-03 Eh
 * total energy  :  -135.0299558 Eh     change       -0.3964172E-03 Eh
 * total energy  :  -135.0301052 Eh     change       -0.1494070E-03 Eh
 * total energy  :  -135.0302883 Eh     change       -0.1830429E-03 Eh
 * total energy  :  -135.0304157 Eh     change       -0.1274280E-03 Eh
 * total energy  :  -135.0305221 Eh     change       -0.1063486E-03 Eh
 * total energy  :  -135.0306281 Eh     change       -0.1060638E-03 Eh
 * total energy  :  -135.0322682 Eh     change       -0.1291822E-05 Eh
 * total energy  :  -135.0322697 Eh     change       -0.1513131E-05 Eh
 * total energy  :  -135.0322713 Eh     change       -0.1549823E-05 Eh
 * total energy  :  -135.0322728 Eh     change       -0.1544538E-05 Eh
 * total energy  :  -135.0322742 Eh     change       -0.1402667E-05 Eh
 * total energy  :  -135.0322755 Eh     change       -0.1235904E-05 Eh
 * total energy  :  -135.0322765 Eh     change       -0.1078492E-05 Eh
 * total energy  :  -135.0322777 Eh     change       -0.1181320E-05 Eh
 * total energy  :  -135.0322778 Eh     change       -0.4678643E-07 Eh
   *** GEOMETRY OPTIMIZATION CONVERGED AFTER 94 ITERATIONS ***

 final structure:
================
89
 xtb: 6.7.1 (edcfbbe)
C           -6.00818348411500       -2.84431808284786       -1.18699520725674
C           -5.38736840773160       -2.37951735210452        0.14536234993957
C           -6.48726864153382       -2.20988653234288        1.21233060446656
C           -4.41664678155605       -3.43786560044909        0.62342617371814
C           -4.87373836212371       -4.71879942197768        0.90365863694450
C           -4.03057528689492       -5.71202180407618        1.36765842237890
C           -2.68861187374469       -5.42934049640429        1.57619460409224
C           -2.20447395440306       -4.17116115045263        1.29905361938059
C           -3.05140281453060       -3.16831923728240        0.80468851229329
N           -2.52905760091291       -1.92415632611884        0.52046733712388
C           -1.12185882980508       -1.72115906162098        0.60089707584837
C           -0.28068214628245       -2.24672719546936       -0.38462650471386
C            1.05992535194170       -1.96195037039808       -0.36932633071642
C            1.62358634658907       -1.11607414395901        0.61354501601590
C            3.00846694749191       -0.76928574939744        0.53129503348617
C            3.60246931233480        0.27827151922946        1.25300686206243
C            4.94264694811128        0.55611755915429        1.04970647728239
C            5.65448969159000        1.63559127847879        1.70552415547006
C            7.05688617465869        1.66361221307797        1.65275700757789
C            7.77070688963807        2.67383176285675        2.25949315317189
C            7.11083050075668        3.69192696369125        2.93384963026945
C            5.72420364813667        3.68304838638434        2.98912791597719
C            5.00294582531626        2.67402964029046        2.38580335420246
N            5.66277860535467       -0.22185636365428        0.18480530537692
C            5.06355485751844       -1.20055661548068       -0.47047617325767
C            5.86645059876930       -2.01235813309671       -1.39176159338702
C            7.16205673362319       -1.62407423800645       -1.72360391034626
C            7.91941266235114       -2.39139652444727       -2.58840279240719
C            7.39231570587215       -3.55349215733705       -3.12987782907395
C            6.10363942212567       -3.94667587241394       -2.80301012117093
C            5.34322483858312       -3.18111328030522       -1.93965033408339
N            3.78798000716987       -1.48003372922902       -0.34125635315548
C            0.76508447822920       -0.63990976728541        1.62815701023762
C           -0.57448090895732       -0.93941408779813        1.62166855391095
C           -3.31742715581965       -0.87494571465926        0.10345908838740
C           -2.70779486886233        0.36088863435704       -0.14911474477811
C           -3.48598853490577        1.42055806243474       -0.55441718794972
C           -4.88522097543522        1.27741800660632       -0.71960772986926
C           -5.47217558531784        0.03913121110605       -0.48723613936497
C           -4.71181582243756       -1.04113206811433       -0.07849475299094
C           -5.37957531532404        2.56341522790203       -1.10565129966436
C           -6.64408693692860        3.04959236417078       -1.42372472907392
C           -6.77247126560981        4.37709135251567       -1.77671668321228
C           -5.65987126610451        5.21698220744806       -1.82854956511817
C           -4.39280874462699        4.75933295488925       -1.51723328074882
C           -4.25742048762359        3.43081735500282       -1.14251950920273
N           -3.11937473691835        2.72330523539430       -0.81104848308371
C           -1.82035633879937        3.23678221124700       -0.64806246012823
C           -0.73799744566463        2.60100215477121       -1.24983601830102
C            0.54467104423719        3.07482846353184       -1.04090524056044
C            0.75615853249476        4.19162820437826       -0.24907246105338
C           -0.32225079562493        4.83633200293935        0.33497710470495
C           -1.60692935712746        4.36000876417318        0.14523402101006
H           -5.22882321584055       -2.97055146874460       -1.93637112355483
H           -6.72170622223039       -2.11263290983771       -1.55419865874835
H           -6.52267424831313       -3.79254702510697       -1.06244671702381
H           -7.00242211241346       -3.14908676426749        1.38934556685403
H           -6.04631628899810       -1.87645674556858        2.14992591247470
H           -7.22092575144898       -1.47441805953129        0.89691348168746
H           -5.91645908850417       -4.95453444939440        0.75895466557163
H           -4.41893800531519       -6.69764151152007        1.57408357209626
H           -2.02161000500450       -6.18875037633731        1.95537023529446
H           -1.16312036067143       -3.94469665418859        1.46641441810930
H           -0.70206446670542       -2.86537561609850       -1.16432194617951
H            1.71351301048766       -2.35134966966620       -1.13462939610584
H            3.01605150561102        0.86419591053884        1.94103716313536
H            7.56400516967267        0.86636704701534        1.13016208383071
H            8.85069109065747        2.67242154416560        2.20881556457519
H            7.66981875602642        4.48510992330078        3.40811473480578
H            5.20184024381197        4.47666509295789        3.50549653528998
H            3.92413560623973        2.70229827581336        2.42900622969605
H            7.55582330808501       -0.71447465942346       -1.29532322230522
H            8.92343971137750       -2.08348242713201       -2.84263737358161
H            7.98561974394109       -4.15272294885021       -3.80511369011275
H            5.69308809433523       -4.85377070464438       -3.22259356509939
H            4.33993479852769       -3.47569428454130       -1.67049673966827
H            1.16043127698192       -0.03884310993429        2.43249249701760
H           -1.22074512658663       -0.56377121507310        2.40264528973476
H           -1.64726543469304        0.48306127729794       -0.01550918411932
H           -6.53561254364354       -0.06517325045903       -0.62944912008381
H           -7.50366995770705        2.39724649446872       -1.39631293224832
H           -7.74492387190511        4.77549950970597       -2.02542858522093
H           -5.79085022531594        6.24825359350276       -2.12181435356064
H           -3.53591545531148        5.41325272393181       -1.57408165619664
H           -0.90374117182966        1.74327272689725       -1.88439042232728
H            1.38178612751590        2.57012606831712       -1.50098422502732
H            1.75939475896205        4.55787060651714       -0.08920703858658
H           -0.16145695087045        5.70758944361664        0.95271077547506
H           -2.44643192554857        4.84407624998004        0.62188323119353

          :  Hamiltonian                  GFN2-xTB          :
         :: gradient norm              0.000092906596 Eh/a0 ::
         :: HOMO-LUMO gap              0.369613817888 eV    ::
         :: SCC energy              -137.511129749784 Eh    ::
         :: -> dispersion             -0.124772195758 Eh    ::
         :: -> Gsolv                  -0.061071369552 Eh    ::
         :: repulsion energy           2.478851977231 Eh    ::

    * Orbital Energies and Occupations

         #    Occupation            Energy/Eh            Energy/eV
      -------------------------------------------------------------
         1        2.0000           -0.6850200             -18.6403
       ...           ...                  ...                  ...
       115        2.0000           -0.4076593             -11.0930
       116        2.0000           -0.4056604             -11.0386
       117        2.0000           -0.4054459             -11.0327
       118        2.0000           -0.3992515             -10.8642
       119        2.0000           -0.3980746             -10.8322
       120        2.0000           -0.3968362             -10.7985
       121        2.0000           -0.3904887             -10.6257
       122        2.0000           -0.3888169             -10.5802
       123        2.0000           -0.3826056             -10.4112
       124        2.0000           -0.3689673             -10.0401
       125        1.6269           -0.3574958              -9.7280
       126        1.3731           -0.3565096              -9.7011
       127        0.9992           -0.2746989              -7.4749 (HOMO)
       128        0.0008           -0.2611157              -7.1053 (LUMO)
       129        0.0000           -0.2548213              -6.9340
       130                         -0.2374131              -6.4603
       131                         -0.2350885              -6.3971
       132                         -0.2337384              -6.3603
       133                         -0.2313893              -6.2964
       134                         -0.2311562              -6.2901
       135                         -0.2230856              -6.0705
       136                         -0.2224838              -6.0541
       137                         -0.2201689              -5.9911
       138                         -0.2145780              -5.8390
       ...                                ...                  ...
       248                          0.7378668              20.0784
      -------------------------------------------------------------
                  HL-Gap            0.0135831 Eh            0.3696 eV

     #   Z          covCN         q      C6AA      α(0)
     1   6 C        3.761    -0.107    22.586     6.775
     2   6 C        3.909     0.024    20.106     6.373
     3   6 C        3.761    -0.108    22.602     6.777
     4   6 C        2.978    -0.003    28.085     8.693
     5   6 C        2.925    -0.034    28.836     8.806
     6   6 C        2.917    -0.033    28.826     8.804
     7   6 C        2.918    -0.029    28.721     8.788
     8   6 C        2.923    -0.047    29.177     8.858
     9   6 C        2.929     0.060    26.646     8.465
    10   7 N        2.755    -0.018    21.596     6.902
    11   6 C        2.929     0.033    27.252     8.561
    12   6 C        2.914    -0.042    29.048     8.838
    13   6 C        2.924    -0.039    28.978     8.828
    14   6 C        2.973    -0.011    28.291     8.725
    15   6 C        2.938     0.070    26.431     8.432
    16   6 C        2.911    -0.061    29.505     8.907
    17   6 C        2.937     0.080    26.209     8.396
    18   6 C        2.975    -0.005    28.152     8.703
    19   6 C        2.926    -0.035    28.869     8.811
    20   6 C        2.916    -0.034    28.835     8.806
    21   6 C        2.919    -0.040    29.006     8.832
    22   6 C        2.917    -0.034    28.846     8.807
    23   6 C        2.921    -0.043    29.063     8.841
    24   7 N        1.850    -0.291    28.406     7.899
    25   6 C        2.891     0.193    23.888     8.013
    26   6 C        2.984    -0.003    28.090     8.694
    27   6 C        2.924    -0.029    28.720     8.789
    28   6 C        2.918    -0.030    28.743     8.792
    29   6 C        2.920    -0.028    28.709     8.787
    30   6 C        2.918    -0.030    28.748     8.792
    31   6 C        2.924    -0.029    28.730     8.790
    32   7 N        1.851    -0.280    28.115     7.859
    33   6 C        2.919    -0.047    29.172     8.857
    34   6 C        2.915    -0.042    29.054     8.839
    35   6 C        2.933     0.060    26.647     8.466
    36   6 C        2.915    -0.074    29.843     8.958
    37   6 C        3.082     0.051    26.774     8.483
    38   6 C        3.062    -0.018    28.388     8.737
    39   6 C        2.917    -0.038    28.940     8.822
    40   6 C        2.976    -0.012    28.313     8.728
    41   6 C        3.068    -0.014    28.288     8.721
    42   6 C        2.911    -0.032    28.801     8.800
    43   6 C        2.919    -0.040    28.993     8.830
    44   6 C        2.924    -0.030    28.756     8.794
    45   6 C        2.909    -0.049    29.228     8.865
    46   6 C        3.081     0.050    26.786     8.485
    47   7 N        2.799    -0.041    22.029     6.971
    48   6 C        2.913     0.063    26.594     8.456
    49   6 C        2.922    -0.041    29.031     8.836
    50   6 C        2.919    -0.026    28.647     8.777
    51   6 C        2.919    -0.031    28.776     8.797
    52   6 C        2.920    -0.027    28.681     8.782
    53   6 C        2.922    -0.042    29.044     8.838
    54   1 H        0.925     0.036     2.509     2.477
    55   1 H        0.925     0.050     2.320     2.382
    56   1 H        0.925     0.050     2.320     2.382
    57   1 H        0.925     0.050     2.319     2.382
    58   1 H        0.925     0.036     2.506     2.476
    59   1 H        0.925     0.050     2.315     2.379
    60   1 H        0.926     0.048     2.348     2.396
    61   1 H        0.926     0.041     2.430     2.438
    62   1 H        0.926     0.040     2.452     2.449
    63   1 H        0.926     0.041     2.435     2.440
    64   1 H        0.926     0.032     2.552     2.498
    65   1 H        0.926     0.039     2.468     2.456
    66   1 H        0.926     0.022     2.707     2.573
    67   1 H        0.926     0.033     2.539     2.492
    68   1 H        0.926     0.026     2.646     2.544
    69   1 H        0.926     0.025     2.655     2.548
    70   1 H        0.925     0.025     2.653     2.547
    71   1 H        0.926     0.021     2.721     2.580
    72   1 H        0.926     0.043     2.413     2.429
    73   1 H        0.926     0.038     2.471     2.458
    74   1 H        0.926     0.040     2.448     2.447
    75   1 H        0.926     0.039     2.458     2.452
    76   1 H        0.926     0.044     2.399     2.422
    77   1 H        0.926     0.023     2.689     2.564
    78   1 H        0.926     0.031     2.574     2.509
    79   1 H        0.926     0.044     2.392     2.418
    80   1 H        0.926     0.051     2.305     2.374
    81   1 H        0.926     0.039     2.469     2.457
    82   1 H        0.926     0.034     2.531     2.488
    83   1 H        0.926     0.035     2.510     2.477
    84   1 H        0.926     0.034     2.527     2.486
    85   1 H        0.926     0.042     2.425     2.435
    86   1 H        0.926     0.035     2.521     2.483
    87   1 H        0.926     0.037     2.484     2.464
    88   1 H        0.926     0.042     2.416     2.431
    89   1 H        0.926     0.045     2.379     2.412

molecular dipole:
                 x           y           z       tot (Debye)
 q only:       -4.628      -0.593      -0.547
   full:       -4.536      -0.351      -0.294      11.589

 projected vibrational frequencies (cm⁻¹)
eigval :       -0.00    -0.00    -0.00    -0.00     0.00     0.00
eigval :        7.52     8.60    12.63    26.88    29.89    31.02
eigval :       33.34    41.39    45.07    52.89    54.89    62.16
eigval :       71.50    77.57    86.48    92.33    99.64   107.46
eigval :      113.00   128.03   129.52   148.21   156.19   177.49
eigval :      193.27   195.15   203.26   206.54   208.13   215.11
eigval :      217.28   244.99   260.70   263.58   271.33   294.81
eigval :      296.06   311.12   331.18   333.37   338.98   363.93
eigval :      367.42   369.08   372.77   376.75   381.10   384.79
eigval :      401.64   407.48   414.79   423.24   426.61   429.56
eigval :      438.57   451.26   465.21   482.02   500.52   516.47
eigval :      526.91   538.23   540.60   542.97   554.25   556.41
eigval :      581.21   584.11   586.16   587.48   590.05   590.38
eigval :      595.24   601.05   608.65   622.59   641.44   646.38
eigval :      651.49   656.34   660.99   670.51   673.07   673.31
eigval :      679.27   681.32   697.31   704.94   738.31   748.82
eigval :      766.79   767.66   774.23   775.30   776.33   790.23
eigval :      808.30   820.41   831.11   835.37   839.00   855.36
eigval :      857.26   870.55   871.04   873.10   877.98   879.53
eigval :      883.34   886.89   896.58   904.04   906.62   907.60
eigval :      910.20   912.38   916.02   919.84   920.12   921.31
eigval :      923.51   926.15   928.82   931.16   934.09   936.76
eigval :      941.44   946.09   957.60   979.19   985.12   993.91
eigval :      996.34  1011.42  1031.20  1053.28  1067.87  1072.13
eigval :     1074.21  1076.80  1079.00  1080.79  1085.53  1102.08
eigval :     1108.51  1110.80  1117.42  1124.35  1126.81  1140.06
eigval :     1148.00  1151.11  1165.66  1169.28  1174.84  1176.92
eigval :     1177.77  1178.74  1179.41  1182.60  1190.60  1195.52
eigval :     1201.72  1204.41  1214.21  1226.22  1237.75  1243.07
eigval :     1253.56  1256.65  1268.08  1273.38  1274.62  1278.11
eigval :     1285.13  1290.40  1293.89  1306.91  1314.92  1316.87
eigval :     1324.57  1326.12  1328.81  1330.56  1345.08  1356.57
eigval :     1362.06  1366.87  1383.43  1393.35  1397.03  1403.72
eigval :     1415.47  1419.53  1424.42  1427.63  1430.01  1435.41
eigval :     1435.66  1446.21  1460.75  1461.82  1467.59  1472.25
eigval :     1476.99  1477.52  1479.82  1481.29  1483.00  1485.35
eigval :     1491.82  1498.19  1532.66  1548.81  1559.17  1569.49
eigval :     1578.76  1580.41  1582.72  1583.00  1590.14  1591.57
eigval :     1594.14  1594.76  1600.39  3026.36  3028.69  3047.25
eigval :     3049.98  3054.20  3059.27  3061.46  3062.50  3068.12
eigval :     3069.26  3071.76  3072.39  3075.61  3075.67  3076.58
eigval :     3078.54  3082.40  3083.12  3083.26  3083.48  3087.69
eigval :     3088.13  3089.99  3090.08  3090.49  3090.90  3091.83
eigval :     3093.59  3095.55  3096.25  3097.34  3099.89  3101.50
eigval :     3104.54  3105.88  3136.14

   temp. (K)  partition function   enthalpy   heat capacity  entropy
                                   cal/mol     cal/K/mol   cal/K/mol   J/K/mol
 298.15  VIB  0.229E+21            25617.372    160.811    160.374
         ROT  0.122E+09              888.752      2.981     39.984
         INT  0.280E+29            26506.124    163.792    200.358
         TR   0.172E+29             1481.254      4.968     45.415
         TOT                       27987.3780   168.7600   245.7735  1028.3163

       T/K    H(0)-H(T)+PV         H(T)/Eh          T*S/Eh         G(T)/Eh
   ------------------------------------------------------------------------
    298.15    0.446007E-01    0.735281E+00    0.116775E+00    0.618506E+00
   ------------------------------------------------------------------------

         :::::::::::::::::::::::::::::::::::::::::::::::::::::
         ::                  THERMODYNAMIC                  ::
         :::::::::::::::::::::::::::::::::::::::::::::::::::::
         :: total free energy        -134.413772161205 Eh   ::
         ::.................................................::
         :: total energy             -135.032277777152 Eh   ::
         :: zero point energy           0.690679812630 Eh   ::
         :: G(RRHO) w/o ZPVE           -0.072174196684 Eh   ::
         :: G(RRHO) contrib.            0.618505615947 Eh   ::
         :::::::::::::::::::::::::::::::::::::::::::::::::::::

           -------------------------------------------------
          | TOTAL ENERGY             -135.032277777152 Eh   |
          | TOTAL ENTHALPY           -134.296997238783 Eh   |
          | TOTAL FREE ENERGY        -134.413772161205 Eh   |
          | GRADIENT NORM               0.000091745606 Eh/α |
          | HOMO-LUMO GAP               0.369615097042 eV   |
           -------------------------------------------------

 * finished run on 2025/09/12 at 18:27:53.880
