   * xtb version 6.7.1 (edcfbbe) compiled by 'albert@albert-system' on 2024-07-22

   ID    Z sym.   atoms
    1    6 C      1-9, 11-23, 25-31, 33-46, 48-53
    2    7 N      10, 24, 32, 47
    3    1 H      54-89

          program call               : xtb data2507/toluene/23AcCz-PM/23AcCz-PM_toluene_T1_crest.xyz --gfn 2 --uhf 2 --gbsa toluene --ohess vtight --parallel 40 --molden --ceasefiles --namespace data2507/toluene/23AcCz-PM/23AcCz-PM_toluene_T1_finalOpt
      * Solvation model:               GBSA
        Solvent                        toluene
        Solvent mass                       9.2140E+01 g/mol
          :  Hamiltonian                  GFN2-xTB          :
 * total energy  :  -135.0311882 Eh     change       -0.1700232E-07 Eh
 * total energy  :  -135.0313161 Eh     change       -0.1279606E-03 Eh
 * total energy  :  -135.0313911 Eh     change       -0.7496444E-04 Eh
 * total energy  :  -135.0314125 Eh     change       -0.2135024E-04 Eh
 * total energy  :  -135.0314634 Eh     change       -0.5097365E-04 Eh
 * total energy  :  -135.0314961 Eh     change       -0.3269415E-04 Eh
 * total energy  :  -135.0315852 Eh     change       -0.8905974E-04 Eh
 * total energy  :  -135.0316442 Eh     change       -0.5901735E-04 Eh
 * total energy  :  -135.0316788 Eh     change       -0.3459149E-04 Eh
 * total energy  :  -135.0317128 Eh     change       -0.3399331E-04 Eh
 * total energy  :  -135.0326975 Eh     change       -0.4422273E-06 Eh
 * total energy  :  -135.0326981 Eh     change       -0.6035143E-06 Eh
 * total energy  :  -135.0326990 Eh     change       -0.9051434E-06 Eh
 * total energy  :  -135.0327002 Eh     change       -0.1202867E-05 Eh
 * total energy  :  -135.0327015 Eh     change       -0.1317512E-05 Eh
 * total energy  :  -135.0327026 Eh     change       -0.1092035E-05 Eh
 * total energy  :  -135.0327033 Eh     change       -0.7468676E-06 Eh
 * total energy  :  -135.0327039 Eh     change       -0.5493156E-06 Eh
 * total energy  :  -135.0327039 Eh     change       -0.4997327E-07 Eh
   *** GEOMETRY OPTIMIZATION CONVERGED AFTER 122 ITERATIONS ***

 final structure:
================
89
 xtb: 6.7.1 (edcfbbe)
C           -6.27394393590457       -2.08394152210080       -1.70147041025088
C           -5.41472144599301       -2.28393778628998       -0.43710127496267
C           -6.30589772645238       -2.69791400868741        0.75081307616684
C           -4.41972899675624       -3.39272633345336       -0.70359229713872
C           -4.87364113078475       -4.66420743420128       -1.02778853450554
C           -4.00412553455293       -5.70456116332032       -1.30036707613770
C           -2.63569795233654       -5.48106740242148       -1.26240756192197
C           -2.15567982876906       -4.23154919765973       -0.94189577469995
C           -3.03390835800933       -3.17839176471164       -0.64755385555221
N           -2.52073848998444       -1.94223844667982       -0.31660055092044
C           -1.10758386724091       -1.75626247267888       -0.29231177357032
C           -0.46381710882618       -1.14514203628740       -1.37219948330909
C            0.88508046557011       -0.91047044702816       -1.32539505638639
C            1.66129427988022       -1.27373251430165       -0.20009269176213
C            3.06042355023431       -0.97831831716847       -0.19504629260508
C            3.96204950357674       -1.39743224126529        0.79637272428414
C            5.29628920743371       -1.04781369504685        0.68319696740102
C            6.31932197736922       -1.42332139979714        1.63960233892294
C            7.59221169416403       -0.83863323513274        1.54338387940959
C            8.59410843672072       -1.16351271967120        2.43133279211512
C            8.36264607231838       -2.08421369323531        3.44386634480565
C            7.11191193340063       -2.67591492434300        3.55022589192902
C            6.10405365569494       -2.35497353629852        2.66505039844684
N            5.69945658511488       -0.28912403223669       -0.38179008586071
C            4.81725445925065        0.08684750528307       -1.29066759077198
C            5.28521212713632        0.90118443730128       -2.41812461918012
C            6.64781085528946        1.10630948876822       -2.61976944902238
C            7.08754535898289        1.87406274248365       -3.68161861841617
C            6.17282568752507        2.44636963365442       -4.55180880765147
C            4.81483090105542        2.24635119348026       -4.35751561963093
C            4.37222866039762        1.47810401056098       -3.29763664059080
N            3.54602490345922       -0.23213591241041       -1.23594467881084
C            0.99174085450977       -1.90729253853992        0.86893150308224
C           -0.36150105702880       -2.13895048889615        0.82325764094521
C           -3.32466302671521       -0.86171013624705       -0.03790210556181
C           -2.71412201912458        0.34997817135008        0.31339734868460
C           -3.50661832852921        1.45053021848395        0.55112168125025
C           -4.91923752286370        1.35749512683021        0.48809571933264
C           -5.50940866784930        0.14056819646119        0.16914378965323
C           -4.73496431965900       -0.97215345179952       -0.09944548480865
C           -5.42597416109139        2.65340325027025        0.81891967108630
C           -6.70781038649801        3.18839454063259        0.90489843014942
C           -6.84690964531855        4.52106987981794        1.23274609404714
C           -5.72926356205043        5.32383887480527        1.46219859366759
C           -4.44532387624725        4.81676590671836        1.38403397261691
C           -4.29678241616070        3.47276492620521        1.07469804789339
N           -3.14480110860156        2.72992507356161        0.90980704848251
C           -1.82398352636669        3.18059249287913        1.08177672782351
C           -0.87495375196615        2.94704737817258        0.09072785429741
C            0.43188016716363        3.36064152968296        0.27424638101308
C            0.79658078187305        4.02443767881066        1.43424512391610
C           -0.15068416516844        4.27090489183884        2.41465086611313
C           -1.45632658249623        3.84554117310432        2.24724049060400
H           -7.02098381957438       -1.31246319968511       -1.54102053364621
H           -6.78498741194116       -3.00344528919252       -1.97071472506714
H           -5.64232601370311       -1.78385210952106       -2.53560817851308
H           -6.83743482535410       -3.61910489050942        0.53167362379385
H           -5.69377897644210       -2.85562172519765        1.63697517760709
H           -7.03716460324996       -1.92621909503542        0.97134983875096
H           -5.93452279700239       -4.85459821747921       -1.07258491497352
H           -4.39073497819566       -6.68151449170757       -1.54727781514868
H           -1.94422023915689       -6.28001503552940       -1.48381687824636
H           -1.09219063650663       -4.05242439139812       -0.91763942872946
H           -1.04319182150350       -0.85994131451688       -2.23898557120084
H            1.39138121162457       -0.44057223162685       -2.15429246666107
H            3.61637554388821       -1.98209333997005        1.63230345298117
H            7.76451063634863       -0.11963226716396        0.75663121786878
H            9.56532858937961       -0.69766088547461        2.33774752888939
H            9.14775237358830       -2.34053181828470        4.13987648330559
H            6.92425258978269       -3.39886164777936        4.33219697275246
H            5.14617803372187       -2.84341122946429        2.76517113564540
H            7.34708025013875        0.65076865131971       -1.93481542777432
H            8.14638065485973        2.02730442457626       -3.83267771707453
H            6.51800806960641        3.04735789823891       -5.38041213702953
H            4.10088304385189        2.69233805768454       -5.03489818467953
H            3.31823421034017        1.31429210021586       -3.13127506810105
H            1.53764269401093       -2.20240113613817        1.75158199672173
H           -0.86290093777315       -2.61112915518963        1.65640243771224
H           -1.64254566158554        0.41179569757299        0.40211150931166
H           -6.58507448654611        0.07879479862978        0.13607974189602
H           -7.57208547230302        2.57088175066108        0.71286794343217
H           -7.83232854844699        4.95671290006644        1.30605345604800
H           -5.87021496796875        6.36724121898261        1.70326682879849
H           -3.58715561722877        5.45047912227009        1.54797284415441
H           -1.16646531371453        2.45060150434330       -0.82240961230511
H            1.16727374042487        3.16713051094096       -0.49281057463918
H            1.81765275427416        4.34691729969242        1.57329491521863
H            0.13070679440966        4.78700226631744        3.32075422728326
H           -2.19013892027879        4.01301670803407        3.02152975841886

          :  Hamiltonian                  GFN2-xTB          :
         :: gradient norm              0.000074024331 Eh/a0 ::
         :: HOMO-LUMO gap              0.375858030237 eV    ::
         :: SCC energy              -137.512172499631 Eh    ::
         :: -> dispersion             -0.124058666993 Eh    ::
         :: -> Gsolv                  -0.061010801304 Eh    ::
         :: repulsion energy           2.479468580814 Eh    ::

    * Orbital Energies and Occupations

         #    Occupation            Energy/Eh            Energy/eV
      -------------------------------------------------------------
         1        2.0000           -0.6847487             -18.6330
       ...           ...                  ...                  ...
       115        2.0000           -0.4074719             -11.0879
       116        2.0000           -0.4060693             -11.0497
       117        2.0000           -0.4060359             -11.0488
       118        2.0000           -0.3993651             -10.8673
       119        2.0000           -0.3978177             -10.8252
       120        2.0000           -0.3967152             -10.7952
       121        2.0000           -0.3901627             -10.6169
       122        2.0000           -0.3887211             -10.5776
       123        2.0000           -0.3822651             -10.4020
       124        2.0000           -0.3685163             -10.0278
       125        1.6618           -0.3577073              -9.7337
       126        1.3382           -0.3564316              -9.6990
       127        0.9993           -0.2751740              -7.4879 (HOMO)
       128        0.0007           -0.2613615              -7.1120 (LUMO)
       129        0.0000           -0.2546119              -6.9283
       130                         -0.2366404              -6.4393
       131                         -0.2349577              -6.3935
       132                         -0.2323624              -6.3229
       133                         -0.2313372              -6.2950
       134                         -0.2310195              -6.2864
       135                         -0.2234350              -6.0800
       136                         -0.2225022              -6.0546
       137                         -0.2200238              -5.9872
       138                         -0.2143240              -5.8321
       ...                                ...                  ...
       248                          0.7379728              20.0813
      -------------------------------------------------------------
                  HL-Gap            0.0138125 Eh            0.3759 eV

     #   Z          covCN         q      C6AA      α(0)
     1   6 C        3.761    -0.107    22.594     6.776
     2   6 C        3.909     0.024    20.106     6.373
     3   6 C        3.761    -0.107    22.594     6.776
     4   6 C        2.978    -0.003    28.087     8.693
     5   6 C        2.925    -0.034    28.837     8.806
     6   6 C        2.917    -0.033    28.831     8.805
     7   6 C        2.918    -0.029    28.723     8.788
     8   6 C        2.923    -0.048    29.187     8.860
     9   6 C        2.929     0.061    26.641     8.465
    10   7 N        2.756    -0.019    21.610     6.904
    11   6 C        2.930     0.034    27.249     8.561
    12   6 C        2.914    -0.042    29.053     8.839
    13   6 C        2.925    -0.039    28.979     8.828
    14   6 C        2.973    -0.012    28.306     8.727
    15   6 C        2.937     0.070    26.441     8.433
    16   6 C        2.911    -0.060    29.501     8.906
    17   6 C        2.937     0.080    26.212     8.397
    18   6 C        2.975    -0.006    28.155     8.704
    19   6 C        2.926    -0.035    28.873     8.812
    20   6 C        2.916    -0.034    28.837     8.806
    21   6 C        2.919    -0.040    29.005     8.832
    22   6 C        2.917    -0.034    28.846     8.807
    23   6 C        2.921    -0.043    29.061     8.840
    24   7 N        1.851    -0.291    28.392     7.897
    25   6 C        2.890     0.193    23.891     8.014
    26   6 C        2.983    -0.003    28.088     8.694
    27   6 C        2.924    -0.029    28.716     8.788
    28   6 C        2.918    -0.030    28.740     8.791
    29   6 C        2.920    -0.028    28.709     8.786
    30   6 C        2.918    -0.030    28.749     8.793
    31   6 C        2.924    -0.029    28.728     8.790
    32   7 N        1.851    -0.279    28.087     7.855
    33   6 C        2.920    -0.047    29.169     8.857
    34   6 C        2.915    -0.043    29.057     8.839
    35   6 C        2.933     0.061    26.636     8.464
    36   6 C        2.915    -0.072    29.799     8.951
    37   6 C        3.079     0.051    26.777     8.484
    38   6 C        3.063    -0.018    28.382     8.736
    39   6 C        2.917    -0.038    28.936     8.821
    40   6 C        2.976    -0.012    28.318     8.729
    41   6 C        3.067    -0.014    28.288     8.721
    42   6 C        2.911    -0.032    28.800     8.800
    43   6 C        2.919    -0.040    28.993     8.830
    44   6 C        2.924    -0.030    28.753     8.793
    45   6 C        2.909    -0.049    29.228     8.865
    46   6 C        3.081     0.050    26.786     8.485
    47   7 N        2.800    -0.040    22.009     6.968
    48   6 C        2.913     0.062    26.609     8.459
    49   6 C        2.922    -0.041    29.030     8.836
    50   6 C        2.919    -0.026    28.651     8.778
    51   6 C        2.919    -0.031    28.784     8.798
    52   6 C        2.920    -0.027    28.687     8.783
    53   6 C        2.922    -0.042    29.050     8.839
    54   1 H        0.925     0.050     2.314     2.379
    55   1 H        0.925     0.050     2.323     2.384
    56   1 H        0.925     0.036     2.506     2.475
    57   1 H        0.925     0.050     2.319     2.382
    58   1 H        0.925     0.035     2.510     2.478
    59   1 H        0.925     0.050     2.317     2.380
    60   1 H        0.926     0.048     2.348     2.396
    61   1 H        0.926     0.041     2.433     2.439
    62   1 H        0.926     0.039     2.462     2.453
    63   1 H        0.926     0.040     2.446     2.446
    64   1 H        0.926     0.032     2.564     2.504
    65   1 H        0.926     0.039     2.458     2.452
    66   1 H        0.926     0.021     2.719     2.578
    67   1 H        0.926     0.034     2.526     2.485
    68   1 H        0.925     0.026     2.641     2.542
    69   1 H        0.926     0.025     2.654     2.548
    70   1 H        0.925     0.025     2.660     2.551
    71   1 H        0.926     0.020     2.737     2.587
    72   1 H        0.926     0.042     2.418     2.432
    73   1 H        0.926     0.038     2.473     2.459
    74   1 H        0.926     0.040     2.448     2.447
    75   1 H        0.926     0.040     2.455     2.450
    76   1 H        0.926     0.044     2.402     2.424
    77   1 H        0.926     0.023     2.693     2.566
    78   1 H        0.926     0.030     2.582     2.513
    79   1 H        0.926     0.043     2.412     2.429
    80   1 H        0.926     0.051     2.304     2.374
    81   1 H        0.926     0.039     2.468     2.457
    82   1 H        0.926     0.034     2.530     2.488
    83   1 H        0.926     0.036     2.508     2.476
    84   1 H        0.926     0.035     2.518     2.482
    85   1 H        0.926     0.043     2.411     2.428
    86   1 H        0.926     0.038     2.472     2.458
    87   1 H        0.926     0.037     2.487     2.466
    88   1 H        0.926     0.042     2.425     2.435
    89   1 H        0.926     0.045     2.384     2.414

molecular dipole:
                 x           y           z       tot (Debye)
 q only:       -4.818       0.341      -0.341
   full:       -4.639       0.155      -0.042      11.797

 projected vibrational frequencies (cm⁻¹)
eigval :       -0.00    -0.00    -0.00     0.00     0.00     0.00
eigval :        6.78     9.73    12.85    27.51    31.25    36.44
eigval :       37.96    40.02    48.41    49.61    54.72    58.09
eigval :       69.39    78.73    83.86    90.37    98.87   104.87
eigval :      111.97   126.99   129.91   150.81   160.19   173.26
eigval :      190.88   199.45   201.96   203.40   207.08   211.00
eigval :      219.86   243.41   260.31   263.58   270.96   295.29
eigval :      296.68   313.12   332.53   333.96   338.79   364.98
eigval :      366.00   370.11   373.17   376.22   379.72   386.40
eigval :      406.74   407.66   412.08   424.03   427.14   433.06
eigval :      435.36   452.22   464.93   482.07   499.53   515.85
eigval :      526.55   537.58   540.57   543.93   553.81   557.27
eigval :      581.33   584.23   586.25   587.15   589.34   591.01
eigval :      595.50   601.12   609.24   622.71   642.19   646.05
eigval :      651.40   656.40   660.97   669.19   673.00   673.14
eigval :      680.13   681.85   697.55   706.38   736.95   746.91
eigval :      765.73   765.80   773.50   774.54   776.40   788.31
eigval :      802.94   819.25   834.54   835.81   838.01   854.90
eigval :      857.20   868.22   871.37   875.19   876.07   877.01
eigval :      881.81   885.05   895.49   902.25   904.75   907.12
eigval :      909.40   911.96   916.24   917.87   920.15   922.06
eigval :      922.77   925.65   927.43   929.94   931.67   935.44
eigval :      938.98   946.84   955.78   978.80   985.70   994.42
eigval :      997.24  1011.59  1028.93  1052.80  1067.85  1071.40
eigval :     1074.68  1076.46  1080.38  1081.45  1085.05  1104.06
eigval :     1108.82  1110.89  1118.43  1124.16  1126.81  1141.09
eigval :     1147.55  1151.40  1166.12  1168.98  1175.22  1176.80
eigval :     1178.89  1179.06  1181.70  1183.47  1191.32  1196.49
eigval :     1202.05  1204.83  1213.72  1223.68  1238.36  1240.80
eigval :     1252.97  1257.20  1268.17  1274.24  1275.55  1278.71
eigval :     1286.35  1289.81  1297.53  1308.57  1315.34  1317.27
eigval :     1324.05  1326.06  1329.12  1330.27  1344.74  1357.10
eigval :     1362.14  1368.34  1383.52  1393.06  1396.37  1403.86
eigval :     1414.80  1419.53  1424.72  1427.77  1429.50  1435.75
eigval :     1436.30  1447.23  1462.21  1463.12  1468.20  1472.62
eigval :     1477.19  1478.49  1479.94  1480.95  1482.20  1488.36
eigval :     1491.57  1497.19  1533.24  1549.08  1559.89  1571.61
eigval :     1579.39  1580.22  1583.28  1583.44  1590.56  1591.95
eigval :     1593.64  1594.83  1600.37  3025.18  3027.45  3047.24
eigval :     3049.37  3054.42  3058.52  3059.84  3062.06  3069.24
eigval :     3070.63  3071.47  3074.35  3076.45  3077.13  3077.44
eigval :     3080.26  3082.03  3082.93  3083.48  3084.63  3088.60
eigval :     3089.05  3089.77  3090.08  3091.39  3092.54  3093.63
eigval :     3095.27  3095.75  3098.70  3099.01  3099.61  3103.88
eigval :     3104.85  3106.45  3124.06

   temp. (K)  partition function   enthalpy   heat capacity  entropy
                                   cal/mol     cal/K/mol   cal/K/mol   J/K/mol
 298.15  VIB  0.189E+21            25622.385    160.929    160.499
         ROT  0.124E+09              888.752      2.981     40.008
         INT  0.233E+29            26511.138    163.910    200.507
         TR   0.172E+29             1481.254      4.968     45.415
         TOT                       27992.3917   168.8784   245.9219  1028.9374

       T/K    H(0)-H(T)+PV         H(T)/Eh          T*S/Eh         G(T)/Eh
   ------------------------------------------------------------------------
    298.15    0.446087E-01    0.735287E+00    0.116845E+00    0.618442E+00
   ------------------------------------------------------------------------

         :::::::::::::::::::::::::::::::::::::::::::::::::::::
         ::                  THERMODYNAMIC                  ::
         :::::::::::::::::::::::::::::::::::::::::::::::::::::
         :: total free energy        -134.414261935425 Eh   ::
         ::.................................................::
         :: total energy             -135.032703915941 Eh   ::
         :: zero point energy           0.690678714995 Eh   ::
         :: G(RRHO) w/o ZPVE           -0.072236734480 Eh   ::
         :: G(RRHO) contrib.            0.618441980516 Eh   ::
         :::::::::::::::::::::::::::::::::::::::::::::::::::::

           -------------------------------------------------
          | TOTAL ENERGY             -135.032703915941 Eh   |
          | TOTAL ENTHALPY           -134.297416485316 Eh   |
          | TOTAL FREE ENERGY        -134.414261935425 Eh   |
          | GRADIENT NORM               0.000074199331 Eh/α |
          | HOMO-LUMO GAP               0.375858195372 eV   |
           -------------------------------------------------

 * finished run on 2025/09/12 at 18:37:55.992
