   * xtb version 6.7.1 (edcfbbe) compiled by 'albert@albert-system' on 2024-07-22

   ID    Z sym.   atoms
    1    6 C      1-9, 11-23, 25-31, 33-46, 48-53
    2    7 N      10, 24, 32, 47
    3    1 H      54-89

          program call               : xtb data2507/toluene/23AcCz-PM/23AcCz-PM_toluene_S0_crest.xyz --gfn 2 --gbsa toluene --ohess vtight --parallel 40 --molden --ceasefiles --namespace data2507/toluene/23AcCz-PM/23AcCz-PM_toluene_S0_finalOpt
      * Solvation model:               GBSA
        Solvent                        toluene
        Solvent mass                       9.2140E+01 g/mol
          :  Hamiltonian                  GFN2-xTB          :
 * total energy  :  -135.1054288 Eh     change       -0.4280281E-08 Eh
 * total energy  :  -135.1054931 Eh     change       -0.6423453E-04 Eh
 * total energy  :  -135.1055725 Eh     change       -0.7942377E-04 Eh
 * total energy  :  -135.1056082 Eh     change       -0.3567651E-04 Eh
 * total energy  :  -135.1057042 Eh     change       -0.9606049E-04 Eh
 * total energy  :  -135.1057528 Eh     change       -0.4857105E-04 Eh
 * total energy  :  -135.1057725 Eh     change       -0.1972459E-04 Eh
 * total energy  :  -135.1058062 Eh     change       -0.3370372E-04 Eh
 * total energy  :  -135.1058187 Eh     change       -0.1250275E-04 Eh
 * total energy  :  -135.1058460 Eh     change       -0.2726272E-04 Eh
 * total energy  :  -135.1068098 Eh     change       -0.7015849E-06 Eh
 * total energy  :  -135.1068105 Eh     change       -0.6822417E-06 Eh
 * total energy  :  -135.1068110 Eh     change       -0.4912893E-06 Eh
 * total energy  :  -135.1068113 Eh     change       -0.3659465E-06 Eh
 * total energy  :  -135.1068117 Eh     change       -0.3371065E-06 Eh
 * total energy  :  -135.1068121 Eh     change       -0.4090535E-06 Eh
 * total energy  :  -135.1068125 Eh     change       -0.4597683E-06 Eh
 * total energy  :  -135.1068130 Eh     change       -0.4344454E-06 Eh
 * total energy  :  -135.1068130 Eh     change       -0.6266788E-08 Eh
   *** GEOMETRY OPTIMIZATION CONVERGED AFTER 94 ITERATIONS ***

 final structure:
================
89
 xtb: 6.7.1 (edcfbbe)
C           -6.19663363160540       -2.65432050095976       -1.14057719806923
C           -5.41448053437498       -2.31980202476213        0.14375488215518
C           -6.37997979839766       -2.20653115232518        1.33908261267647
C           -4.43436618003478       -3.44307649217328        0.42671429613550
C           -4.90977753681981       -4.73257962217533        0.62538816908748
C           -4.06792350065695       -5.79144839156712        0.91255858589436
C           -2.70730233829646       -5.56393332800891        1.01940325512488
C           -2.20768454582193       -4.29296766990246        0.82794368010809
C           -3.05546017343644       -3.22519056855840        0.51733364961322
N           -2.52207802382888       -1.96008549936568        0.33050760519378
C           -1.11635111521033       -1.76850987407658        0.39788581623194
C           -0.29748555712858       -2.18520407940175       -0.64673838522707
C            1.05688688356651       -1.91857318159451       -0.61094213305671
C            1.61100371254141       -1.21114401889556        0.45380563686182
C            3.03659951688631       -0.85671852347804        0.42736045103554
C            3.49129923190474        0.36416648647475        0.92278253714410
C            4.85418439790812        0.63408810558611        0.79897847981948
C            5.44969592745856        1.90641319644508        1.22814089382209
C            6.61873401402501        2.35273780126118        0.61285534749292
C            7.19204753003816        3.55391419859005        0.98357815242950
C            6.61113431277195        4.32246508895905        1.98010409258164
C            5.45654602525422        3.88093470007872        2.60615106157419
C            4.87599010912321        2.68243630594907        2.23370335556431
N            5.67599980200391       -0.25879281693951        0.24898979229510
C            5.16124917519831       -1.40516831856028       -0.18214397494796
C            6.08288609738836       -2.38639577868133       -0.76321968483240
C            7.44526680898072       -2.10510883851212       -0.85309918326930
C            8.31283791866478       -3.03585775979942       -1.39206974322786
C            7.83242322987064       -4.25515655645147       -1.84465067610462
C            6.47880432059044       -4.54187245502994       -1.75677614205267
C            5.60651270615982       -3.61471781239681       -1.21918525422689
N            3.87247037977046       -1.73050020971581       -0.12731716777378
C            0.79265005194848       -0.82757068399117        1.51406240385418
C           -0.55780689061299       -1.11367921560579        1.49164866608147
C           -3.31643550180485       -0.85874777659179        0.03963807675357
C           -2.69826470421606        0.37216293350238       -0.18309069706020
C           -3.47782195079277        1.47295950485905       -0.47345747515678
C           -4.88200642199619        1.37222355021327       -0.53556538846913
C           -5.47894634686193        0.13696062649158       -0.32914466704728
C           -4.71601837474464       -0.98494346072020       -0.05019312468903
C           -5.37333880357757        2.69263436096531       -0.81174718410243
C           -6.64206835322960        3.22265852593564       -1.00582753955401
C           -6.76388116660607        4.57119761068878       -1.28062467192086
C           -5.63924003840032        5.38695540507697       -1.37636319145624
C           -4.36502774375068        4.88283405747237       -1.18809712328397
C           -4.23723259490601        3.53464692585032       -0.89083380949228
N           -3.09501811352684        2.78238794694813       -0.68822449220095
C           -1.77511334277066        3.25381814489760       -0.63588932156420
C           -0.77571060730797        2.61389316639419       -1.36527354501415
C            0.53320490441150        3.05156696267347       -1.27859983679866
C            0.85658104961626        4.13644742826568       -0.47987137796711
C           -0.13865779290161        4.78542990600621        0.23286909673523
C           -1.44816083968347        4.34562635066837        0.16398662868562
H           -5.51266569793022       -2.71657564084826       -1.98538792724147
H           -6.93578528187013       -1.88757865400017       -1.35485272160947
H           -6.71223302716108       -3.60582148724736       -1.04538724910620
H           -6.92410118565037       -3.13517168711890        1.48750508205704
H           -5.82103407567130       -1.98741218826874        2.24743346381626
H           -7.10179850699091       -1.41015543950489        1.18049298487570
H           -5.97023165544501       -4.92319350506647        0.55766683992164
H           -4.47253356390439       -6.78178318165817        1.05884622596725
H           -2.03238388010048       -6.37357773410083        1.25596449854143
H           -1.14683529203257       -4.11920305985238        0.92519007926696
H           -0.73232255561211       -2.70617860036018       -1.48695660385501
H            1.69993397678714       -2.22759899637621       -1.42066313786232
H            2.80502659587619        1.08656129037495        1.33115566666273
H            7.05834453272883        1.74407031160199       -0.16236565210434
H            8.09413276553613        3.89248874795708        0.49538781726403
H            7.05887872326784        5.26111987654676        2.27151201093694
H            5.00670348082348        4.47238867800328        3.39029888929090
H            3.98735224185249        2.34089577099639        2.74353177324492
H            7.80424997548099       -1.15449467659799       -0.49051575669331
H            9.36774388239644       -2.81266852265961       -1.45842901301434
H            8.51247080609896       -4.98197877138887       -2.26443911462216
H            6.10415882494492       -5.49246297940374       -2.10755132322574
H            4.55115493286893       -3.82450089335732       -1.13918629451804
H            1.21531547785928       -0.31751245444250        2.36681562848671
H           -1.19504266113981       -0.81152356882059        2.30964733348304
H           -1.62772512249699        0.46922519392917       -0.12108119252426
H           -6.55355734976910        0.06340573403617       -0.38745154834552
H           -7.51488431073868        2.58924554217111       -0.94644123747273
H           -7.74315954526523        5.00159381628594       -1.43257592892995
H           -5.76403545556033        6.43532471425346       -1.60617459403708
H           -3.49810264941451        5.51992141618190       -1.28138021970213
H           -1.03175869161705        1.78293541660315       -2.00555569521589
H            1.30344982341011        2.54558505962554       -1.84286188199947
H            1.88036326366720        4.47431631776548       -0.41410279945349
H            0.10746301707622        5.63271070394311        0.85605146361467
H           -2.22080415369118        4.83390476835567        0.73913593892573

          :  Hamiltonian                  GFN2-xTB          :
         :: gradient norm              0.000055638324 Eh/a0 ::
         :: HOMO-LUMO gap              1.622223079631 eV    ::
         :: SCC energy              -137.594595361604 Eh    ::
         :: -> dispersion             -0.124801566699 Eh    ::
         :: -> Gsolv                  -0.056721938062 Eh    ::
         :: repulsion energy           2.487782393206 Eh    ::

    * Orbital Energies and Occupations

         #    Occupation            Energy/Eh            Energy/eV
      -------------------------------------------------------------
         1        2.0000           -0.6783411             -18.4586
       ...           ...                  ...                  ...
       114        2.0000           -0.4098613             -11.1529
       115        2.0000           -0.4088479             -11.1253
       116        2.0000           -0.4082910             -11.1102
       117        2.0000           -0.4070192             -11.0756
       118        2.0000           -0.4053351             -11.0297
       119        2.0000           -0.4022714             -10.9464
       120        2.0000           -0.4002571             -10.8916
       121        2.0000           -0.3976775             -10.8214
       122        2.0000           -0.3934318             -10.7058
       123        2.0000           -0.3846312             -10.4663
       124        2.0000           -0.3661479              -9.9634
       125        2.0000           -0.3584946              -9.7551
       126        2.0000           -0.3429669              -9.3326 (HOMO)
       127                         -0.2833513              -7.7104 (LUMO)
       128                         -0.2758594              -7.5065
       129                         -0.2451690              -6.6714
       130                         -0.2417833              -6.5793
       131                         -0.2394569              -6.5160
       132                         -0.2329340              -6.3385
       133                         -0.2318205              -6.3082
       134                         -0.2306585              -6.2765
       135                         -0.2258614              -6.1460
       136                         -0.2190636              -5.9610
       137                         -0.2173447              -5.9143
       ...                                ...                  ...
       248                          0.7511838              20.4408
      -------------------------------------------------------------
                  HL-Gap            0.0596156 Eh            1.6222 eV

     #   Z          covCN         q      C6AA      α(0)
     1   6 C        3.761    -0.103    22.521     6.765
     2   6 C        3.909     0.022    20.152     6.381
     3   6 C        3.761    -0.103    22.516     6.764
     4   6 C        2.979    -0.014    28.352     8.734
     5   6 C        2.928    -0.038    28.938     8.822
     6   6 C        2.917    -0.047    29.156     8.855
     7   6 C        2.919    -0.035    28.870     8.811
     8   6 C        2.924    -0.060    29.491     8.906
     9   6 C        2.926     0.058    26.689     8.472
    10   7 N        2.755    -0.071    22.609     7.062
    11   6 C        2.928     0.073    26.378     8.423
    12   6 C        2.920    -0.037    28.920     8.819
    13   6 C        2.924    -0.024    28.597     8.770
    14   6 C        2.980     0.001    28.011     8.682
    15   6 C        2.970     0.113    25.497     8.283
    16   6 C        2.913    -0.071    29.779     8.948
    17   6 C        2.965     0.113    25.503     8.283
    18   6 C        2.979    -0.000    28.024     8.684
    19   6 C        2.926    -0.024    28.611     8.772
    20   6 C        2.918    -0.027    28.686     8.783
    21   6 C        2.920    -0.026    28.643     8.776
    22   6 C        2.918    -0.028    28.711     8.787
    23   6 C        2.923    -0.032    28.789     8.799
    24   7 N        1.849    -0.291    28.391     7.897
    25   6 C        2.944     0.190    23.958     8.028
    26   6 C        2.984    -0.004    28.122     8.699
    27   6 C        2.924    -0.028    28.713     8.787
    28   6 C        2.918    -0.029    28.717     8.788
    29   6 C        2.920    -0.025    28.639     8.776
    30   6 C        2.918    -0.029    28.717     8.788
    31   6 C        2.924    -0.029    28.717     8.788
    32   7 N        1.848    -0.292    28.413     7.900
    33   6 C        2.922    -0.031    28.778     8.797
    34   6 C        2.921    -0.038    28.937     8.821
    35   6 C        2.931     0.056    26.737     8.480
    36   6 C        2.916    -0.085    30.131     9.001
    37   6 C        3.080     0.046    26.876     8.499
    38   6 C        3.062    -0.031    28.718     8.788
    39   6 C        2.920    -0.042    29.035     8.836
    40   6 C        2.977    -0.022    28.550     8.765
    41   6 C        3.069    -0.018    28.375     8.734
    42   6 C        2.912    -0.037    28.931     8.820
    43   6 C        2.919    -0.044    29.092     8.845
    44   6 C        2.923    -0.038    28.938     8.822
    45   6 C        2.910    -0.053    29.318     8.879
    46   6 C        3.077     0.046    26.882     8.500
    47   7 N        2.800    -0.051    22.232     7.003
    48   6 C        2.912     0.065    26.536     8.447
    49   6 C        2.922    -0.043    29.076     8.843
    50   6 C        2.919    -0.029    28.721     8.788
    51   6 C        2.919    -0.034    28.853     8.808
    52   6 C        2.920    -0.029    28.714     8.787
    53   6 C        2.922    -0.043    29.070     8.842
    54   1 H        0.925     0.030     2.590     2.517
    55   1 H        0.925     0.041     2.434     2.440
    56   1 H        0.925     0.041     2.437     2.441
    57   1 H        0.925     0.041     2.437     2.441
    58   1 H        0.925     0.029     2.595     2.519
    59   1 H        0.925     0.041     2.435     2.440
    60   1 H        0.926     0.032     2.559     2.501
    61   1 H        0.926     0.025     2.654     2.548
    62   1 H        0.926     0.026     2.637     2.539
    63   1 H        0.926     0.024     2.667     2.554
    64   1 H        0.926     0.049     2.327     2.385
    65   1 H        0.926     0.053     2.277     2.360
    66   1 H        0.926     0.038     2.470     2.457
    67   1 H        0.926     0.048     2.345     2.394
    68   1 H        0.926     0.041     2.429     2.437
    69   1 H        0.926     0.042     2.425     2.435
    70   1 H        0.926     0.040     2.445     2.445
    71   1 H        0.926     0.035     2.513     2.479
    72   1 H        0.926     0.051     2.312     2.378
    73   1 H        0.926     0.041     2.433     2.439
    74   1 H        0.926     0.042     2.420     2.433
    75   1 H        0.926     0.041     2.435     2.440
    76   1 H        0.926     0.051     2.310     2.377
    77   1 H        0.926     0.043     2.413     2.429
    78   1 H        0.926     0.048     2.346     2.395
    79   1 H        0.926     0.025     2.653     2.547
    80   1 H        0.926     0.035     2.519     2.482
    81   1 H        0.926     0.027     2.624     2.533
    82   1 H        0.926     0.025     2.663     2.552
    83   1 H        0.926     0.026     2.639     2.540
    84   1 H        0.926     0.026     2.641     2.541
    85   1 H        0.926     0.039     2.463     2.454
    86   1 H        0.926     0.033     2.543     2.494
    87   1 H        0.926     0.036     2.499     2.472
    88   1 H        0.926     0.040     2.443     2.444
    89   1 H        0.926     0.042     2.426     2.436

molecular dipole:
                 x           y           z       tot (Debye)
 q only:        0.738       0.363       0.132
   full:        0.590       0.644       0.320       2.364

 projected vibrational frequencies (cm⁻¹)
eigval :       -0.00    -0.00    -0.00     0.00     0.00     0.00
eigval :       -8.86     7.63    13.27    19.48    27.62    29.05
eigval :       29.99    38.66    42.70    52.47    54.71    60.32
eigval :       69.40    77.23    81.25    94.19    98.58   108.42
eigval :      112.33   129.59   147.05   148.20   161.29   184.74
eigval :      196.46   201.80   204.27   208.92   210.45   218.37
eigval :      227.55   246.04   259.39   265.59   272.74   294.13
eigval :      297.71   317.25   332.05   336.07   338.46   363.66
eigval :      365.20   366.43   374.14   377.90   382.51   386.90
eigval :      402.03   410.20   417.31   426.31   431.97   436.41
eigval :      449.61   451.54   479.57   485.09   495.06   512.94
eigval :      534.79   541.26   545.57   550.93   560.57   584.89
eigval :      585.93   587.00   588.98   598.61   602.25   603.16
eigval :      605.88   619.59   631.26   634.57   638.33   654.83
eigval :      662.27   664.75   670.97   674.27   680.30   685.65
eigval :      693.80   703.45   706.94   736.05   739.95   762.99
eigval :      764.03   774.15   776.15   776.94   779.31   816.43
eigval :      829.27   833.75   842.82   849.39   855.63   865.24
eigval :      868.63   870.79   872.81   873.34   878.06   883.63
eigval :      891.65   899.82   902.83   907.37   908.39   912.97
eigval :      919.87   920.25   920.73   921.22   924.78   925.99
eigval :      926.32   929.74   930.57   930.62   931.77   935.74
eigval :      938.83   955.49   970.18   987.56   994.87  1012.09
eigval :     1014.15  1025.81  1034.59  1070.43  1074.70  1077.64
eigval :     1078.53  1080.24  1086.26  1087.91  1104.51  1110.36
eigval :     1115.84  1118.98  1124.17  1127.81  1129.79  1154.48
eigval :     1157.61  1168.99  1170.23  1177.20  1177.83  1178.00
eigval :     1178.84  1179.60  1186.31  1190.26  1194.70  1196.64
eigval :     1201.08  1217.88  1221.22  1238.36  1244.57  1246.58
eigval :     1251.33  1259.87  1264.82  1268.75  1276.43  1277.45
eigval :     1280.05  1292.38  1310.09  1315.20  1319.08  1321.25
eigval :     1326.02  1328.11  1333.68  1356.13  1360.36  1363.25
eigval :     1365.53  1384.09  1395.36  1398.74  1404.86  1417.28
eigval :     1425.30  1428.93  1433.45  1436.49  1438.80  1449.40
eigval :     1466.83  1467.26  1474.52  1480.07  1482.55  1482.62
eigval :     1487.56  1489.66  1491.12  1497.32  1504.87  1513.10
eigval :     1528.62  1561.10  1563.59  1579.20  1580.57  1581.62
eigval :     1583.39  1587.86  1590.55  1593.27  1593.70  1594.76
eigval :     1594.90  1602.46  1615.34  3020.42  3023.00  3038.62
eigval :     3040.67  3047.28  3051.58  3069.17  3071.53  3072.17
eigval :     3072.20  3073.31  3074.15  3076.15  3076.89  3077.43
eigval :     3078.58  3080.76  3081.41  3084.03  3085.89  3086.62
eigval :     3087.43  3089.09  3089.60  3091.14  3091.44  3091.96
eigval :     3093.73  3095.98  3096.35  3100.14  3100.46  3102.00
eigval :     3103.41  3111.66  3121.88

   temp. (K)  partition function   enthalpy   heat capacity  entropy
                                   cal/mol     cal/K/mol   cal/K/mol   J/K/mol
 298.15  VIB  0.304E+21            25396.751    158.852    159.141
         ROT  0.121E+09              888.752      2.981     39.970
         INT  0.369E+29            26285.504    161.833    199.111
         TR   0.172E+29             1481.254      4.968     45.415
         TOT                       27766.7578   166.8009   244.5256  1023.0952

       T/K    H(0)-H(T)+PV         H(T)/Eh          T*S/Eh         G(T)/Eh
   ------------------------------------------------------------------------
    298.15    0.442491E-01    0.738543E+00    0.116182E+00    0.622361E+00
   ------------------------------------------------------------------------

         :::::::::::::::::::::::::::::::::::::::::::::::::::::
         ::                  THERMODYNAMIC                  ::
         :::::::::::::::::::::::::::::::::::::::::::::::::::::
         :: total free energy        -134.484451734306 Eh   ::
         ::.................................................::
         :: total energy             -135.106812969717 Eh   ::
         :: zero point energy           0.694294101308 Eh   ::
         :: G(RRHO) w/o ZPVE           -0.071932865897 Eh   ::
         :: G(RRHO) contrib.            0.622361235411 Eh   ::
         :::::::::::::::::::::::::::::::::::::::::::::::::::::

           -------------------------------------------------
          | TOTAL ENERGY             -135.106812969717 Eh   |
          | TOTAL ENTHALPY           -134.368269723338 Eh   |
          | TOTAL FREE ENERGY        -134.484451734306 Eh   |
          | GRADIENT NORM               0.000055645367 Eh/α |
          | HOMO-LUMO GAP               1.622223691590 eV   |
           -------------------------------------------------

 * finished run on 2025/09/12 at 18:27:39.681
