   * xtb version 6.7.1 (edcfbbe) compiled by 'albert@albert-system' on 2024-07-22

   ID    Z sym.   atoms
    1    7 N      1, 6, 25, 51, 70, 98
    2    6 C      2-5, 7-24, 26-50, 52-69, 71-97
    3    1 H      99-166

          program call               : xtb data2507/toluene/BPCP-2CPC/BPCP-2CPC_toluene_S0_finalOpt.xtbopt.xyz --gfn 2 --uhf 2 --gbsa toluene --ohess vtight --parallel 40 --molden --ceasefiles --namespace data2507/toluene/BPCP-2CPC/BPCP-2CPC_toluene_T1_preOpt
      * Solvation model:               GBSA
        Solvent                        toluene
        Solvent mass                       9.2140E+01 g/mol
          :  Hamiltonian                  GFN2-xTB          :
 * total energy  :  -249.3894489 Eh     change       -0.1250228E-06 Eh
 * total energy  :  -249.3931881 Eh     change       -0.3739185E-02 Eh
 * total energy  :  -249.3939323 Eh     change       -0.7442079E-03 Eh
 * total energy  :  -249.3938519 Eh     change        0.8041502E-04 Eh
 * total energy  :  -249.3941008 Eh     change       -0.2489334E-03 Eh
 * total energy  :  -249.3941066 Eh     change       -0.5713081E-05 Eh
 * total energy  :  -249.3941360 Eh     change       -0.2948363E-04 Eh
 * total energy  :  -249.3941529 Eh     change       -0.1681615E-04 Eh
 * total energy  :  -249.3941732 Eh     change       -0.2031060E-04 Eh
 * total energy  :  -249.3941817 Eh     change       -0.8556964E-05 Eh
 * total energy  :  -249.3941958 Eh     change       -0.1566106E-05 Eh
 * total energy  :  -249.3941977 Eh     change       -0.1892815E-05 Eh
 * total energy  :  -249.3941983 Eh     change       -0.6305932E-06 Eh
 * total energy  :  -249.3941985 Eh     change       -0.1213726E-06 Eh
 * total energy  :  -249.3941991 Eh     change       -0.6217464E-06 Eh
 * total energy  :  -249.3942000 Eh     change       -0.8938655E-06 Eh
 * total energy  :  -249.3942004 Eh     change       -0.4807709E-06 Eh
 * total energy  :  -249.3942004 Eh     change        0.5277326E-07 Eh
 * total energy  :  -249.3942005 Eh     change       -0.8006450E-07 Eh
   *** GEOMETRY OPTIMIZATION CONVERGED AFTER 23 ITERATIONS ***

 final structure:
================
166
 xtb: 6.7.1 (edcfbbe)
N           12.16508491229573       -1.31132982861070        2.08814092225504
C           11.23927622067835       -1.09123560759694        1.42379188798548
C           10.11975344572374       -0.81819153223180        0.65740085347693
C            8.86256910504885       -0.70095521387558        1.25730890527091
C            7.72248180356292       -0.44986872753162        0.52806723393925
N            6.48160051632449       -0.35579878493641        1.17224579323317
C            6.19270917983077        0.52007091836264        2.20391246409108
C            7.02701061138458        1.41136814767921        2.86388090750577
C            6.47196801612707        2.20776885883973        3.84963278370802
C            5.11922873455244        2.12611539975010        4.17112344775633
C            4.27975000037572        1.25106922935962        3.50490958653401
C            4.81361635280691        0.44493693822293        2.51061495789704
C            4.25412979559063       -0.54259706373061        1.62813353088311
C            2.98478803885918       -1.06851205000045        1.47721044258590
C            2.76967070192534       -2.07950885717319        0.54126595853606
C            1.44470878878436       -2.68830384351485        0.39216036566389
C            0.95177309926313       -3.07726669962751       -0.85376497699010
C           -0.27082641405524       -3.70774434188181       -0.96814370077450
C           -1.04685050295994       -4.00860767464819        0.15109991312633
C           -2.36696871934562       -4.74940835021479       -0.01630328854871
C           -3.37646136771108       -3.74037228338087       -0.54928861262010
C           -4.20134075793314       -3.97324982272625       -1.64426458040968
C           -5.16467684356403       -3.05648819523964       -2.02872871324628
C           -5.32511362882646       -1.87164053718938       -1.31940917043887
N           -6.32356733568533       -0.94777865675807       -1.65499814935137
C           -6.15238061625158        0.41669527946673       -1.76453086039121
C           -4.98867705651914        1.17103398250117       -1.69600666596258
C           -5.09426030096577        2.53983821180992       -1.85618360151593
C           -6.32182100625454        3.14909158572651       -2.10256936788919
C           -7.47994865529106        2.39938704680843       -2.20943041793146
C           -7.39954661423505        1.02542803908439       -2.03966035745603
C           -8.36881861644682       -0.03636910095498       -2.08558450812636
C           -9.73938119367173       -0.06825364565661       -2.29511348481708
C          -10.38945702393622       -1.28817021116966       -2.24116152451259
C           -9.69008133575559       -2.46075121333949       -1.96654434751108
C           -8.32320592546559       -2.45375237790566       -1.75783380557785
C           -7.66117078218129       -1.23600119401780       -1.83786595037821
C           -4.47697671625835       -1.61145912659967       -0.24708818806468
C           -3.52251450264248       -2.53071063818950        0.12814363344230
C           -2.19366104600611       -5.96621772297782       -0.94351800443336
C           -1.24434024899791       -6.99370111854381       -0.33271998156966
C           -1.82704263881485       -7.52691772730413        0.97144042081425
C           -2.05917861411574       -6.37276512550832        1.94013041499070
C           -2.94098242312702       -5.29494458665785        1.31082290007560
C           -0.58000299166194       -3.56246312252723        1.38501626454134
C            0.63611333398402       -2.91890307684125        1.50437585935572
C            3.85136190474609       -2.55719371235112       -0.21818377578005
C            5.12495010135156       -2.05080769879849       -0.07864943363980
C            5.32487193941534       -1.01531850589558        0.82820669815955
C            7.82311644610520       -0.28531918263101       -0.90615893104131
N            6.68007662045205       -0.00840129598792       -1.66572605433165
C            6.22184677603598       -0.77369931198592       -2.72404175259932
C            6.81372333599801       -1.86319092539280       -3.34726416710239
C            6.11767757518660       -2.47759854042623       -4.37310828338720
C            4.86038184662947       -2.02697756907492       -4.76790342169058
C            4.25735092182048       -0.95307250511923       -4.13736683494929
C            4.93590034554213       -0.32219650129956       -3.10544382444177
C            4.61633159806471        0.77741768564109       -2.23588024875410
C            3.50976261150720        1.59372356651627       -2.09998147335142
C            3.51241760198573        2.58953772685486       -1.12380005562910
C            2.29987827422850        3.37838566548367       -0.89554607289082
C            1.87388426931338        3.66986333794931        0.40161247618021
C            0.66406157665777        4.29246604740836        0.62070000259808
C           -0.16814193453868        4.66563855470747       -0.43712650565635
C           -1.54338645874241        5.22055303592199       -0.09656297056907
C           -2.34050637078693        4.09258835015619        0.54881659106694
C           -2.02852604797722        2.76186424576961        0.28093152184645
C           -2.75435128530691        1.72672081901415        0.83467123176229
C           -3.84363950516273        1.99833488051470        1.65538324210633
N           -4.59899928473406        0.94254802408677        2.19071419519092
C           -4.09290406489689       -0.15085307391276        2.86307801471892
C           -2.79209239209043       -0.40727377358945        3.27579301407246
C           -2.55361730461156       -1.58839965538830        3.95347351828036
C           -3.57829529668232       -2.49502354054376        4.21769485710126
C           -4.87827327501515       -2.23680562272658        3.82259991847282
C           -5.14384531279379       -1.05606316086008        3.14432439843312
C           -6.33993406701610       -0.47324465041057        2.59745835195630
C           -7.66013274982242       -0.89279172169830        2.52070439866692
C           -8.57453420760562       -0.08523193226548        1.86933466395871
C           -8.18347952981348        1.11854352529537        1.28855386045202
C           -6.87440176886621        1.55787926421737        1.34993460348192
C           -5.95707444842740        0.76083477601892        2.02026997455519
C           -4.18024143950219        3.32124230063696        1.91745252335968
C           -3.43201814796837        4.34827274398779        1.37321964989490
C           -1.34984555197278        6.43254091701724        0.85726437239236
C           -2.31122320363134        7.58617359496803        0.58229304713894
C           -2.11169048448656        8.14917823476149       -0.82729368773225
C           -1.81592098950495        7.03090621639430       -1.83725745178615
C           -2.33870732118144        5.68945492358708       -1.33171716334124
C            0.29068021827573        4.43344690274275       -1.72899088939239
C            1.49783388323808        3.79815298549576       -1.95422127031273
C            4.66259124579683        2.79519676565194       -0.34459920594168
C            5.77933922832064        1.99929457099713       -0.47212815770434
C            5.73318114764107        0.94664314792197       -1.38040364657912
C            9.05265943687084       -0.40213980225523       -1.51394606938057
C           10.21882122796572       -0.66424317337451       -0.78939631450647
C           11.43981926262693       -0.75752137113001       -1.43436885396443
N           12.45118214507805       -0.84208945711445       -1.99726384218630
H            8.78845393827184       -0.84718228174944        2.32667608196946
H            8.07536552868082        1.48794589154527        2.61555507064201
H            7.10308607605043        2.90672395052969        4.37805468167659
H            4.72350383894401        2.76200864945943        4.94898762285564
H            3.22935120950803        1.19867780352663        3.74755935980023
H            2.16755673287785       -0.68927810405401        2.07092330684149
H            1.52805201143253       -2.86667712698951       -1.74303961681098
H           -0.62059430169907       -3.97135057261130       -1.95464577139875
H           -4.10770695204710       -4.87868932995292       -2.22121710998332
H           -5.78597108970551       -3.25588503468417       -2.88914856472583
H           -4.02766776673522        0.70881875146575       -1.53639300326748
H           -4.20353979736840        3.14523244610883       -1.78714001155871
H           -6.36621710182663        4.22121083658220       -2.22436647341561
H           -8.42742268400352        2.87140797289603       -2.42143520579237
H          -10.28643742083059        0.84169054257400       -2.49069983976194
H          -11.45617386270705       -1.33458632772432       -2.40350214007873
H          -10.22761789796087       -3.39601631340979       -1.91329158814581
H           -7.79394093630944       -3.36520544777147       -1.52705253259710
H           -4.60050494756729       -0.69484876683566        0.30196012270688
H           -2.88999004568556       -2.31024671090522        0.97455468942409
H           -3.16488503124356       -6.44657212507977       -1.07799405978322
H           -1.82888669732712       -5.66338213655952       -1.92463982688510
H           -1.09422608429462       -7.81501767867357       -1.03747928419321
H           -0.27181060707134       -6.53444975863104       -0.14107469022652
H           -2.77385928160051       -8.03314146735384        0.76585936256539
H           -1.14847575217386       -8.25702774955923        1.41803070515464
H           -1.09149738124656       -5.95372035718577        2.21907364919773
H           -2.54002843378893       -6.74073281423439        2.84987335871895
H           -3.10896556563822       -4.48146698331515        2.01769212283514
H           -3.92018186408055       -5.72833889386553        1.08914347879650
H           -1.15996963011782       -3.71601650214156        2.28037309559752
H            0.98371002449661       -2.62577909623347        2.48408925466955
H            3.68826157134227       -3.37240460953083       -0.90685308091629
H            5.94657748956468       -2.46691078295542       -0.64176496822280
H            7.78383467946476       -2.22649365250276       -3.04181757695725
H            6.56088151908927       -3.32469076079734       -4.87525201281460
H            4.35048578034250       -2.53053750280595       -5.57563090899408
H            3.27688855846914       -0.61455529337514       -4.43558977168538
H            2.63952839237248        1.43791086931584       -2.71851261087939
H            2.47899057303330        3.36032708854777        1.24084283419831
H            0.33906261945143        4.46405402152910        1.63611943830341
H           -1.20465526041660        2.52020123788168       -0.37236268924238
H           -2.48591521755778        0.70322126089864        0.61788657445099
H           -1.99478157662568        0.29368884929993        3.08092043096412
H           -1.55144346809330       -1.81135553237291        4.28844052657075
H           -3.35184605134806       -3.40828971938846        4.74866085954540
H           -5.67167402231400       -2.93612451952624        4.03816316804370
H           -7.96305501069922       -1.83325974845273        2.95548854284931
H           -9.60631194218411       -0.39535398317580        1.79653387103252
H           -8.91720402158167        1.71966964367865        0.77353941277987
H           -6.57402751676392        2.47972572283403        0.87686075052163
H           -5.01739375147718        3.54177903775439        2.56302272980047
H           -3.71022917133418        5.36306812137891        1.60708658786263
H           -0.33283191256828        6.81169399883253        0.73343200517461
H           -1.45340749825856        6.10888861210467        1.89437708010309
H           -2.13957260334579        8.37478375198913        1.31850014830545
H           -3.34418958420630        7.25741207307754        0.70022075581434
H           -1.28481052534632        8.86207056053841       -0.82521454393899
H           -3.00977906594120        8.69669177071713       -1.12089934970755
H           -2.27356585164123        7.26696098926008       -2.80005516491701
H           -0.73898730045577        6.95627246582739       -1.99529084712993
H           -3.38972544177034        5.79460893105454       -1.05782958531033
H           -2.29045748368934        4.93237180749293       -2.11504219095792
H           -0.29351041824212        4.72402329966257       -2.58705086785884
H            1.82527333717022        3.62914290308699       -2.96983871917727
H            4.67967290671355        3.61380493300805        0.35888987230314
H            6.66582701618478        2.19274859213997        0.11272610329753
H            9.13398911321542       -0.25468694772784       -2.58252409061111

          :  Hamiltonian                  GFN2-xTB          :
         :: gradient norm              0.000191859197 Eh/a0 ::
         :: HOMO-LUMO gap              0.531035975673 eV    ::
         :: SCC energy              -254.013834001830 Eh    ::
         :: -> dispersion             -0.274800789291 Eh    ::
         :: -> Gsolv                  -0.111437995302 Eh    ::
         :: repulsion energy           4.619633525544 Eh    ::

    * Orbital Energies and Occupations

         #    Occupation            Energy/Eh            Energy/eV
      -------------------------------------------------------------
         1        2.0000           -0.6895995             -18.7650
       ...           ...                  ...                  ...
       222        2.0000           -0.4011571             -10.9160
       223        2.0000           -0.4000698             -10.8865
       224        2.0000           -0.3964562             -10.7881
       225        2.0000           -0.3930030             -10.6942
       226        2.0000           -0.3907189             -10.6320
       227        2.0000           -0.3881664             -10.5625
       228        2.0000           -0.3873780             -10.5411
       229        2.0000           -0.3852255             -10.4825
       230        1.9731           -0.3719030             -10.1200
       231        1.8665           -0.3702704             -10.0756
       232        1.7906           -0.3697560             -10.0616
       233        1.3698           -0.3679875             -10.0135
       234        1.0000           -0.2761560              -7.5146 (HOMO)
       235        0.0000           -0.2566408              -6.9836 (LUMO)
       236        0.0000           -0.2555092              -6.9528
       237        0.0000           -0.2552574              -6.9459
       238        0.0000           -0.2535327              -6.8990
       239        0.0000           -0.2513493              -6.8396
       240                         -0.2503317              -6.8119
       241                         -0.2442642              -6.6468
       242                         -0.2390185              -6.5040
       243                         -0.2386784              -6.4948
       244                         -0.2350665              -6.3965
       245                         -0.2345183              -6.3816
       ...                                ...                  ...
       460                          1.1858977              32.2699
      -------------------------------------------------------------
                  HL-Gap            0.0195152 Eh            0.5310 eV

     #   Z          covCN         q      C6AA      α(0)
     1   7 N        0.911    -0.364    29.392     7.841
     2   6 C        1.910     0.096    28.703     8.652
     3   6 C        2.965    -0.027    28.662     8.781
     4   6 C        2.923    -0.037    28.931     8.821
     5   6 C        2.904     0.028    27.376     8.579
     6   7 N        2.799    -0.028    21.778     6.931
     7   6 C        3.078     0.049    26.829     8.492
     8   6 C        2.909    -0.043    29.065     8.840
     9   6 C        2.923    -0.032    28.809     8.802
    10   6 C        2.920    -0.035    28.880     8.813
    11   6 C        2.912    -0.031    28.766     8.795
    12   6 C        3.065    -0.014    28.294     8.722
    13   6 C        3.063    -0.015    28.329     8.728
    14   6 C        2.917    -0.035    28.878     8.812
    15   6 C        2.975     0.008    27.843     8.655
    16   6 C        2.975     0.009    27.812     8.651
    17   6 C        2.923    -0.035    28.865     8.811
    18   6 C        2.925    -0.035    28.880     8.813
    19   6 C        2.974     0.018    27.601     8.618
    20   6 C        3.910     0.012    20.314     6.406
    21   6 C        2.979     0.013    27.714     8.635
    22   6 C        2.924    -0.036    28.906     8.817
    23   6 C        2.920    -0.043    29.058     8.840
    24   6 C        2.913     0.059    26.678     8.470
    25   7 N        2.802    -0.027    21.764     6.929
    26   6 C        3.075     0.048    26.847     8.495
    27   6 C        2.910    -0.047    29.159     8.855
    28   6 C        2.923    -0.033    28.820     8.804
    29   6 C        2.920    -0.036    28.905     8.816
    30   6 C        2.912    -0.030    28.761     8.794
    31   6 C        3.066    -0.013    28.269     8.718
    32   6 C        3.067    -0.014    28.284     8.721
    33   6 C        2.912    -0.031    28.763     8.794
    34   6 C        2.920    -0.037    28.910     8.817
    35   6 C        2.923    -0.032    28.799     8.801
    36   6 C        2.910    -0.046    29.145     8.852
    37   6 C        3.075     0.048    26.848     8.495
    38   6 C        2.923    -0.044    29.088     8.845
    39   6 C        2.926    -0.034    28.842     8.807
    40   6 C        3.813    -0.059    21.625     6.619
    41   6 C        3.805    -0.053    21.527     6.605
    42   6 C        3.806    -0.056    21.573     6.612
    43   6 C        3.804    -0.055    21.563     6.611
    44   6 C        3.814    -0.055    21.557     6.608
    45   6 C        2.923    -0.037    28.920     8.819
    46   6 C        2.924    -0.036    28.888     8.814
    47   6 C        2.927    -0.038    28.934     8.821
    48   6 C        2.907    -0.043    29.075     8.842
    49   6 C        3.075     0.048    26.836     8.493
    50   6 C        2.904     0.028    27.375     8.579
    51   7 N        2.799    -0.027    21.764     6.929
    52   6 C        3.077     0.049    26.831     8.492
    53   6 C        2.909    -0.043    29.070     8.841
    54   6 C        2.923    -0.032    28.808     8.802
    55   6 C        2.920    -0.035    28.873     8.812
    56   6 C        2.912    -0.031    28.762     8.794
    57   6 C        3.065    -0.014    28.287     8.721
    58   6 C        3.063    -0.015    28.330     8.728
    59   6 C        2.918    -0.035    28.882     8.813
    60   6 C        2.977     0.008    27.845     8.656
    61   6 C        2.977     0.009    27.817     8.651
    62   6 C        2.923    -0.034    28.853     8.809
    63   6 C        2.925    -0.036    28.894     8.815
    64   6 C        2.976     0.014    27.705     8.634
    65   6 C        3.909     0.011    20.333     6.409
    66   6 C        2.977     0.013    27.713     8.635
    67   6 C        2.926    -0.034    28.858     8.810
    68   6 C        2.921    -0.041    29.016     8.833
    69   6 C        2.913     0.059    26.684     8.471
    70   7 N        2.802    -0.035    21.912     6.952
    71   6 C        3.074     0.049    26.828     8.492
    72   6 C        2.909    -0.047    29.164     8.855
    73   6 C        2.923    -0.032    28.801     8.801
    74   6 C        2.920    -0.038    28.939     8.822
    75   6 C        2.912    -0.031    28.782     8.797
    76   6 C        3.065    -0.014    28.304     8.724
    77   6 C        3.066    -0.016    28.336     8.729
    78   6 C        2.912    -0.032    28.796     8.799
    79   6 C        2.920    -0.037    28.930     8.820
    80   6 C        2.924    -0.031    28.780     8.798
    81   6 C        2.909    -0.047    29.166     8.856
    82   6 C        3.075     0.048    26.849     8.496
    83   6 C        2.920    -0.042    29.048     8.838
    84   6 C        2.925    -0.034    28.858     8.810
    85   6 C        3.808    -0.057    21.587     6.614
    86   6 C        3.802    -0.053    21.523     6.605
    87   6 C        3.803    -0.057    21.589     6.615
    88   6 C        3.803    -0.055    21.563     6.611
    89   6 C        3.811    -0.053    21.520     6.603
    90   6 C        2.921    -0.038    28.953     8.824
    91   6 C        2.924    -0.036    28.893     8.815
    92   6 C        2.926    -0.038    28.935     8.821
    93   6 C        2.908    -0.043    29.065     8.840
    94   6 C        3.077     0.048    26.834     8.493
    95   6 C        2.923    -0.038    28.937     8.822
    96   6 C        2.965    -0.027    28.661     8.781
    97   6 C        1.910     0.096    28.704     8.652
    98   7 N        0.911    -0.364    29.391     7.841
    99   1 H        0.925     0.028     2.609     2.526
   100   1 H        0.926     0.028     2.620     2.531
   101   1 H        0.926     0.037     2.494     2.469
   102   1 H        0.926     0.041     2.439     2.442
   103   1 H        0.926     0.044     2.393     2.419
   104   1 H        0.926     0.048     2.350     2.397
   105   1 H        0.926     0.033     2.545     2.495
   106   1 H        0.926     0.035     2.513     2.479
   107   1 H        0.926     0.050     2.315     2.380
   108   1 H        0.926     0.046     2.367     2.406
   109   1 H        0.926     0.037     2.483     2.464
   110   1 H        0.926     0.038     2.476     2.461
   111   1 H        0.926     0.036     2.499     2.472
   112   1 H        0.926     0.038     2.478     2.462
   113   1 H        0.926     0.038     2.477     2.461
   114   1 H        0.926     0.035     2.512     2.479
   115   1 H        0.926     0.037     2.489     2.467
   116   1 H        0.926     0.039     2.466     2.456
   117   1 H        0.926     0.042     2.422     2.434
   118   1 H        0.926     0.042     2.423     2.434
   119   1 H        0.924     0.041     2.438     2.442
   120   1 H        0.925     0.035     2.522     2.483
   121   1 H        0.924     0.028     2.619     2.531
   122   1 H        0.924     0.030     2.588     2.516
   123   1 H        0.924     0.031     2.566     2.505
   124   1 H        0.924     0.025     2.652     2.546
   125   1 H        0.924     0.037     2.493     2.469
   126   1 H        0.924     0.030     2.590     2.517
   127   1 H        0.924     0.036     2.507     2.476
   128   1 H        0.924     0.035     2.516     2.480
   129   1 H        0.926     0.045     2.381     2.413
   130   1 H        0.926     0.035     2.522     2.483
   131   1 H        0.926     0.039     2.456     2.451
   132   1 H        0.926     0.027     2.636     2.539
   133   1 H        0.926     0.028     2.609     2.526
   134   1 H        0.926     0.037     2.488     2.467
   135   1 H        0.926     0.041     2.437     2.441
   136   1 H        0.926     0.044     2.395     2.420
   137   1 H        0.926     0.047     2.360     2.402
   138   1 H        0.926     0.033     2.540     2.492
   139   1 H        0.926     0.035     2.515     2.480
   140   1 H        0.926     0.041     2.436     2.441
   141   1 H        0.926     0.043     2.405     2.425
   142   1 H        0.926     0.036     2.508     2.477
   143   1 H        0.926     0.036     2.508     2.477
   144   1 H        0.926     0.033     2.542     2.493
   145   1 H        0.926     0.036     2.509     2.477
   146   1 H        0.926     0.036     2.507     2.476
   147   1 H        0.926     0.032     2.557     2.501
   148   1 H        0.926     0.035     2.522     2.483
   149   1 H        0.926     0.035     2.513     2.479
   150   1 H        0.926     0.043     2.405     2.425
   151   1 H        0.926     0.051     2.310     2.377
   152   1 H        0.924     0.039     2.463     2.454
   153   1 H        0.924     0.035     2.515     2.480
   154   1 H        0.924     0.029     2.597     2.520
   155   1 H        0.924     0.034     2.525     2.485
   156   1 H        0.924     0.027     2.630     2.536
   157   1 H        0.924     0.028     2.615     2.529
   158   1 H        0.924     0.030     2.594     2.518
   159   1 H        0.924     0.035     2.513     2.479
   160   1 H        0.924     0.042     2.426     2.436
   161   1 H        0.924     0.033     2.542     2.493
   162   1 H        0.926     0.043     2.404     2.425
   163   1 H        0.926     0.034     2.529     2.487
   164   1 H        0.926     0.039     2.458     2.452
   165   1 H        0.926     0.027     2.627     2.534
   166   1 H        0.925     0.029     2.606     2.524

molecular dipole:
                 x           y           z       tot (Debye)
 q only:      -15.527       1.405      -0.211
   full:      -15.649       1.444      -0.224      39.949

 projected vibrational frequencies (cm⁻¹)
eigval :       -0.00    -0.00    -0.00     0.00     0.00     0.00
eigval :        6.60    12.18    13.45    16.32    18.39    21.61
eigval :       24.30    25.73    30.55    33.80    36.88    39.12
eigval :       42.54    44.61    47.48    51.11    53.41    54.73
eigval :       59.32    64.12    65.69    66.43    74.75    77.00
eigval :       80.90    87.41    90.92    94.04    99.77   102.08
eigval :      106.99   108.53   112.20   116.21   117.70   129.99
eigval :      134.31   137.91   141.61   142.17   147.10   150.98
eigval :      152.26   157.05   158.39   162.05   165.03   170.33
eigval :      174.81   183.43   193.97   197.54   205.89   217.72
eigval :      224.45   231.43   239.03   243.69   250.76   254.35
eigval :      265.87   272.12   272.39   275.39   276.71   284.19
eigval :      286.37   295.27   306.23   316.07   321.04   326.29
eigval :      331.90   343.21   351.84   366.68   369.69   370.26
eigval :      372.25   373.13   378.83   381.65   382.61   384.40
eigval :      390.53   392.04   393.64   397.61   397.96   399.76
eigval :      402.62   406.73   409.14   414.43   418.02   420.46
eigval :      425.40   426.15   431.50   434.90   438.04   439.31
eigval :      442.25   445.22   452.24   455.43   461.90   470.19
eigval :      476.96   482.85   483.98   508.37   514.53   515.59
eigval :      517.25   521.01   525.69   529.24   533.80   534.94
eigval :      537.10   539.22   541.12   541.43   542.78   546.91
eigval :      547.95   559.94   569.97   581.20   582.87   583.38
eigval :      585.21   589.82   593.41   596.45   598.02   598.87
eigval :      600.84   608.53   613.22   613.65   616.02   617.91
eigval :      618.42   628.94   634.37   643.58   651.55   670.36
eigval :      674.01   675.36   676.02   679.56   683.28   691.35
eigval :      695.85   702.74   704.79   705.37   706.62   707.98
eigval :      708.81   710.83   715.45   733.39   736.17   742.51
eigval :      756.11   756.24   768.62   768.88   771.97   773.45
eigval :      778.36   779.76   798.37   803.91   807.25   809.10
eigval :      811.25   817.32   821.52   822.96   828.69   834.86
eigval :      836.90   844.75   852.90   862.62   862.69   863.14
eigval :      864.25   866.79   869.53   871.12   871.56   871.93
eigval :      872.44   875.82   877.03   879.82   883.80   887.52
eigval :      892.39   896.76   897.01   898.10   902.47   903.07
eigval :      903.49   904.28   905.27   905.39   906.93   912.52
eigval :      916.63   917.08   917.98   918.98   919.77   920.28
eigval :      920.88   921.31   921.46   924.02   924.20   924.68
eigval :      926.31   930.20   931.27   932.10   936.89   939.51
eigval :      942.37   943.81   954.69   955.09   957.21   966.69
eigval :      974.13   987.29   992.25   994.94  1003.53  1009.93
eigval :     1010.70  1011.33  1021.43  1022.15  1032.89  1034.16
eigval :     1066.51  1067.59  1068.66  1069.41  1069.88  1071.65
eigval :     1072.28  1073.49  1083.09  1091.18  1093.33  1094.92
eigval :     1107.40  1114.63  1116.55  1117.18  1121.54  1122.60
eigval :     1134.16  1138.88  1140.45  1142.99  1144.26  1145.46
eigval :     1146.78  1152.43  1152.74  1154.56  1155.84  1157.67
eigval :     1166.42  1167.13  1171.93  1173.18  1174.68  1177.86
eigval :     1178.98  1179.21  1181.20  1181.96  1185.02  1196.45
eigval :     1198.33  1203.08  1205.62  1206.57  1208.74  1210.37
eigval :     1211.83  1213.76  1215.75  1216.03  1218.77  1223.10
eigval :     1225.53  1231.13  1231.86  1232.40  1239.97  1242.54
eigval :     1245.08  1252.39  1255.48  1255.98  1258.04  1260.89
eigval :     1261.82  1269.03  1271.12  1274.82  1276.77  1279.17
eigval :     1280.34  1281.62  1287.21  1290.70  1292.23  1294.11
eigval :     1294.77  1296.26  1306.66  1315.67  1316.14  1318.94
eigval :     1319.88  1324.66  1328.34  1330.73  1336.62  1338.70
eigval :     1341.02  1341.32  1342.05  1344.14  1345.95  1346.62
eigval :     1349.22  1351.17  1353.32  1353.85  1355.22  1355.42
eigval :     1356.60  1357.56  1360.95  1362.68  1363.23  1366.25
eigval :     1372.65  1397.59  1399.40  1403.42  1404.67  1407.52
eigval :     1411.99  1415.23  1416.02  1417.06  1422.29  1423.15
eigval :     1423.82  1426.35  1442.85  1453.87  1455.30  1462.78
eigval :     1463.64  1465.42  1475.93  1476.72  1479.49  1482.06
eigval :     1482.94  1483.58  1484.54  1486.51  1487.68  1490.63
eigval :     1492.26  1492.58  1495.56  1495.99  1499.18  1506.07
eigval :     1513.19  1520.37  1543.84  1545.33  1553.02  1553.69
eigval :     1555.30  1558.92  1560.18  1562.23  1568.87  1569.09
eigval :     1575.29  1575.89  1581.80  1582.35  1582.89  1583.22
eigval :     1585.58  1585.72  1590.59  1592.13  1597.55  1598.13
eigval :     1602.33  1606.77  2232.96  2265.48  2955.25  2956.17
eigval :     2957.91  2961.91  2964.43  2964.51  2967.04  2969.77
eigval :     2974.59  2974.96  2977.00  2980.64  2983.13  2984.31
eigval :     2990.11  2993.54  2995.11  2995.38  2997.64  3000.46
eigval :     3067.88  3068.75  3075.02  3075.72  3076.27  3076.53
eigval :     3077.69  3077.92  3077.97  3079.01  3079.06  3079.22
eigval :     3081.50  3082.04  3082.38  3082.57  3083.70  3084.06
eigval :     3084.50  3086.37  3086.83  3087.74  3088.73  3088.93
eigval :     3089.14  3090.39  3090.63  3090.73  3091.18  3093.08
eigval :     3094.13  3094.35  3094.44  3095.77  3096.14  3096.31
eigval :     3096.66  3097.10  3097.46  3097.77  3101.76  3103.14
eigval :     3106.79  3108.14  3112.07  3112.50  3113.61  3153.50

   temp. (K)  partition function   enthalpy   heat capacity  entropy
                                   cal/mol     cal/K/mol   cal/K/mol   J/K/mol
 298.15  VIB  0.236E+37            47646.691    301.871    296.187
         ROT  0.507E+09              888.752      2.981     42.813
         INT  0.120E+46            48535.444    304.852    339.000
         TR   0.431E+29             1481.254      4.968     47.243
         TOT                       50016.6975   309.8203   386.2435  1616.0427

       T/K    H(0)-H(T)+PV         H(T)/Eh          T*S/Eh         G(T)/Eh
   ------------------------------------------------------------------------
    298.15    0.797067E-01    0.138860E+01    0.183517E+00    0.120508E+01
   ------------------------------------------------------------------------

         :::::::::::::::::::::::::::::::::::::::::::::::::::::
         ::                  THERMODYNAMIC                  ::
         :::::::::::::::::::::::::::::::::::::::::::::::::::::
         :: total free energy        -248.189116564081 Eh   ::
         ::.................................................::
         :: total energy             -249.394200473598 Eh   ::
         :: zero point energy           1.308893962828 Eh   ::
         :: G(RRHO) w/o ZPVE           -0.103810053311 Eh   ::
         :: G(RRHO) contrib.            1.205083909517 Eh   ::
         :::::::::::::::::::::::::::::::::::::::::::::::::::::

           -------------------------------------------------
          | TOTAL ENERGY             -249.394200473598 Eh   |
          | TOTAL ENTHALPY           -248.005599829790 Eh   |
          | TOTAL FREE ENERGY        -248.189116564081 Eh   |
          | GRADIENT NORM               0.000191779656 Eh/α |
          | HOMO-LUMO GAP               0.531036941356 eV   |
           -------------------------------------------------

 * finished run on 2025/09/12 at 14:04:37.955
