   * xtb version 6.7.1 (edcfbbe) compiled by 'albert@albert-system' on 2024-07-22

   ID    Z sym.   atoms
    1    7 N      1, 6, 25, 51, 70, 98
    2    6 C      2-5, 7-24, 26-50, 52-69, 71-97
    3    1 H      99-166

          program call               : xtb data2507/toluene/BPCP-2CPC/BPCP-2CPC_toluene_S0_crest.xyz --gfn 2 --gbsa toluene --ohess vtight --parallel 40 --molden --ceasefiles --namespace data2507/toluene/BPCP-2CPC/BPCP-2CPC_toluene_S0_finalOpt
      * Solvation model:               GBSA
        Solvent                        toluene
        Solvent mass                       9.2140E+01 g/mol
          :  Hamiltonian                  GFN2-xTB          :
 * total energy  :  -249.4666326 Eh     change       -0.9225914E-08 Eh
 * total energy  :  -249.4668792 Eh     change       -0.2466461E-03 Eh
 * total energy  :  -249.4667402 Eh     change        0.1390022E-03 Eh
 * total energy  :  -249.4671180 Eh     change       -0.3778110E-03 Eh
 * total energy  :  -249.4671841 Eh     change       -0.6607637E-04 Eh
 * total energy  :  -249.4672947 Eh     change       -0.1105656E-03 Eh
 * total energy  :  -249.4674219 Eh     change       -0.1272610E-03 Eh
 * total energy  :  -249.4675306 Eh     change       -0.1086510E-03 Eh
 * total energy  :  -249.4676450 Eh     change       -0.1144004E-03 Eh
 * total energy  :  -249.4677696 Eh     change       -0.1245993E-03 Eh
 * total energy  :  -249.4690376 Eh     change       -0.1155559E-05 Eh
 * total energy  :  -249.4690386 Eh     change       -0.9818474E-06 Eh
 * total energy  :  -249.4690399 Eh     change       -0.1327845E-05 Eh
 * total energy  :  -249.4690417 Eh     change       -0.1816163E-05 Eh
 * total energy  :  -249.4690435 Eh     change       -0.1840929E-05 Eh
 * total energy  :  -249.4690450 Eh     change       -0.1427608E-05 Eh
 * total energy  :  -249.4690461 Eh     change       -0.1085821E-05 Eh
 * total energy  :  -249.4690473 Eh     change       -0.1199336E-05 Eh
 * total energy  :  -249.4690473 Eh     change       -0.5960572E-08 Eh
   *** GEOMETRY OPTIMIZATION CONVERGED AFTER 94 ITERATIONS ***

 final structure:
================
166
 xtb: 6.7.1 (edcfbbe)
N           12.18872985687421       -1.24913142762368        2.05416587916054
C           11.25981299065113       -1.04885652489865        1.41155654180312
C           10.10705908884085       -0.79668363772950        0.63617034760859
C            8.86842907642131       -0.66425215651191        1.25328224432452
C            7.71583918606034       -0.42896712052415        0.51077912804668
N            6.49180062308248       -0.33530891029071        1.16513449251065
C            6.20264691908473        0.53470266887401        2.20971234059460
C            7.03294019958815        1.42238479328679        2.87596006771055
C            6.47329841944474        2.21267876745629        3.86420900238796
C            5.11984493823773        2.13098679067114        4.17885106939089
C            4.28556808610416        1.26028291738926        3.50421269326265
C            4.82560462246244        0.45760624028805        2.50897421251247
C            4.26298075575219       -0.52532184251959        1.62160072088647
C            2.99043045802859       -1.05447550861860        1.48098377406541
C            2.77234470905057       -2.06394764033740        0.55005361430613
C            1.44394025461062       -2.67913473862290        0.40612023079713
C            0.93440763190630       -3.03303033361002       -0.84091171118235
C           -0.28527013251653       -3.67141589397794       -0.95396677993636
C           -1.04257963663760       -4.00580527297056        0.16711157837008
C           -2.36052289189446       -4.75020443967779       -0.00621732952469
C           -3.37392463862856       -3.74485749907256       -0.54205176980266
C           -4.18568781313731       -3.97484003786649       -1.64617167328121
C           -5.14690284474103       -3.05761011145831       -2.03771596272751
C           -5.32324370081052       -1.88057566828715       -1.32200383808806
N           -6.32253042716689       -0.95683791006701       -1.66770841126683
C           -6.15297974157474        0.40754795045554       -1.78349214390047
C           -4.99141792065968        1.16336765309187       -1.71656372555955
C           -5.09715414597481        2.53049002742845       -1.88235558759139
C           -6.32518302831672        3.13952918482643       -2.13153738904953
C           -7.48027752610444        2.38973476852192       -2.23452732391126
C           -7.40008672991349        1.01420352873171       -2.06015395027520
C           -8.36779758807239       -0.04531155431216       -2.09821386074753
C           -9.74056855022161       -0.07888105684683       -2.30677073323965
C          -10.39093696507666       -1.29511383705229       -2.24476115444520
C           -9.69059292315104       -2.46693639504887       -1.96461783727636
C           -8.32437452154599       -2.45961164677666       -1.75845216982183
C           -7.66089821323724       -1.24365161436742       -1.84368571241869
C           -4.49284291005206       -1.62581662421598       -0.23646350024330
C           -3.53558563968230       -2.54200928940538        0.14219078346597
C           -2.17593071738802       -5.96250473284388       -0.93720998212051
C           -1.23310908083197       -6.99360562814371       -0.32288103474491
C           -1.83216236578348       -7.53677188813557        0.96945406763937
C           -2.07016211546744       -6.38970682551780        1.94483404726288
C           -2.93981726596142       -5.30160871854084        1.31567405772313
C           -0.56020972407491       -3.59055306286136        1.40402085612297
C            0.65750696743093       -2.94675973594411        1.52250948824955
C            3.84663140834340       -2.54025771933618       -0.21246198877667
C            5.12261237805626       -2.02819908174245       -0.08510706000022
C            5.32112749544022       -0.99246138807536        0.81404798382733
C            7.81388345689784       -0.29570922068058       -0.89763861661374
N            6.69430199513005       -0.01363785880844       -1.67129813226018
C            6.23376488036940       -0.77589597867463       -2.73941638330290
C            6.82262657209950       -1.85898491343375       -3.37240858100665
C            6.12127098592191       -2.46649574038233       -4.39909541661135
C            4.86065511187644       -2.01788629197950       -4.78182447864793
C            4.26084139589793       -0.95226445404097       -4.13820300749061
C            4.94696261626970       -0.32649684309543       -3.10684735448887
C            4.62306769208562        0.76723847157347       -2.22945270126852
C            3.51182047134284        1.58230347959481       -2.09595670270619
C            3.51271438973658        2.57687878276329       -1.12388332695244
C            2.29666963058637        3.36937114408219       -0.89524698285477
C            1.85896821283715        3.63521679461613        0.40115569375004
C            0.65206502114977        4.26518129316969        0.62048369260309
C           -0.16727140993361        4.66110034001378       -0.43737893364073
C           -1.54093373852119        5.22187559207696       -0.09714846997285
C           -2.34377562321276        4.09628897952763        0.54754555397127
C           -2.04492936989392        2.76518922219864        0.26957509338014
C           -2.77438496423422        1.73224313639832        0.82365414076651
C           -3.85211981346150        2.00617380992978        1.65695184683404
N           -4.60888362152636        0.95209703462897        2.19839418786969
C           -4.10281437482455       -0.14246847307407        2.86881456251340
C           -2.80241477193050       -0.40097878930709        3.27942966763623
C           -2.56312879960445       -1.58235028021865        3.95509029572708
C           -3.58756000461365       -2.48960277944836        4.22053250602499
C           -4.88580073816369       -2.23037393196038        3.82748659208966
C           -5.15317966946011       -1.04789000345552        3.14985823450056
C           -6.34768561180532       -0.46732983020758        2.60287023683323
C           -7.66901270584623       -0.88869856590801        2.52505177103472
C           -8.58274252783827       -0.08539723440256        1.87248690711140
C           -8.19185785983876        1.11895938745585        1.29078410134769
C           -6.88474211480769        1.56060744194254        1.35413423906904
C           -5.96615807404983        0.76597920372695        2.02426902848497
C           -4.17559405308558        3.32931525548376        1.92906442936556
C           -3.42653266629199        4.35465060742604        1.38145239979646
C           -1.34117457325565        6.43239257608472        0.85631361080088
C           -2.30128960755322        7.58821512143745        0.58610536674141
C           -2.10551580432131        8.15331633935424       -0.82312835462221
C           -1.81022354472575        7.03696550108480       -1.83507757566798
C           -2.33319283163213        5.69441137950535       -1.33238584939947
C            0.30123259925072        4.44756371063125       -1.72747449901973
C            1.51011548696245        3.81249213996707       -1.95244113352235
C            4.65862220898604        2.78637577566898       -0.34775693328734
C            5.77894833559039        1.98935262906095       -0.47147546680279
C            5.73016834699313        0.93824041939065       -1.37354279000647
C            9.05364619361436       -0.44215590077320       -1.51169613698443
C           10.19939529865734       -0.69429723159139       -0.76612214854169
C           11.44846724274912       -0.82865298307068       -1.41111402302049
N           12.45636290005845       -0.94066361716264       -1.94728136690188
H            8.79371461124355       -0.78419957548138        2.32380149459478
H            8.08166203745686        1.51091335785015        2.63329161820082
H            7.10190813054320        2.90878481530991        4.39944536192018
H            4.71965505528955        2.76387228018686        4.95692074677664
H            3.23322053288602        1.20632794936670        3.73820444176951
H            2.17766824129635       -0.68078139634232        2.08457720615007
H            1.49476026829901       -2.79329108937919       -1.73342818725435
H           -0.65021226076426       -3.91017507237843       -1.94171754052566
H           -4.08424087283884       -4.87749949101511       -2.22673857710454
H           -5.76070446175289       -3.25594265513508       -2.90416591110699
H           -4.03098200644567        0.70198356279563       -1.54785183710065
H           -4.20657372793164        3.13705447225469       -1.81311509471034
H           -6.36888135136320        4.21188481106727       -2.25562331315854
H           -8.42946512253599        2.85983128196649       -2.44609539694618
H          -10.28605028385470        0.83149805920918       -2.50772260086707
H          -11.45827657432662       -1.34291569559688       -2.40526366071851
H          -10.22896333861406       -3.40194966276772       -1.90546613670734
H           -7.79401631944486       -3.37045263260562       -1.52521651905878
H           -4.62646485473183       -0.71262006421134        0.31626531587549
H           -2.91342520134131       -2.32231529106595        0.99701180771639
H           -3.14573797573450       -6.44172393665164       -1.08604473194580
H           -1.80035103046876       -5.65247913770446       -1.91217132522056
H           -1.07319534626275       -7.80920535311651       -1.03223363299068
H           -0.26435799661728       -6.53332748893444       -0.11512743377658
H           -2.77900048700213       -8.03650131833278        0.74867235543777
H           -1.16169535986469       -8.27344629625130        1.41772847114236
H           -1.10371116693140       -5.97766226331568        2.23779457920089
H           -2.56329397087365       -6.76190019464677        2.84642674516743
H           -3.10516420712015       -4.49031357778462        2.02609919963995
H           -3.92216035851931       -5.72561399407118        1.08824155524905
H           -1.12937413787939       -3.76399810364622        2.30287352775089
H            1.01723149652243       -2.67635732803916        2.50492130927177
H            3.67910718301084       -3.35442381280592       -0.90166394310008
H            5.93568970581094       -2.44587699031281       -0.65918621252976
H            7.79174837601912       -2.23279159610664       -3.07698834433499
H            6.56324212803141       -3.30850989897417       -4.91087978940421
H            4.34558565105814       -2.51697933551342       -5.58906823635980
H            3.27646887754476       -0.61372057986749       -4.42331232625876
H            2.64452961350097        1.42769237153272       -2.71906947967833
H            2.45292104223754        3.30560110437116        1.24116540064771
H            0.31784893620874        4.42126698875343        1.63569112327272
H           -1.22839990017879        2.51996328797646       -0.39204519420700
H           -2.51476206240448        0.70751030970059        0.60059571765355
H           -2.00458904611659        0.29903230233536        3.08072141383959
H           -1.55963726419549       -1.80697507765767        4.28631437686147
H           -3.35976181152251       -3.40429312225125        4.74914475040732
H           -5.68004106669971       -2.93003693201586        4.04110096834394
H           -7.96998549379098       -1.83005198133268        2.96044989490662
H           -9.61408244190724       -0.39734645364764        1.79602170262476
H           -8.92570623174118        1.71711131614737        0.77158037591728
H           -6.58485691463848        2.48177829548377        0.87838032105509
H           -5.00850689460587        3.55213848174159        2.57976225672208
H           -3.69867084979189        5.37004323196806        1.62089132977784
H           -0.32318765494658        6.80862371563574        0.72967423790070
H           -1.44231654037963        6.10733344964960        1.89332220923774
H           -2.12764243847543        8.37546580004216        1.32344075198741
H           -3.33390032809420        7.25885531241799        0.70575695051780
H           -1.27952242533316        8.86731123009391       -0.82194933147809
H           -3.00540854509591        8.69923523623457       -1.11426278282454
H           -2.26779184303520        7.27455846398262       -2.79764467117694
H           -0.73324169773376        6.96184599921044       -1.99237934832465
H           -3.38524725158809        5.79734135866670       -1.06054952904248
H           -2.28431189317015        4.93789228747613       -2.11662079146385
H           -0.27607271851895        4.75088115490731       -2.58605112528340
H            1.84449105096191        3.65743390153924       -2.96841711547029
H            4.67196507696083        3.60314990091757        0.35823400689854
H            6.66032492506295        2.18939719755606        0.11865331645476
H            9.13300635326189       -0.31955920402973       -2.58145842474000

          :  Hamiltonian                  GFN2-xTB          :
         :: gradient norm              0.000109407600 Eh/a0 ::
         :: HOMO-LUMO gap              1.292581120155 eV    ::
         :: SCC energy              -254.112392705423 Eh    ::
         :: -> dispersion             -0.275467313013 Eh    ::
         :: -> Gsolv                  -0.089561543526 Eh    ::
         :: repulsion energy           4.643345440899 Eh    ::

    * Orbital Energies and Occupations

         #    Occupation            Energy/Eh            Energy/eV
      -------------------------------------------------------------
         1        2.0000           -0.7100838             -19.3224
       ...           ...                  ...                  ...
       221        2.0000           -0.4006736             -10.9029
       222        2.0000           -0.3982317             -10.8364
       223        2.0000           -0.3978160             -10.8251
       224        2.0000           -0.3942453             -10.7280
       225        2.0000           -0.3932505             -10.7009
       226        2.0000           -0.3906659             -10.6306
       227        2.0000           -0.3856928             -10.4952
       228        2.0000           -0.3782062             -10.2915
       229        2.0000           -0.3763624             -10.2413
       230        2.0000           -0.3741331             -10.1807
       231        2.0000           -0.3722511             -10.1295
       232        2.0000           -0.3613369              -9.8325
       233        2.0000           -0.3585811              -9.7575 (HOMO)
       234                         -0.3110796              -8.4649 (LUMO)
       235                         -0.2865667              -7.7979
       236                         -0.2562971              -6.9742
       237                         -0.2555934              -6.9551
       238                         -0.2475444              -6.7360
       239                         -0.2456592              -6.6847
       240                         -0.2440065              -6.6398
       241                         -0.2429915              -6.6121
       242                         -0.2330771              -6.3423
       243                         -0.2307208              -6.2782
       244                         -0.2295542              -6.2465
       ...                                ...                  ...
       460                          1.1628280              31.6422
      -------------------------------------------------------------
                  HL-Gap            0.0475015 Eh            1.2926 eV

     #   Z          covCN         q      C6AA      α(0)
     1   7 N        0.911    -0.246    26.416     7.433
     2   6 C        1.911     0.119    28.164     8.571
     3   6 C        2.975     0.019    27.569     8.613
     4   6 C        2.929    -0.033    28.811     8.803
     5   6 C        2.908     0.060    26.645     8.464
     6   7 N        2.800    -0.041    22.032     6.971
     7   6 C        3.066     0.047    26.883     8.502
     8   6 C        2.910    -0.050    29.241     8.867
     9   6 C        2.924    -0.032    28.792     8.799
    10   6 C        2.920    -0.038    28.939     8.822
    11   6 C        2.913    -0.031    28.772     8.796
    12   6 C        3.066    -0.012    28.255     8.716
    13   6 C        3.062    -0.014    28.307     8.725
    14   6 C        2.918    -0.037    28.921     8.819
    15   6 C        2.975     0.004    27.933     8.669
    16   6 C        2.976     0.005    27.916     8.667
    17   6 C        2.923    -0.037    28.922     8.819
    18   6 C        2.926    -0.037    28.921     8.819
    19   6 C        2.973     0.014    27.690     8.632
    20   6 C        3.910     0.011    20.328     6.408
    21   6 C        2.979     0.008    27.845     8.656
    22   6 C        2.924    -0.039    28.979     8.828
    23   6 C        2.921    -0.046    29.141     8.852
    24   6 C        2.912     0.060    26.655     8.466
    25   7 N        2.802    -0.051    22.217     7.001
    26   6 C        3.079     0.050    26.796     8.487
    27   6 C        2.910    -0.052    29.283     8.873
    28   6 C        2.924    -0.036    28.886     8.814
    29   6 C        2.920    -0.043    29.073     8.842
    30   6 C        2.912    -0.035    28.868     8.810
    31   6 C        3.068    -0.018    28.394     8.737
    32   6 C        3.068    -0.019    28.402     8.739
    33   6 C        2.912    -0.035    28.872     8.811
    34   6 C        2.919    -0.044    29.082     8.843
    35   6 C        2.924    -0.036    28.885     8.814
    36   6 C        2.910    -0.052    29.292     8.875
    37   6 C        3.078     0.049    26.810     8.489
    38   6 C        2.923    -0.046    29.140     8.852
    39   6 C        2.927    -0.035    28.875     8.812
    40   6 C        3.813    -0.058    21.607     6.616
    41   6 C        3.805    -0.053    21.521     6.604
    42   6 C        3.806    -0.055    21.566     6.611
    43   6 C        3.804    -0.054    21.549     6.609
    44   6 C        3.814    -0.054    21.529     6.604
    45   6 C        2.924    -0.038    28.943     8.823
    46   6 C        2.925    -0.038    28.936     8.821
    47   6 C        2.930    -0.036    28.903     8.817
    48   6 C        2.909    -0.049    29.205     8.861
    49   6 C        3.067     0.045    26.928     8.509
    50   6 C        2.909     0.061    26.637     8.463
    51   7 N        2.800    -0.041    22.033     6.971
    52   6 C        3.065     0.047    26.879     8.502
    53   6 C        2.910    -0.050    29.246     8.868
    54   6 C        2.924    -0.032    28.789     8.799
    55   6 C        2.920    -0.037    28.932     8.821
    56   6 C        2.913    -0.031    28.770     8.795
    57   6 C        3.067    -0.012    28.248     8.715
    58   6 C        3.062    -0.014    28.302     8.724
    59   6 C        2.920    -0.037    28.927     8.820
    60   6 C        2.977     0.004    27.933     8.669
    61   6 C        2.977     0.005    27.910     8.666
    62   6 C        2.924    -0.036    28.901     8.816
    63   6 C        2.926    -0.037    28.922     8.819
    64   6 C        2.976     0.010    27.789     8.647
    65   6 C        3.909     0.010    20.344     6.411
    66   6 C        2.977     0.009    27.804     8.649
    67   6 C        2.926    -0.035    28.883     8.813
    68   6 C        2.921    -0.041    29.029     8.835
    69   6 C        2.913     0.061    26.637     8.463
    70   7 N        2.801    -0.054    22.284     7.011
    71   6 C        3.077     0.051    26.784     8.485
    72   6 C        2.909    -0.051    29.275     8.872
    73   6 C        2.924    -0.035    28.863     8.810
    74   6 C        2.919    -0.043    29.069     8.841
    75   6 C        2.912    -0.035    28.863     8.810
    76   6 C        3.067    -0.018    28.394     8.738
    77   6 C        3.067    -0.019    28.425     8.742
    78   6 C        2.912    -0.035    28.883     8.813
    79   6 C        2.920    -0.042    29.044     8.838
    80   6 C        2.924    -0.033    28.820     8.804
    81   6 C        2.909    -0.051    29.257     8.869
    82   6 C        3.077     0.050    26.789     8.486
    83   6 C        2.921    -0.044    29.102     8.846
    84   6 C        2.925    -0.036    28.908     8.817
    85   6 C        3.808    -0.056    21.578     6.613
    86   6 C        3.802    -0.053    21.516     6.604
    87   6 C        3.803    -0.056    21.583     6.614
    88   6 C        3.803    -0.055    21.554     6.610
    89   6 C        3.811    -0.051    21.489     6.598
    90   6 C        2.922    -0.040    28.990     8.830
    91   6 C        2.924    -0.038    28.947     8.823
    92   6 C        2.929    -0.036    28.900     8.816
    93   6 C        2.909    -0.048    29.197     8.860
    94   6 C        3.070     0.045    26.928     8.509
    95   6 C        2.928    -0.033    28.821     8.804
    96   6 C        2.975     0.020    27.563     8.612
    97   6 C        1.910     0.119    28.163     8.571
    98   7 N        0.911    -0.246    26.408     7.432
    99   1 H        0.926     0.067     2.122     2.278
   100   1 H        0.926     0.028     2.620     2.531
   101   1 H        0.926     0.037     2.490     2.468
   102   1 H        0.926     0.037     2.493     2.469
   103   1 H        0.926     0.039     2.464     2.455
   104   1 H        0.926     0.040     2.443     2.444
   105   1 H        0.926     0.029     2.603     2.523
   106   1 H        0.926     0.030     2.592     2.517
   107   1 H        0.926     0.044     2.394     2.420
   108   1 H        0.926     0.039     2.458     2.452
   109   1 H        0.926     0.027     2.633     2.538
   110   1 H        0.926     0.029     2.606     2.525
   111   1 H        0.926     0.027     2.632     2.537
   112   1 H        0.926     0.029     2.607     2.525
   113   1 H        0.926     0.029     2.604     2.524
   114   1 H        0.926     0.027     2.632     2.537
   115   1 H        0.926     0.029     2.600     2.522
   116   1 H        0.926     0.029     2.603     2.523
   117   1 H        0.926     0.038     2.480     2.463
   118   1 H        0.926     0.034     2.528     2.486
   119   1 H        0.924     0.038     2.476     2.461
   120   1 H        0.925     0.033     2.549     2.497
   121   1 H        0.924     0.028     2.620     2.531
   122   1 H        0.924     0.030     2.587     2.515
   123   1 H        0.924     0.031     2.578     2.511
   124   1 H        0.924     0.026     2.642     2.542
   125   1 H        0.924     0.036     2.501     2.473
   126   1 H        0.924     0.028     2.614     2.528
   127   1 H        0.924     0.032     2.555     2.499
   128   1 H        0.924     0.031     2.570     2.507
   129   1 H        0.926     0.039     2.461     2.453
   130   1 H        0.926     0.029     2.595     2.519
   131   1 H        0.926     0.037     2.492     2.469
   132   1 H        0.926     0.024     2.667     2.554
   133   1 H        0.926     0.029     2.608     2.525
   134   1 H        0.926     0.037     2.486     2.465
   135   1 H        0.926     0.037     2.490     2.468
   136   1 H        0.926     0.039     2.459     2.452
   137   1 H        0.926     0.040     2.445     2.445
   138   1 H        0.926     0.030     2.593     2.518
   139   1 H        0.926     0.030     2.588     2.516
   140   1 H        0.926     0.035     2.511     2.478
   141   1 H        0.926     0.037     2.493     2.469
   142   1 H        0.926     0.027     2.624     2.533
   143   1 H        0.926     0.029     2.597     2.520
   144   1 H        0.926     0.026     2.639     2.540
   145   1 H        0.926     0.028     2.614     2.528
   146   1 H        0.926     0.028     2.610     2.526
   147   1 H        0.926     0.025     2.662     2.551
   148   1 H        0.926     0.027     2.626     2.534
   149   1 H        0.926     0.027     2.633     2.537
   150   1 H        0.926     0.038     2.477     2.461
   151   1 H        0.926     0.046     2.371     2.408
   152   1 H        0.924     0.038     2.477     2.461
   153   1 H        0.924     0.033     2.542     2.493
   154   1 H        0.924     0.029     2.603     2.523
   155   1 H        0.924     0.032     2.551     2.498
   156   1 H        0.924     0.028     2.620     2.531
   157   1 H        0.924     0.027     2.623     2.533
   158   1 H        0.924     0.028     2.611     2.527
   159   1 H        0.924     0.035     2.510     2.478
   160   1 H        0.924     0.038     2.477     2.461
   161   1 H        0.924     0.030     2.588     2.516
   162   1 H        0.926     0.038     2.475     2.460
   163   1 H        0.926     0.030     2.586     2.515
   164   1 H        0.926     0.037     2.492     2.468
   165   1 H        0.926     0.025     2.656     2.549
   166   1 H        0.926     0.067     2.116     2.275

molecular dipole:
                 x           y           z       tot (Debye)
 q only:       -2.154       0.638      -0.200
   full:       -2.594       0.705      -0.217       6.854

 projected vibrational frequencies (cm⁻¹)
eigval :       -0.00    -0.00    -0.00    -0.00     0.00     0.00
eigval :        6.90    12.39    13.80    15.98    18.10    21.80
eigval :       23.25    25.37    30.25    32.90    36.88    39.42
eigval :       44.03    44.84    47.30    51.84    53.76    55.10
eigval :       58.70    63.60    65.96    67.01    75.56    78.20
eigval :       82.94    87.82    89.15    94.01    97.86   102.99
eigval :      108.04   109.05   113.02   115.38   117.49   129.90
eigval :      130.93   138.29   141.90   145.50   149.13   151.32
eigval :      153.21   158.41   160.33   163.54   166.61   170.71
eigval :      179.55   184.27   194.85   205.42   207.70   219.20
eigval :      225.51   232.42   241.70   244.48   251.98   254.79
eigval :      266.07   273.26   273.79   275.85   278.30   283.73
eigval :      290.37   294.44   305.83   311.71   316.05   324.95
eigval :      334.10   343.32   354.29   368.92   370.67   373.31
eigval :      374.52   380.49   382.29   384.16   392.33   394.02
eigval :      395.47   397.71   399.40   401.83   402.68   403.48
eigval :      408.31   411.79   416.63   421.15   426.10   426.77
eigval :      428.85   431.72   432.66   435.20   439.46   441.15
eigval :      447.60   447.85   454.69   460.36   466.23   476.99
eigval :      481.73   487.81   509.70   516.59   518.08   520.20
eigval :      522.95   528.78   530.71   532.74   533.26   534.30
eigval :      537.20   539.73   541.19   542.88   543.27   546.97
eigval :      556.51   563.82   576.38   583.63   583.81   585.50
eigval :      590.98   594.97   598.06   599.18   601.72   602.98
eigval :      609.86   615.64   616.74   617.74   618.19   619.12
eigval :      629.90   640.00   654.42   655.50   670.85   673.72
eigval :      675.18   676.95   679.91   686.19   690.96   693.00
eigval :      696.42   703.71   706.23   707.67   708.02   708.12
eigval :      708.50   713.82   719.99   737.73   738.51   753.87
eigval :      756.86   757.36   767.94   769.21   775.50   776.94
eigval :      779.77   780.24   798.66   803.98   806.97   808.45
eigval :      811.90   817.60   820.41   821.95   830.21   836.68
eigval :      837.23   846.60   855.06   865.59   866.65   867.37
eigval :      868.64   870.15   871.04   871.81   872.92   876.42
eigval :      878.30   881.11   883.15   883.87   884.48   891.94
eigval :      893.14   897.11   897.40   899.34   901.32   901.56
eigval :      902.64   903.49   905.24   907.74   908.96   913.52
eigval :      917.07   917.23   918.00   918.70   918.95   919.98
eigval :      920.85   924.32   924.57   924.60   925.23   925.98
eigval :      926.50   929.78   931.93   932.95   939.71   940.97
eigval :      944.70   954.20   955.13   956.74   959.45   966.80
eigval :      974.27   988.28   994.14   997.49  1004.73  1011.05
eigval :     1011.35  1012.02  1025.06  1026.15  1034.45  1035.55
eigval :     1068.62  1069.90  1070.30  1073.17  1073.22  1073.83
eigval :     1075.12  1080.05  1087.03  1092.90  1094.15  1095.75
eigval :     1109.87  1118.57  1119.26  1121.92  1123.15  1123.97
eigval :     1135.63  1139.64  1140.32  1144.43  1150.10  1151.69
eigval :     1151.91  1152.98  1154.46  1155.18  1157.34  1159.00
eigval :     1166.79  1172.95  1174.92  1175.88  1176.70  1180.08
eigval :     1180.84  1183.10  1183.56  1183.67  1187.01  1198.39
eigval :     1201.31  1207.04  1208.82  1210.69  1212.94  1213.42
eigval :     1215.74  1217.17  1218.20  1220.13  1222.68  1225.21
eigval :     1225.85  1236.36  1236.58  1237.03  1243.34  1246.71
eigval :     1248.59  1255.06  1257.10  1257.71  1258.23  1262.61
eigval :     1265.92  1270.01  1274.86  1277.76  1279.00  1280.84
eigval :     1283.26  1283.91  1289.95  1300.22  1301.00  1303.07
eigval :     1304.22  1308.91  1311.98  1313.04  1315.40  1317.45
eigval :     1319.41  1321.29  1325.78  1330.11  1331.66  1341.17
eigval :     1342.92  1346.35  1346.73  1346.76  1349.54  1352.98
eigval :     1355.71  1356.30  1356.97  1357.34  1357.96  1358.25
eigval :     1361.46  1362.28  1362.41  1366.60  1367.72  1382.72
eigval :     1397.02  1398.90  1404.71  1406.08  1407.55  1419.16
eigval :     1421.48  1424.40  1428.04  1428.25  1428.50  1430.84
eigval :     1432.07  1464.20  1465.62  1474.77  1475.43  1478.57
eigval :     1479.43  1479.94  1480.97  1483.70  1486.02  1487.79
eigval :     1488.29  1490.10  1491.24  1492.55  1493.08  1494.61
eigval :     1495.14  1499.77  1502.65  1504.81  1507.12  1514.68
eigval :     1521.78  1542.21  1561.37  1563.25  1567.67  1567.97
eigval :     1571.73  1573.66  1574.57  1575.57  1585.42  1585.80
eigval :     1588.26  1589.12  1595.40  1596.20  1598.15  1598.26
eigval :     1599.95  1600.29  1602.13  1602.20  1611.85  1612.79
eigval :     1614.50  1615.17  2361.85  2362.30  2952.56  2955.01
eigval :     2957.04  2960.47  2962.46  2962.62  2965.58  2968.30
eigval :     2971.43  2973.85  2976.23  2979.80  2982.21  2983.46
eigval :     2988.38  2992.82  2994.39  2995.47  2996.23  2998.97
eigval :     3068.53  3068.69  3070.46  3070.76  3071.14  3072.59
eigval :     3072.95  3073.44  3074.06  3075.85  3075.87  3076.68
eigval :     3078.57  3080.39  3080.55  3080.60  3081.36  3081.60
eigval :     3082.52  3083.08  3083.17  3083.32  3083.83  3086.49
eigval :     3086.59  3086.69  3088.35  3088.72  3089.06  3089.32
eigval :     3090.93  3091.13  3092.64  3093.30  3094.66  3095.70
eigval :     3096.73  3097.88  3098.48  3099.50  3100.37  3100.41
eigval :     3101.22  3105.51  3108.36  3108.95  3109.99  3152.96

   temp. (K)  partition function   enthalpy   heat capacity  entropy
                                   cal/mol     cal/K/mol   cal/K/mol   J/K/mol
 298.15  VIB  0.159E+37            47380.589    300.400    294.577
         ROT  0.508E+09              888.752      2.981     42.816
         INT  0.809E+45            48269.341    303.381    337.393
         TR   0.431E+29             1481.254      4.968     47.243
         TOT                       49750.5953   308.3489   384.6362  1609.3177

       T/K    H(0)-H(T)+PV         H(T)/Eh          T*S/Eh         G(T)/Eh
   ------------------------------------------------------------------------
    298.15    0.792826E-01    0.139213E+01    0.182753E+00    0.120938E+01
   ------------------------------------------------------------------------

         :::::::::::::::::::::::::::::::::::::::::::::::::::::
         ::                  THERMODYNAMIC                  ::
         :::::::::::::::::::::::::::::::::::::::::::::::::::::
         :: total free energy        -248.259669316661 Eh   ::
         ::.................................................::
         :: total energy             -249.469047264037 Eh   ::
         :: zero point energy           1.312848381238 Eh   ::
         :: G(RRHO) w/o ZPVE           -0.103470433862 Eh   ::
         :: G(RRHO) contrib.            1.209377947376 Eh   ::
         :::::::::::::::::::::::::::::::::::::::::::::::::::::

           -------------------------------------------------
          | TOTAL ENERGY             -249.469047264037 Eh   |
          | TOTAL ENTHALPY           -248.076916262642 Eh   |
          | TOTAL FREE ENERGY        -248.259669316661 Eh   |
          | GRADIENT NORM               0.000109463691 Eh/α |
          | HOMO-LUMO GAP               1.292581653909 eV   |
           -------------------------------------------------

 * finished run on 2025/09/12 at 14:03:53.700
