   * xtb version 6.7.1 (edcfbbe) compiled by 'albert@albert-system' on 2024-07-22

   ID    Z sym.   atoms
    1    7 N      1, 6, 25, 51, 70, 98
    2    6 C      2-5, 7-24, 26-50, 52-69, 71-97
    3    1 H      99-166

          program call               : xtb data2507/toluene/BPCP-2CPC/BPCP-2CPC.xyz --gfn 2 --gbsa toluene --ohess vtight --parallel 40 --molden --ceasefiles --namespace data2507/toluene/BPCP-2CPC/BPCP-2CPC_toluene_S0_preOpt
      * Solvation model:               GBSA
        Solvent                        toluene
        Solvent mass                       9.2140E+01 g/mol
          :  Hamiltonian                  GFN2-xTB          :
 * total energy  :  -249.3920938 Eh     change       -0.6507747E-08 Eh
 * total energy  :  -249.4237554 Eh     change       -0.3166158E-01 Eh
 * total energy  :  -249.4336858 Eh     change       -0.9930437E-02 Eh
 * total energy  :  -249.4373890 Eh     change       -0.3703182E-02 Eh
 * total energy  :  -249.4401204 Eh     change       -0.2731385E-02 Eh
 * total energy  :  -249.4416797 Eh     change       -0.1559376E-02 Eh
 * total energy  :  -249.4425852 Eh     change       -0.9054357E-03 Eh
 * total energy  :  -249.4428136 Eh     change       -0.2283728E-03 Eh
 * total energy  :  -249.4437688 Eh     change       -0.9552331E-03 Eh
 * total energy  :  -249.4442234 Eh     change       -0.4545679E-03 Eh
 * total energy  :  -249.4528096 Eh     change       -0.3617525E-06 Eh
 * total energy  :  -249.4528100 Eh     change       -0.3570660E-06 Eh
 * total energy  :  -249.4528102 Eh     change       -0.1790605E-06 Eh
 * total energy  :  -249.4528103 Eh     change       -0.1080062E-06 Eh
 * total energy  :  -249.4528104 Eh     change       -0.1592928E-06 Eh
 * total energy  :  -249.4528107 Eh     change       -0.2961391E-06 Eh
 * total energy  :  -249.4528112 Eh     change       -0.5178607E-06 Eh
 * total energy  :  -249.4528117 Eh     change       -0.5133282E-06 Eh
 * total energy  :  -249.4528118 Eh     change       -0.4637570E-08 Eh
   *** GEOMETRY OPTIMIZATION CONVERGED AFTER 540 ITERATIONS ***

 final structure:
================
166
 xtb: 6.7.1 (edcfbbe)
N            2.74411351488244       -7.09468641007152        5.58901861176958
C            2.02239918460935       -6.29355215635138        5.19749340820705
C            1.14860088313198       -5.29676052051819        4.71092460332709
C            1.57344170077003       -4.42243515110781        3.71754926781406
C            0.72774738656862       -3.43801175547346        3.21540757630090
N            1.17659087829546       -2.61092824291952        2.19269940167603
C            0.48961587382338       -2.30812313217209        1.02553420466728
C           -0.66405428938023       -2.87800528969160        0.51166702570393
C           -1.13717162673151       -2.39840320267262       -0.69603183297156
C           -0.46525004844456       -1.39735068021095       -1.39107371736251
C            0.72102294301602       -0.87371479365801       -0.91336910130581
C            1.21147104876611       -1.33768546712747        0.29891150254720
C            2.40195718103652       -1.05616380230829        1.05686562645586
C            3.47602001377387       -0.20536248687933        0.85106551759850
C            4.49752872432070       -0.15860335261532        1.79309512535488
C            5.67041250495031        0.70145565159291        1.57607510580939
C            5.54099898655927        1.97724522377152        1.03655448322438
C            6.64998395751234        2.77169151004138        0.80560227539734
C            7.92895883815609        2.31671733828228        1.09789300612750
C            9.19158886439889        3.14100914819626        0.88035602345630
C           10.17235199612179        2.22756215772063        0.15615364521121
C           11.42068543385757        1.85635000441729        0.63816825721319
C           12.24780495467602        1.01215471416283       -0.08233903789262
C           11.83631395022310        0.49977203911281       -1.30571387323860
N           12.67147338261612       -0.36329999625720       -2.03490479257072
C           13.03211469032313       -0.21131878027010       -3.35780431941982
C           12.71215668465614        0.80259637070065       -4.25038225195964
C           13.23323070036626        0.72661734978011       -5.52777822376100
C           14.06087117886015       -0.32597029825220       -5.91496123148529
C           14.39906274618399       -1.32690355599728       -5.02603444145207
C           13.88727792073138       -1.27316639804973       -3.73562061757499
C           14.03775034129480       -2.10668364372284       -2.57589014912498
C           14.72852619207084       -3.28627834185010       -2.32780942245128
C           14.64241620755226       -3.85286635208929       -1.07162976955293
C           13.86771015095956       -3.26589493270141       -0.07258374050617
C           13.17175769291118       -2.09315889769688       -0.29476475058118
C           13.27239947119177       -1.50612637786984       -1.54873878600792
C           10.57972174944543        0.84620790029733       -1.79267655164136
C            9.76935755497533        1.69622747166061       -1.06869382964099
C            8.95145335229609        4.38875991480759        0.01423537152282
C           10.26548632910779        5.11552642954732       -0.28623075065187
C           11.19124546988152        5.15601143401579        0.93736412438163
C           10.39806247127979        4.97762258071251        2.22790573487825
C            9.65062131947403        3.63672438059979        2.27229667520683
C            8.05560468776961        1.04415783972766        1.65076408597059
C            6.95210586926706        0.25103625060620        1.88736171285018
C            4.40766809052085       -0.94736248960068        2.94700793856896
C            3.34300364683985       -1.79727754120389        3.17419670180740
C            2.34935688782407       -1.86722353413440        2.21017062343554
C           -0.57790563323377       -3.30603014593318        3.75086168204589
N           -1.43745469330910       -2.30214500935462        3.31978996734586
C           -1.11779102701240       -0.95982809120623        3.17374762045850
C            0.00726955430242       -0.27299333620577        3.60091613883787
C            0.07082641603325        1.08399553891018        3.34198550371648
C           -0.96965763456951        1.74809864333228        2.69913345328243
C           -2.11894045174783        1.07732237473919        2.32636847767727
C           -2.20128461036742       -0.28602360724113        2.57131813792516
C           -3.22914192203159       -1.26943665255250        2.35337422209791
C           -4.49213346532154       -1.20974197460446        1.78619068546285
C           -5.24601558633752       -2.37298006733366        1.68363099430644
C           -6.58829358610499       -2.34119597416203        1.08310042375370
C           -7.48876013359992       -1.32537742479388        1.39616019630221
C           -8.74889156571274       -1.30296647296865        0.83444969988955
C           -9.15735325499297       -2.28121158239871       -0.06983802547326
C          -10.57319918051116       -2.21151648863053       -0.62851059442801
C          -10.78785555052171       -0.77118917241141       -1.07433522894573
C           -9.90483224959228       -0.25401824504159       -2.02166318895966
C          -10.01282810529268        1.04214690433756       -2.48212527966210
C          -11.01142028968810        1.87510952708566       -1.98741083608633
N          -11.12194379669348        3.20172012523906       -2.43735736554891
C          -10.10637216389502        4.13519040766877       -2.44781033547963
C           -8.79498504662160        4.01889441258375       -2.00755972329803
C           -7.97943070232851        5.12960496781624       -2.10949830621889
C           -8.45117858258237        6.33400687059040       -2.62883249606149
C           -9.75997090932012        6.46170453891922       -3.04976913523496
C          -10.60018573033953        5.35905625999042       -2.95764677702781
C          -11.98390264295011        5.13954566515162       -3.27336766114639
C          -12.98246287190305        5.94144275243414       -3.81183770013711
C          -14.23541945566252        5.39611414374913       -4.00977509610574
C          -14.49685247702211        4.06522332840845       -3.68818528701686
C          -13.52088464931150        3.24772330093744       -3.15141903114509
C          -12.26438974444384        3.79550682348738       -2.93197479851787
C          -11.88839115798914        1.38003358063147       -1.03140336848851
C          -11.77474718849848        0.07487725539602       -0.58534285698954
C          -10.78499174744843       -3.13706323036875       -1.83857682983975
C          -12.17721108936237       -2.94569533917177       -2.44687103109573
C          -13.25618629177468       -2.77987593946546       -1.36785773399141
C          -12.79753611305653       -3.37435020416568       -0.04003976172515
C          -11.52060781503547       -2.70574224153661        0.49063768713076
C           -8.25825557494370       -3.29329106878210       -0.37991529807231
C           -6.99725251564456       -3.32430491836253        0.18807548131655
C           -4.71724135940871       -3.58333235238296        2.14830867666307
C           -3.46481392477142       -3.66278898456448        2.72505467248742
C           -2.72550635469194       -2.49558924784636        2.83704800279991
C           -1.00454221693912       -4.19559738698725        4.73216197490543
C           -0.16252206936096       -5.19004191491538        5.21601196878594
C           -0.61682627387694       -6.07741336652995        6.21596915497217
N           -1.00068039633036       -6.79548355680075        7.02407142478338
H            2.56268133657606       -4.53438651494591        3.29974332159474
H           -1.17703565056248       -3.67938355309902        1.02062727405074
H           -2.04441639771962       -2.81521826764450       -1.10724714979368
H           -0.86885954894726       -1.04344518729080       -2.32791332889388
H            1.26213064553687       -0.12529347034295       -1.47173658180212
H            3.52742477827312        0.39719723707091       -0.04254560492869
H            4.55744925444272        2.36262047059052        0.80873258509617
H            6.49860820795681        3.75536220739604        0.38996268271100
H           11.78067898612428        2.22073267568442        1.58734234152938
H           13.22370025815812        0.75413316989687        0.30261901537620
H           12.08308014812618        1.62897677511227       -3.95532739801613
H           12.99695116603275        1.50229840296877       -6.24189455147986
H           14.44697924913104       -0.35078058255083       -6.92362213705266
H           15.05142859055256       -2.13491680750429       -5.32249612193000
H           15.31661722056843       -3.74989867631029       -3.10601446064224
H           15.17427779977161       -4.76858278972856       -0.85787754394119
H           13.80746169780864       -3.74098852572712        0.89602730477058
H           12.56161595612838       -1.65458642272229        0.48053285452398
H           10.23765182119921        0.43370106786780       -2.73046877430630
H            8.78958947972789        1.93488103589409       -1.45576385976474
H            8.46927110196468        4.12002489507172       -0.92628255550702
H            8.28493691479740        5.06244061814366        0.55432912452779
H           10.77877710950415        4.61756164083070       -1.11143894196263
H           10.03017870730967        6.13064998383473       -0.61382693989384
H           11.93874801001020        4.36691792206138        0.85979577205839
H           11.72686561093439        6.10716622086311        0.96868792611748
H            9.68444061602841        5.79975025201469        2.31404613551312
H           11.07010424486599        5.04488342546246        3.08624597633762
H            8.75991965556632        3.75993633910260        2.89446915145967
H           10.25927990308888        2.87451475550177        2.75680566282419
H            9.03877297748615        0.66424661941249        1.88844731454712
H            7.08667094959085       -0.74127738585258        2.29332233763789
H            5.18634859258971       -0.87548208289601        3.69154797180991
H            3.29450302369907       -2.37729100636460        4.08414682610111
H            0.80762668221841       -0.76704625033600        4.12999387418791
H            0.94593281343123        1.63641502910064        3.65035255058656
H           -0.88230322427924        2.80753828797916        2.50969413513533
H           -2.93978004312871        1.59965572416773        1.85933700286487
H           -4.87407744768506       -0.27588750570158        1.40326428523812
H           -7.20403038580383       -0.55911447068434        2.10296787452437
H           -9.43041963946813       -0.50733813194037        1.09926533190760
H           -9.10970609876424       -0.87713954872717       -2.40399677443003
H           -9.32824703859152        1.41458324597274       -3.22998324240992
H           -8.42512115344043        3.09385086044444       -1.59098578919892
H           -6.95348798276235        5.06411530399826       -1.77693338363691
H           -7.78148432754047        7.17926284262152       -2.69380489109661
H          -10.12826676166170        7.39901994852840       -3.43984320624959
H          -12.77731362380619        6.96893671507544       -4.07372682838911
H          -15.02579543162224        6.00372751846843       -4.42599596732003
H          -15.48383852396761        3.66325570277931       -3.86644680378067
H          -13.72817335942823        2.21380387206419       -2.91912776360113
H          -12.65368378251677        2.02520394134565       -0.62492769119677
H          -12.47143500569103       -0.26026828173172        0.16665370352851
H          -10.68007616126828       -4.17072747439647       -1.50667422331948
H          -10.03150303336282       -2.95085351061945       -2.60466434323411
H          -12.40109161583948       -3.81291416968771       -3.07213386892245
H          -12.17591799953356       -2.06786272598132       -3.09641138068899
H          -14.17923537388359       -3.26982086392314       -1.68499011339880
H          -13.48198766573932       -1.72263762022283       -1.23201403065412
H          -13.59242072324977       -3.27454922515922        0.70227097886440
H          -12.62216027200628       -4.44308840573552       -0.18018639498326
H          -11.76714677537245       -1.88209500966563        1.15927879271219
H          -10.97517728772224       -3.43717441144521        1.09311594816168
H           -8.52716422115423       -4.07410373055933       -1.07361800884666
H           -6.31296478629052       -4.11505200011967       -0.08500064695672
H           -5.31442757207944       -4.47941726652037        2.06830419418524
H           -3.08138898833281       -4.61369134563174        3.06488996108155
H           -1.99318241615764       -4.08727003476765        5.15235214316614

          :  Hamiltonian                  GFN2-xTB          :
         :: gradient norm              0.000084429101 Eh/a0 ::
         :: HOMO-LUMO gap              1.344583318802 eV    ::
         :: SCC energy              -254.093310383297 Eh    ::
         :: -> dispersion             -0.249174074529 Eh    ::
         :: -> Gsolv                  -0.101554479473 Eh    ::
         :: repulsion energy           4.640498628892 Eh    ::

    * Orbital Energies and Occupations

         #    Occupation            Energy/Eh            Energy/eV
      -------------------------------------------------------------
         1        2.0000           -0.7100275             -19.3208
       ...           ...                  ...                  ...
       221        2.0000           -0.4024722             -10.9518
       222        2.0000           -0.3977907             -10.8244
       223        2.0000           -0.3976110             -10.8195
       224        2.0000           -0.3942703             -10.7286
       225        2.0000           -0.3927105             -10.6862
       226        2.0000           -0.3890065             -10.5854
       227        2.0000           -0.3870724             -10.5328
       228        2.0000           -0.3776685             -10.2769
       229        2.0000           -0.3774331             -10.2705
       230        2.0000           -0.3750305             -10.2051
       231        2.0000           -0.3720240             -10.1233
       232        2.0000           -0.3602684              -9.8034
       233        2.0000           -0.3601511              -9.8002 (HOMO)
       234                         -0.3107386              -8.4556 (LUMO)
       235                         -0.2864065              -7.7935
       236                         -0.2558889              -6.9631
       237                         -0.2553275              -6.9478
       238                         -0.2470424              -6.7224
       239                         -0.2451487              -6.6708
       240                         -0.2446967              -6.6585
       241                         -0.2439746              -6.6389
       242                         -0.2328675              -6.3366
       243                         -0.2305727              -6.2742
       244                         -0.2303529              -6.2682
       ...                                ...                  ...
       460                          1.1629723              31.6461
      -------------------------------------------------------------
                  HL-Gap            0.0494126 Eh            1.3446 eV

     #   Z          covCN         q      C6AA      α(0)
     1   7 N        0.911    -0.246    26.417     7.434
     2   6 C        1.911     0.119    28.163     8.571
     3   6 C        2.975     0.020    27.566     8.612
     4   6 C        2.929    -0.033    28.817     8.804
     5   6 C        2.909     0.060    26.649     8.465
     6   7 N        2.801    -0.039    21.992     6.965
     7   6 C        3.067     0.046    26.893     8.503
     8   6 C        2.910    -0.048    29.189     8.859
     9   6 C        2.924    -0.031    28.784     8.798
    10   6 C        2.920    -0.037    28.929     8.820
    11   6 C        2.913    -0.032    28.791     8.799
    12   6 C        3.066    -0.013    28.280     8.720
    13   6 C        3.063    -0.013    28.280     8.721
    14   6 C        2.919    -0.037    28.911     8.817
    15   6 C        2.976     0.004    27.935     8.670
    16   6 C        2.976     0.005    27.906     8.665
    17   6 C        2.924    -0.037    28.932     8.821
    18   6 C        2.922    -0.041    29.011     8.833
    19   6 C        2.981     0.008    27.841     8.655
    20   6 C        3.911     0.012    20.316     6.406
    21   6 C        2.977     0.016    27.652     8.626
    22   6 C        2.924    -0.036    28.889     8.814
    23   6 C        2.921    -0.046    29.138     8.852
    24   6 C        2.912     0.059    26.667     8.468
    25   7 N        2.802    -0.049    22.179     6.995
    26   6 C        3.077     0.048    26.841     8.494
    27   6 C        2.909    -0.052    29.294     8.875
    28   6 C        2.924    -0.036    28.888     8.814
    29   6 C        2.919    -0.043    29.080     8.843
    30   6 C        2.912    -0.035    28.882     8.812
    31   6 C        3.067    -0.020    28.429     8.743
    32   6 C        3.067    -0.020    28.429     8.743
    33   6 C        2.912    -0.035    28.881     8.812
    34   6 C        2.919    -0.043    29.079     8.843
    35   6 C        2.924    -0.036    28.888     8.814
    36   6 C        2.909    -0.052    29.295     8.875
    37   6 C        3.077     0.048    26.842     8.494
    38   6 C        2.920    -0.044    29.096     8.846
    39   6 C        2.929    -0.034    28.841     8.807
    40   6 C        3.811    -0.056    21.570     6.611
    41   6 C        3.802    -0.054    21.535     6.607
    42   6 C        3.802    -0.057    21.597     6.616
    43   6 C        3.802    -0.053    21.527     6.606
    44   6 C        3.810    -0.056    21.579     6.612
    45   6 C        2.925    -0.037    28.932     8.821
    46   6 C        2.924    -0.037    28.917     8.819
    47   6 C        2.929    -0.037    28.914     8.818
    48   6 C        2.908    -0.051    29.264     8.870
    49   6 C        3.067     0.044    26.942     8.511
    50   6 C        2.909     0.060    26.649     8.465
    51   7 N        2.800    -0.039    22.002     6.967
    52   6 C        3.067     0.046    26.890     8.503
    53   6 C        2.910    -0.048    29.187     8.859
    54   6 C        2.924    -0.031    28.785     8.798
    55   6 C        2.920    -0.037    28.930     8.820
    56   6 C        2.913    -0.032    28.790     8.799
    57   6 C        3.066    -0.013    28.280     8.720
    58   6 C        3.063    -0.013    28.278     8.720
    59   6 C        2.918    -0.036    28.903     8.816
    60   6 C        2.976     0.004    27.933     8.669
    61   6 C        2.977     0.005    27.902     8.665
    62   6 C        2.923    -0.037    28.911     8.818
    63   6 C        2.925    -0.037    28.931     8.821
    64   6 C        2.981     0.008    27.842     8.655
    65   6 C        3.911     0.012    20.316     6.407
    66   6 C        2.977     0.016    27.649     8.625
    67   6 C        2.929    -0.034    28.836     8.806
    68   6 C        2.920    -0.044    29.096     8.846
    69   6 C        2.912     0.059    26.667     8.468
    70   7 N        2.802    -0.049    22.182     6.995
    71   6 C        3.077     0.048    26.841     8.494
    72   6 C        2.909    -0.052    29.296     8.875
    73   6 C        2.924    -0.036    28.889     8.814
    74   6 C        2.919    -0.044    29.082     8.843
    75   6 C        2.912    -0.035    28.883     8.813
    76   6 C        3.067    -0.020    28.430     8.743
    77   6 C        3.067    -0.020    28.432     8.743
    78   6 C        2.912    -0.035    28.882     8.812
    79   6 C        2.919    -0.044    29.081     8.843
    80   6 C        2.924    -0.036    28.887     8.814
    81   6 C        2.909    -0.052    29.294     8.875
    82   6 C        3.077     0.048    26.841     8.494
    83   6 C        2.921    -0.046    29.132     8.851
    84   6 C        2.924    -0.036    28.887     8.814
    85   6 C        3.811    -0.056    21.567     6.610
    86   6 C        3.802    -0.054    21.536     6.607
    87   6 C        3.802    -0.057    21.593     6.616
    88   6 C        3.802    -0.053    21.526     6.606
    89   6 C        3.810    -0.056    21.578     6.612
    90   6 C        2.922    -0.041    29.010     8.833
    91   6 C        2.924    -0.037    28.932     8.821
    92   6 C        2.929    -0.037    28.912     8.818
    93   6 C        2.908    -0.051    29.264     8.870
    94   6 C        3.067     0.044    26.938     8.511
    95   6 C        2.929    -0.033    28.816     8.803
    96   6 C        2.975     0.020    27.568     8.612
    97   6 C        1.911     0.119    28.164     8.571
    98   7 N        0.911    -0.246    26.416     7.433
    99   1 H        0.926     0.067     2.120     2.277
   100   1 H        0.926     0.026     2.647     2.544
   101   1 H        0.926     0.036     2.505     2.475
   102   1 H        0.926     0.037     2.488     2.467
   103   1 H        0.926     0.040     2.450     2.448
   104   1 H        0.926     0.041     2.433     2.439
   105   1 H        0.926     0.033     2.548     2.496
   106   1 H        0.926     0.037     2.485     2.465
   107   1 H        0.926     0.045     2.380     2.413
   108   1 H        0.926     0.037     2.485     2.465
   109   1 H        0.926     0.029     2.602     2.522
   110   1 H        0.926     0.029     2.602     2.523
   111   1 H        0.926     0.026     2.637     2.539
   112   1 H        0.926     0.029     2.607     2.525
   113   1 H        0.926     0.029     2.607     2.525
   114   1 H        0.926     0.026     2.638     2.540
   115   1 H        0.926     0.029     2.605     2.524
   116   1 H        0.926     0.029     2.605     2.524
   117   1 H        0.926     0.037     2.493     2.469
   118   1 H        0.926     0.035     2.514     2.479
   119   1 H        0.924     0.033     2.547     2.496
   120   1 H        0.924     0.041     2.439     2.442
   121   1 H        0.924     0.024     2.667     2.554
   122   1 H        0.924     0.029     2.598     2.521
   123   1 H        0.925     0.034     2.525     2.485
   124   1 H        0.924     0.027     2.627     2.535
   125   1 H        0.924     0.033     2.545     2.495
   126   1 H        0.924     0.029     2.603     2.523
   127   1 H        0.924     0.031     2.577     2.511
   128   1 H        0.925     0.036     2.506     2.476
   129   1 H        0.926     0.027     2.630     2.536
   130   1 H        0.926     0.030     2.590     2.517
   131   1 H        0.926     0.039     2.464     2.455
   132   1 H        0.926     0.028     2.612     2.527
   133   1 H        0.926     0.026     2.649     2.545
   134   1 H        0.926     0.036     2.502     2.474
   135   1 H        0.926     0.037     2.488     2.467
   136   1 H        0.926     0.040     2.454     2.450
   137   1 H        0.926     0.040     2.446     2.446
   138   1 H        0.926     0.030     2.579     2.512
   139   1 H        0.926     0.028     2.621     2.531
   140   1 H        0.926     0.035     2.514     2.479
   141   1 H        0.926     0.037     2.489     2.467
   142   1 H        0.926     0.029     2.603     2.523
   143   1 H        0.926     0.029     2.603     2.523
   144   1 H        0.926     0.026     2.638     2.540
   145   1 H        0.926     0.028     2.609     2.526
   146   1 H        0.926     0.028     2.609     2.526
   147   1 H        0.926     0.026     2.640     2.541
   148   1 H        0.926     0.029     2.603     2.523
   149   1 H        0.926     0.029     2.602     2.522
   150   1 H        0.926     0.037     2.487     2.466
   151   1 H        0.926     0.045     2.377     2.411
   152   1 H        0.924     0.041     2.440     2.443
   153   1 H        0.924     0.033     2.550     2.497
   154   1 H        0.924     0.029     2.600     2.522
   155   1 H        0.924     0.025     2.663     2.552
   156   1 H        0.924     0.027     2.627     2.535
   157   1 H        0.925     0.034     2.526     2.486
   158   1 H        0.924     0.029     2.602     2.522
   159   1 H        0.924     0.033     2.547     2.496
   160   1 H        0.925     0.036     2.504     2.475
   161   1 H        0.924     0.031     2.579     2.511
   162   1 H        0.926     0.037     2.492     2.469
   163   1 H        0.926     0.031     2.571     2.507
   164   1 H        0.926     0.039     2.461     2.453
   165   1 H        0.926     0.028     2.610     2.526
   166   1 H        0.926     0.067     2.118     2.276

molecular dipole:
                 x           y           z       tot (Debye)
 q only:       -1.095       1.987      -0.953
   full:       -1.158       2.336      -1.258       7.358

 projected vibrational frequencies (cm⁻¹)
eigval :       -0.00    -0.00    -0.00     0.00     0.00     0.00
eigval :        2.50     4.14     5.20     7.09     9.09    10.93
eigval :       13.99    14.69    20.92    24.59    28.95    31.68
eigval :       36.07    38.14    38.66    40.77    41.09    49.40
eigval :       54.36    56.26    59.07    62.00    64.21    70.68
eigval :       75.07    80.56    83.85    99.13    99.98   100.28
eigval :      103.46   107.42   108.62   110.43   113.69   116.31
eigval :      122.19   127.63   132.56   141.01   142.25   144.91
eigval :      148.58   152.25   158.28   169.50   174.73   178.07
eigval :      184.18   189.34   192.35   199.12   200.50   208.50
eigval :      221.94   225.93   235.40   241.59   251.76   255.34
eigval :      265.83   270.53   271.99   272.94   278.97   280.20
eigval :      284.73   287.32   295.67   298.15   303.47   311.25
eigval :      316.55   329.86   337.95   358.62   367.00   374.25
eigval :      374.52   375.40   376.67   384.92   389.32   391.72
eigval :      392.26   394.57   396.98   398.13   399.33   402.02
eigval :      410.25   410.62   415.90   418.65   424.22   424.80
eigval :      425.93   429.81   433.22   437.22   438.46   438.87
eigval :      446.81   454.48   459.89   460.27   475.10   477.94
eigval :      481.74   490.01   515.68   516.86   517.22   517.62
eigval :      524.63   525.86   527.16   530.45   531.13   534.70
eigval :      536.96   537.80   540.23   540.74   546.60   550.51
eigval :      563.11   572.14   582.71   583.06   585.01   585.64
eigval :      590.99   594.98   595.91   598.09   599.20   603.32
eigval :      604.78   608.46   616.02   617.13   617.77   619.88
eigval :      645.85   651.07   653.36   664.89   672.88   673.32
eigval :      673.42   676.28   677.85   679.69   694.48   696.22
eigval :      701.34   703.97   705.92   707.46   707.82   708.16
eigval :      709.06   719.64   723.95   741.59   741.94   753.91
eigval :      757.09   757.15   766.32   767.70   777.89   778.51
eigval :      779.08   780.14   799.53   800.31   801.57   804.30
eigval :      808.40   808.62   819.17   825.18   826.57   828.17
eigval :      831.70   833.74   846.45   866.24   866.78   870.20
eigval :      870.86   871.71   872.65   874.28   877.35   878.00
eigval :      879.66   881.02   881.84   884.11   887.60   888.90
eigval :      892.17   897.42   897.43   900.10   900.32   900.37
eigval :      902.77   904.23   906.69   906.89   907.11   913.11
eigval :      915.90   915.96   918.57   919.04   920.28   920.44
eigval :      920.62   923.25   923.86   926.32   927.14   927.64
eigval :      928.32   931.32   931.90   935.06   935.66   937.84
eigval :      938.67   956.24   959.02   959.45   963.57   964.15
eigval :      975.08   975.35   990.05   990.26  1010.95  1011.09
eigval :     1015.36  1015.86  1020.19  1020.60  1032.83  1033.55
eigval :     1068.26  1068.37  1069.97  1071.33  1071.69  1072.56
eigval :     1073.90  1079.73  1086.70  1100.29  1100.49  1118.00
eigval :     1118.07  1121.93  1123.79  1124.24  1128.42  1128.44
eigval :     1139.56  1140.32  1140.63  1150.03  1150.08  1150.96
eigval :     1151.57  1154.62  1155.43  1155.73  1158.81  1170.22
eigval :     1170.41  1173.87  1173.95  1174.21  1175.84  1179.34
eigval :     1180.26  1182.33  1183.99  1185.44  1185.57  1198.66
eigval :     1198.68  1205.93  1206.43  1210.26  1210.72  1211.35
eigval :     1214.39  1219.36  1220.60  1222.85  1224.37  1225.29
eigval :     1226.00  1235.58  1235.65  1236.39  1241.56  1242.33
eigval :     1245.71  1245.72  1251.50  1252.00  1256.82  1263.50
eigval :     1265.10  1273.98  1274.05  1279.36  1280.02  1281.10
eigval :     1281.47  1283.80  1284.29  1299.36  1299.41  1302.82
eigval :     1303.12  1303.61  1312.97  1314.02  1316.16  1317.23
eigval :     1318.73  1320.22  1328.34  1329.67  1331.87  1336.69
eigval :     1337.91  1344.07  1344.94  1348.28  1348.51  1350.67
eigval :     1351.02  1354.31  1355.42  1355.61  1355.95  1358.47
eigval :     1359.31  1360.78  1361.02  1366.52  1366.90  1382.19
eigval :     1399.17  1399.44  1403.90  1403.90  1406.59  1418.41
eigval :     1418.69  1427.59  1427.70  1427.87  1429.25  1431.20
eigval :     1431.50  1464.34  1465.81  1474.30  1474.57  1479.67
eigval :     1480.39  1481.92  1485.46  1485.84  1487.07  1487.20
eigval :     1491.64  1491.91  1493.27  1493.35  1494.75  1499.99
eigval :     1500.40  1503.24  1503.71  1506.22  1506.51  1517.48
eigval :     1517.59  1542.04  1563.62  1564.06  1566.82  1567.10
eigval :     1572.35  1572.61  1573.90  1573.94  1586.24  1586.50
eigval :     1587.10  1587.20  1596.16  1596.68  1597.13  1597.19
eigval :     1599.80  1600.03  1602.93  1603.00  1611.64  1612.27
eigval :     1613.57  1613.61  2361.78  2362.10  2953.93  2954.04
eigval :     2957.33  2957.67  2964.15  2964.27  2971.37  2971.52
eigval :     2977.45  2977.53  2982.89  2983.20  2985.53  2985.59
eigval :     2994.45  2994.79  3006.22  3006.31  3010.04  3011.00
eigval :     3069.01  3069.33  3069.48  3069.65  3069.93  3070.77
eigval :     3071.88  3074.29  3074.57  3074.59  3074.70  3075.23
eigval :     3075.44  3075.78  3077.35  3077.74  3078.85  3079.46
eigval :     3079.64  3081.32  3081.90  3082.34  3082.77  3083.20
eigval :     3084.03  3084.10  3084.72  3085.28  3089.24  3089.41
eigval :     3089.61  3089.87  3089.88  3090.52  3091.85  3092.28
eigval :     3092.32  3092.85  3094.42  3095.87  3099.06  3099.77
eigval :     3100.04  3101.27  3101.59  3102.19  3102.46  3103.70

   temp. (K)  partition function   enthalpy   heat capacity  entropy
                                   cal/mol     cal/K/mol   cal/K/mol   J/K/mol
 298.15  VIB  0.259E+41            47890.249    298.497    304.133
         ROT  0.129E+10              888.752      2.981     44.667
         INT  0.333E+50            48779.002    301.478    348.801
         TR   0.431E+29             1481.254      4.968     47.243
         TOT                       50260.2554   306.4460   396.0439  1657.0476

       T/K    H(0)-H(T)+PV         H(T)/Eh          T*S/Eh         G(T)/Eh
   ------------------------------------------------------------------------
    298.15    0.800948E-01    0.139175E+01    0.188173E+00    0.120358E+01
   ------------------------------------------------------------------------

         :::::::::::::::::::::::::::::::::::::::::::::::::::::
         ::                  THERMODYNAMIC                  ::
         :::::::::::::::::::::::::::::::::::::::::::::::::::::
         :: total free energy        -248.249234896751 Eh   ::
         ::.................................................::
         :: total energy             -249.452811748164 Eh   ::
         :: zero point energy           1.311655269367 Eh   ::
         :: G(RRHO) w/o ZPVE           -0.108078417954 Eh   ::
         :: G(RRHO) contrib.            1.203576851413 Eh   ::
         :::::::::::::::::::::::::::::::::::::::::::::::::::::

           -------------------------------------------------
          | TOTAL ENERGY             -249.452811748164 Eh   |
          | TOTAL ENTHALPY           -248.061061663500 Eh   |
          | TOTAL FREE ENERGY        -248.249234896751 Eh   |
          | GRADIENT NORM               0.000084371941 Eh/α |
          | HOMO-LUMO GAP               1.344583985275 eV   |
           -------------------------------------------------

 * finished run on 2025/09/12 at 13:36:11.166
