   * xtb version 6.7.1 (edcfbbe) compiled by 'albert@albert-system' on 2024-07-22

   ID    Z sym.   atoms
    1    7 N      1, 6, 25, 51, 70, 98
    2    6 C      2-5, 7-24, 26-50, 52-69, 71-97
    3    1 H      99-166

          program call               : xtb data2507/toluene/BPCP-2CPC/BPCP-2CPC_toluene_T1_crest.xyz --gfn 2 --uhf 2 --gbsa toluene --ohess vtight --parallel 40 --molden --ceasefiles --namespace data2507/toluene/BPCP-2CPC/BPCP-2CPC_toluene_T1_finalOpt
      * Solvation model:               GBSA
        Solvent                        toluene
        Solvent mass                       9.2140E+01 g/mol
          :  Hamiltonian                  GFN2-xTB          :
 * total energy  :  -249.3916666 Eh     change       -0.1437561E-06 Eh
 * total energy  :  -249.3920920 Eh     change       -0.4254727E-03 Eh
 * total energy  :  -249.3920391 Eh     change        0.5298154E-04 Eh
 * total energy  :  -249.3924529 Eh     change       -0.4138679E-03 Eh
 * total energy  :  -249.3925429 Eh     change       -0.9001147E-04 Eh
 * total energy  :  -249.3927174 Eh     change       -0.1744521E-03 Eh
 * total energy  :  -249.3927915 Eh     change       -0.7411165E-04 Eh
 * total energy  :  -249.3929092 Eh     change       -0.1176986E-03 Eh
 * total energy  :  -249.3930326 Eh     change       -0.1234111E-03 Eh
 * total energy  :  -249.3931383 Eh     change       -0.1056773E-03 Eh
 * total energy  :  -249.3942170 Eh     change       -0.2805018E-06 Eh
 * total energy  :  -249.3942174 Eh     change       -0.3338427E-06 Eh
 * total energy  :  -249.3942178 Eh     change       -0.3897920E-06 Eh
 * total energy  :  -249.3942181 Eh     change       -0.3119367E-06 Eh
 * total energy  :  -249.3942184 Eh     change       -0.3001987E-06 Eh
 * total energy  :  -249.3942188 Eh     change       -0.3915090E-06 Eh
 * total energy  :  -249.3942191 Eh     change       -0.3262995E-06 Eh
 * total energy  :  -249.3942193 Eh     change       -0.1735602E-06 Eh
 * total energy  :  -249.3942193 Eh     change       -0.5037134E-07 Eh
   *** GEOMETRY OPTIMIZATION CONVERGED AFTER 89 ITERATIONS ***

 final structure:
================
166
 xtb: 6.7.1 (edcfbbe)
N           12.11384712932652       -1.20272744959241        2.30589113649208
C           11.20259416235951       -0.99569884985240        1.61764799648624
C           10.09970614738224       -0.73988159027836        0.82181584878503
C            8.82775454842830       -0.62347241417345        1.38995819360748
C            7.70386002717842       -0.38955764477408        0.63049052236567
N            6.44750420287857       -0.29496815966784        1.24400371980008
C            6.12954457592843        0.59208278544419        2.25732680562539
C            6.94204626281824        1.49950752818679        2.92255835027034
C            6.35933930288406        2.30472881894591        3.88485504432071
C            5.00083961681365        2.21571191984237        4.17889067813397
C            4.18318001468950        1.32419497480784        3.50744236885537
C            4.74493624014495        0.50930122657251        2.53588527807258
C            4.21255560257852       -0.49457610465754        1.65519515081010
C            2.95109154629281       -1.03345808845939        1.48502445713232
C            2.76398871056535       -2.05736309203085        0.55735736504983
C            1.44682820311997       -2.67869661786877        0.38990541107770
C            0.97424212918156       -3.07322242877224       -0.86185117118173
C           -0.24265940866798       -3.71209202693450       -0.99213443781954
C           -1.03176236638163       -4.01707906468557        0.11667046056845
C           -2.34537863469848       -4.76647404109455       -0.06445602622136
C           -3.36515314912941       -3.76200622587928       -0.58669836033379
C           -4.19970480584681       -3.99988246600784       -1.67334883429140
C           -5.17521177161148       -3.09098325724921       -2.04555970916831
C           -5.33795828301796       -1.90872789775845       -1.33256207250502
N           -6.34884256303501       -0.99348214046947       -1.65521101346465
C           -6.19059429456362        0.37201545963200       -1.76969009790289
C           -5.03196370812696        1.13554180760220       -1.72146299416972
C           -5.15105377929530        2.50316921343138       -1.88229038175898
C           -6.38739761229234        3.10214932450030       -2.10921791325900
C           -7.54117783499518        2.34319572271794       -2.19571676531051
C           -7.44699432925813        0.97023468401518       -2.02517769993225
C           -8.40822789075926       -0.09940899006938       -2.05324573961392
C           -9.78177870650732       -0.14278480536615       -2.23976345971522
C          -10.42083750985699       -1.36788867042007       -2.17309606696098
C           -9.70735294139836       -2.53438498094424       -1.90894640564672
C           -8.33728844079194       -2.51593837247428       -1.72312522854407
C           -7.68677889028675       -1.29287382554435       -1.81561426146762
C           -4.48045303853279       -1.64280703225803       -0.26925677519771
C           -3.51466649845996       -2.55495396446567        0.09462804679000
C           -2.15967985133316       -5.97176263954536       -1.00424483075067
C           -1.19796122191942       -6.99429662896448       -0.40452446656355
C           -1.77236508466876       -7.54631905438927        0.89561280071940
C           -2.01971838311448       -6.40431296375452        1.87501179435953
C           -2.91613733127094       -5.33303900998824        1.25542475904491
C           -0.58350596512954       -3.56814571467066        1.35661825249418
C            0.62566654975802       -2.91486988433047        1.49151063425987
C            3.86453070346754       -2.53469641334187       -0.17433901807701
C            5.13105137248567       -2.01645710651653       -0.01404901029353
C            5.30362936954725       -0.96851461513121        0.88404283094587
C            7.83772016859981       -0.24354768900656       -0.80300365190182
N            6.71122625136619        0.01589248060548       -1.59286820235145
C            6.28126242118959       -0.76659236493457       -2.65046470941359
C            6.89296177492069       -1.86118801628017       -3.24491747283208
C            6.22354516233535       -2.49365847369707       -4.27753254732888
C            4.97315379660854       -2.05558930763942       -4.70688053765952
C            4.35036073273278       -0.97634451732733       -4.10529506374480
C            5.00196622388455       -0.32751947442823       -3.06718602570057
C            4.65696063126451        0.78227220618025       -2.22054384313093
C            3.54292818504486        1.59347186236142       -2.12024292440719
C            3.51843605319626        2.60320485296682       -1.15860886836758
C            2.29597111784993        3.38595142114600       -0.96610288407725
C            1.84552084669167        3.69731452534158        0.31824597980398
C            0.62602074421395        4.31103357829561        0.50564643723237
C           -0.19269334968449        4.65427914596042       -0.57259855192277
C           -1.57877385751897        5.20029929111539       -0.26326192277357
C           -2.36111854620596        4.08243717243425        0.41648085661994
C           -2.04572123771906        2.74946253503011        0.16272856821721
C           -2.75379838705437        1.71850949885910        0.74580466282618
C           -3.82887237443235        1.99605224731288        1.58344789353364
N           -4.56595965295085        0.94337017575883        2.14922854874612
C           -4.03787746449355       -0.13936883748389        2.82217733136728
C           -2.72693360864219       -0.38234675843405        3.21024880075214
C           -2.46569154986250       -1.55477565651939        3.89457617324441
C           -3.47789831013080       -2.46594940825272        4.18932896486943
C           -4.78774435712059       -2.22094267935326        3.81925667195072
C           -5.07599163470475       -1.04907026315416        3.13483029160174
C           -6.28748699406130       -0.48071480764227        2.60695107939113
C           -7.60535769006702       -0.91180322716196        2.56043473328695
C           -8.53917718800507       -0.11847758188819        1.91918609348254
C           -8.16962028986902        1.08263652571749        1.31914907924872
C           -6.86321220405685        1.53301917302748        1.34990345145926
C           -5.92599853056487        0.75004882596910        2.00921997344922
C           -4.16945803545489        3.32063870359968        1.83100994489005
C           -3.43878678841192        4.34423859719621        1.25664119133561
C           -1.40914292632599        6.44962327976311        0.64489652208122
C           -2.39936843906139        7.56865931920640        0.33206186792889
C           -2.21179863017877        8.08946995919450       -1.09540101224585
C           -1.87813754878602        6.94669957803518       -2.06515653578424
C           -2.37290771674110        5.61002389843254       -1.52022617518675
C            0.29005611922845        4.40410901565719       -1.85226976374570
C            1.50769090672092        3.77834709157565       -2.04558558363219
C            4.65044324409821        2.82692593340016       -0.35783333741215
C            5.77376318263593        2.03538875543244       -0.44882564677957
C            5.75340869706646        0.96972323333899       -1.34277103950116
C            9.08220220766614       -0.35948246443920       -1.37969828234501
C           10.23242497036637       -0.60340545223852       -0.62400709176415
C           11.46926127929981       -0.69600290441912       -1.23812258028144
N           12.49400710561308       -0.77842447782142       -1.77661564932049
H            8.72902646041966       -0.75614263756441        2.45912320426914
H            7.99484316192501        1.58169110760553        2.69584630633605
H            6.97310374511756        3.01661066397041        4.41645018728650
H            4.58354578709929        2.85872109597633        4.93942370856182
H            3.12833398657509        1.26582804421207        3.72854065683994
H            2.11852019266578       -0.65466129349773        2.05736408835276
H            1.56189037091116       -2.86051182806809       -1.74319504032952
H           -0.57637705773015       -3.97940637157666       -1.98311877167983
H           -4.10485953021959       -4.90361209526312       -2.25277090058114
H           -5.80487521995191       -3.29466537328951       -2.89888610448800
H           -4.06496116769832        0.68101249850429       -1.57647788134581
H           -4.26416317596752        3.11564407499714       -1.82897719674258
H           -6.44259960069349        4.17367422886783       -2.23180664625784
H           -8.49576756141045        2.80736463437143       -2.39253420711741
H          -10.33944778453141        0.76238545516229       -2.42739439992292
H          -11.48972178970634       -1.42314371241902       -2.31741885870915
H          -10.23625860077077       -3.47394575318623       -1.84565471652610
H           -7.79650573362357       -3.42275905656685       -1.50082879135372
H           -4.60584142098595       -0.72809130250364        0.28263279695303
H           -2.87599365979189       -2.33067681264971        0.93536677229948
H           -3.12534570676407       -6.46223604818543       -1.14171578254735
H           -1.80096244412573       -5.65515300188529       -1.98325902570427
H           -1.04010965276332       -7.80750832928758       -1.11696821953242
H           -0.23015907566664       -6.52638656036681       -0.21019703256779
H           -2.71235337580248       -8.06367640751538        0.68637324085224
H           -1.08351150416568       -8.27098101222484        1.33526976093854
H           -1.05792512393476       -5.97412120198909        2.15755485981621
H           -2.49506867523244       -6.78731851662276        2.78142722598403
H           -3.09748178687679       -4.52915707105638        1.96991943880058
H           -3.88849732753930       -5.77798379068723        1.02678040710906
H           -1.17292615855705       -3.72692177764197        2.24485461137588
H            0.95851132644765       -2.61848001627081        2.47539485038522
H            3.72169057318596       -3.35860081168190       -0.85720536460074
H            5.96775098687774       -2.43268055133074       -0.55444133432600
H            7.85786126683935       -2.21477027182269       -2.91265327550404
H            6.68244263146863       -3.34520135577216       -4.75760057403266
H            4.48419167029116       -2.57328978842542       -5.51860857474861
H            3.37528594246807       -0.64720762036020       -4.43050962193901
H            2.68733985623938        1.42294760814005       -2.75508010727839
H            2.43923097794844        3.40957731470011        1.17318287532626
H            0.28235682419231        4.49880534142363        1.51206271448364
H           -1.23269700482972        2.50385810994876       -0.50273480265966
H           -2.48351877034906        0.69337303657373        0.53935567139548
H           -1.93885625425746        0.32204937076872        2.99171137306631
H           -1.45510037146557       -1.76731531326651        4.21030499745830
H           -3.23371249504361       -3.37219589609000        4.72448997323724
H           -5.57139308573284       -2.92344037673274        4.05889638031868
H           -7.89163449886857       -1.85036959850617        3.01036227247740
H           -9.56948871445900       -0.43800212848402        1.86927870346917
H           -8.91838337662182        1.67271046105985        0.81307754927735
H           -6.58015964455163        2.45235044061808        0.86156216519927
H           -4.99543811297873        3.54602529067610        2.48915424181199
H           -3.72002668996625        5.36059423896428        1.47999000677749
H           -0.40167919076195        6.84724454029736        0.50201903178999
H           -1.49960011664015        6.16149948977124        1.69354511796832
H           -2.24965459922530        8.38529923437330        1.04197446838574
H           -3.42343291748825        7.21630893368603        0.45941471353425
H           -1.40684002184701        8.82678641045164       -1.11568288335006
H           -3.12497800348303        8.59871645098550       -1.41040684723006
H           -2.33188138705535        7.13952396292343       -3.03936380443058
H           -0.79817816659621        6.89436432328486       -2.21053730142924
H           -3.42859461849480        5.69966320031117       -1.25853755362446
H           -2.29957878105713        4.82897632572169       -2.27774150426495
H           -0.28311682104559        4.67237180330362       -2.72493150120811
H            1.85404292690024        3.59490892379801       -3.05239046090222
H            4.64786080321488        3.65568407113925        0.33384717569339
H            6.64583509778754        2.24174570724402        0.15306492461477
H            9.18801576925974       -0.22558412018584       -2.44791222349697

          :  Hamiltonian                  GFN2-xTB          :
         :: gradient norm              0.000103048190 Eh/a0 ::
         :: HOMO-LUMO gap              0.530189525340 eV    ::
         :: SCC energy              -254.013853981744 Eh    ::
         :: -> dispersion             -0.274857042451 Eh    ::
         :: -> Gsolv                  -0.111411474406 Eh    ::
         :: repulsion energy           4.619634657516 Eh    ::

    * Orbital Energies and Occupations

         #    Occupation            Energy/Eh            Energy/eV
      -------------------------------------------------------------
         1        2.0000           -0.6896179             -18.7655
       ...           ...                  ...                  ...
       222        2.0000           -0.4011330             -10.9154
       223        2.0000           -0.4000281             -10.8853
       224        2.0000           -0.3964404             -10.7877
       225        2.0000           -0.3929989             -10.6940
       226        2.0000           -0.3907096             -10.6317
       227        2.0000           -0.3881759             -10.5628
       228        2.0000           -0.3873580             -10.5405
       229        2.0000           -0.3852518             -10.4832
       230        1.9728           -0.3719081             -10.1201
       231        1.8636           -0.3702636             -10.0754
       232        1.7920           -0.3697808             -10.0622
       233        1.3716           -0.3680115             -10.0141
       234        1.0000           -0.2761334              -7.5140 (HOMO)
       235        0.0000           -0.2566494              -6.9838 (LUMO)
       236        0.0000           -0.2555104              -6.9528
       237        0.0000           -0.2552377              -6.9454
       238        0.0000           -0.2535361              -6.8991
       239                         -0.2512059              -6.8357
       240                         -0.2503783              -6.8131
       241                         -0.2442675              -6.6469
       242                         -0.2389934              -6.5033
       243                         -0.2386990              -6.4953
       244                         -0.2351059              -6.3976
       245                         -0.2345284              -6.3818
       ...                                ...                  ...
       460                          1.1859574              32.2715
      -------------------------------------------------------------
                  HL-Gap            0.0194840 Eh            0.5302 eV

     #   Z          covCN         q      C6AA      α(0)
     1   7 N        0.911    -0.365    29.394     7.841
     2   6 C        1.910     0.096    28.703     8.652
     3   6 C        2.965    -0.027    28.663     8.782
     4   6 C        2.923    -0.037    28.931     8.821
     5   6 C        2.904     0.028    27.376     8.579
     6   7 N        2.799    -0.028    21.780     6.931
     7   6 C        3.078     0.049    26.829     8.492
     8   6 C        2.909    -0.043    29.065     8.840
     9   6 C        2.923    -0.032    28.809     8.802
    10   6 C        2.920    -0.035    28.881     8.813
    11   6 C        2.912    -0.031    28.766     8.795
    12   6 C        3.065    -0.014    28.295     8.723
    13   6 C        3.063    -0.015    28.330     8.728
    14   6 C        2.917    -0.035    28.879     8.812
    15   6 C        2.975     0.008    27.844     8.656
    16   6 C        2.976     0.009    27.814     8.651
    17   6 C        2.923    -0.035    28.865     8.811
    18   6 C        2.925    -0.035    28.880     8.813
    19   6 C        2.973     0.018    27.603     8.618
    20   6 C        3.910     0.012    20.315     6.406
    21   6 C        2.979     0.013    27.714     8.635
    22   6 C        2.924    -0.036    28.906     8.817
    23   6 C        2.920    -0.043    29.057     8.840
    24   6 C        2.913     0.059    26.679     8.470
    25   7 N        2.802    -0.027    21.766     6.929
    26   6 C        3.075     0.048    26.846     8.495
    27   6 C        2.910    -0.047    29.160     8.855
    28   6 C        2.923    -0.033    28.824     8.804
    29   6 C        2.920    -0.036    28.905     8.816
    30   6 C        2.912    -0.030    28.761     8.794
    31   6 C        3.066    -0.013    28.270     8.719
    32   6 C        3.067    -0.014    28.285     8.721
    33   6 C        2.912    -0.031    28.763     8.794
    34   6 C        2.920    -0.037    28.911     8.817
    35   6 C        2.923    -0.032    28.799     8.801
    36   6 C        2.910    -0.046    29.145     8.852
    37   6 C        3.075     0.048    26.847     8.495
    38   6 C        2.923    -0.044    29.085     8.844
    39   6 C        2.926    -0.034    28.845     8.808
    40   6 C        3.813    -0.059    21.625     6.619
    41   6 C        3.805    -0.053    21.527     6.605
    42   6 C        3.806    -0.056    21.573     6.612
    43   6 C        3.804    -0.055    21.563     6.611
    44   6 C        3.814    -0.055    21.554     6.608
    45   6 C        2.923    -0.037    28.921     8.819
    46   6 C        2.924    -0.036    28.888     8.814
    47   6 C        2.927    -0.038    28.933     8.821
    48   6 C        2.907    -0.043    29.076     8.842
    49   6 C        3.075     0.048    26.837     8.494
    50   6 C        2.904     0.028    27.377     8.579
    51   7 N        2.800    -0.027    21.761     6.928
    52   6 C        3.077     0.049    26.831     8.492
    53   6 C        2.909    -0.043    29.069     8.841
    54   6 C        2.923    -0.032    28.808     8.802
    55   6 C        2.920    -0.035    28.872     8.811
    56   6 C        2.912    -0.031    28.761     8.794
    57   6 C        3.065    -0.014    28.287     8.721
    58   6 C        3.063    -0.015    28.329     8.728
    59   6 C        2.918    -0.035    28.881     8.813
    60   6 C        2.977     0.008    27.843     8.655
    61   6 C        2.977     0.009    27.815     8.651
    62   6 C        2.923    -0.034    28.851     8.808
    63   6 C        2.925    -0.036    28.891     8.815
    64   6 C        2.977     0.014    27.703     8.634
    65   6 C        3.909     0.011    20.332     6.409
    66   6 C        2.978     0.013    27.712     8.635
    67   6 C        2.926    -0.034    28.854     8.809
    68   6 C        2.921    -0.041    29.015     8.833
    69   6 C        2.913     0.059    26.682     8.470
    70   7 N        2.801    -0.035    21.911     6.952
    71   6 C        3.074     0.049    26.828     8.492
    72   6 C        2.909    -0.047    29.163     8.855
    73   6 C        2.923    -0.032    28.798     8.800
    74   6 C        2.920    -0.038    28.938     8.821
    75   6 C        2.912    -0.031    28.783     8.797
    76   6 C        3.065    -0.014    28.304     8.724
    77   6 C        3.066    -0.016    28.335     8.729
    78   6 C        2.912    -0.032    28.796     8.799
    79   6 C        2.920    -0.037    28.929     8.820
    80   6 C        2.924    -0.031    28.780     8.798
    81   6 C        2.909    -0.047    29.166     8.856
    82   6 C        3.074     0.048    26.849     8.496
    83   6 C        2.920    -0.042    29.048     8.838
    84   6 C        2.925    -0.035    28.861     8.810
    85   6 C        3.808    -0.057    21.585     6.614
    86   6 C        3.802    -0.053    21.526     6.605
    87   6 C        3.803    -0.057    21.590     6.615
    88   6 C        3.803    -0.055    21.564     6.611
    89   6 C        3.811    -0.053    21.518     6.603
    90   6 C        2.921    -0.038    28.954     8.824
    91   6 C        2.924    -0.036    28.892     8.815
    92   6 C        2.926    -0.038    28.935     8.821
    93   6 C        2.908    -0.043    29.065     8.840
    94   6 C        3.078     0.048    26.833     8.493
    95   6 C        2.923    -0.038    28.936     8.821
    96   6 C        2.965    -0.027    28.661     8.781
    97   6 C        1.910     0.096    28.703     8.652
    98   7 N        0.911    -0.364    29.392     7.841
    99   1 H        0.925     0.028     2.610     2.526
   100   1 H        0.926     0.028     2.621     2.532
   101   1 H        0.926     0.037     2.494     2.470
   102   1 H        0.926     0.041     2.440     2.443
   103   1 H        0.926     0.044     2.394     2.420
   104   1 H        0.926     0.047     2.352     2.398
   105   1 H        0.926     0.033     2.546     2.495
   106   1 H        0.926     0.035     2.511     2.478
   107   1 H        0.926     0.050     2.316     2.380
   108   1 H        0.926     0.046     2.368     2.406
   109   1 H        0.926     0.037     2.485     2.465
   110   1 H        0.926     0.038     2.473     2.459
   111   1 H        0.926     0.036     2.501     2.473
   112   1 H        0.926     0.038     2.479     2.462
   113   1 H        0.926     0.038     2.478     2.461
   114   1 H        0.926     0.035     2.513     2.479
   115   1 H        0.926     0.037     2.489     2.467
   116   1 H        0.926     0.039     2.467     2.456
   117   1 H        0.926     0.042     2.425     2.435
   118   1 H        0.926     0.042     2.421     2.433
   119   1 H        0.924     0.041     2.438     2.442
   120   1 H        0.925     0.035     2.523     2.484
   121   1 H        0.924     0.028     2.619     2.531
   122   1 H        0.924     0.030     2.587     2.516
   123   1 H        0.924     0.031     2.566     2.505
   124   1 H        0.924     0.025     2.652     2.546
   125   1 H        0.924     0.037     2.494     2.470
   126   1 H        0.924     0.030     2.590     2.517
   127   1 H        0.924     0.035     2.511     2.478
   128   1 H        0.924     0.035     2.515     2.480
   129   1 H        0.926     0.045     2.382     2.413
   130   1 H        0.926     0.034     2.526     2.486
   131   1 H        0.926     0.039     2.458     2.452
   132   1 H        0.926     0.026     2.637     2.539
   133   1 H        0.926     0.028     2.609     2.526
   134   1 H        0.926     0.037     2.488     2.467
   135   1 H        0.926     0.041     2.436     2.441
   136   1 H        0.926     0.044     2.394     2.420
   137   1 H        0.926     0.047     2.358     2.402
   138   1 H        0.926     0.033     2.539     2.492
   139   1 H        0.926     0.035     2.519     2.482
   140   1 H        0.926     0.041     2.438     2.442
   141   1 H        0.926     0.043     2.405     2.425
   142   1 H        0.926     0.036     2.509     2.477
   143   1 H        0.926     0.036     2.507     2.476
   144   1 H        0.926     0.033     2.544     2.494
   145   1 H        0.926     0.036     2.509     2.477
   146   1 H        0.926     0.036     2.506     2.476
   147   1 H        0.926     0.032     2.556     2.500
   148   1 H        0.926     0.035     2.522     2.483
   149   1 H        0.926     0.035     2.511     2.478
   150   1 H        0.926     0.043     2.404     2.425
   151   1 H        0.926     0.051     2.307     2.375
   152   1 H        0.924     0.039     2.467     2.456
   153   1 H        0.924     0.035     2.512     2.478
   154   1 H        0.924     0.029     2.597     2.520
   155   1 H        0.924     0.035     2.521     2.483
   156   1 H        0.924     0.027     2.630     2.536
   157   1 H        0.924     0.028     2.615     2.529
   158   1 H        0.924     0.030     2.593     2.518
   159   1 H        0.924     0.035     2.511     2.478
   160   1 H        0.924     0.041     2.430     2.438
   161   1 H        0.924     0.033     2.538     2.491
   162   1 H        0.926     0.044     2.401     2.423
   163   1 H        0.926     0.034     2.526     2.486
   164   1 H        0.926     0.039     2.457     2.451
   165   1 H        0.926     0.027     2.626     2.534
   166   1 H        0.925     0.029     2.606     2.524

molecular dipole:
                 x           y           z       tot (Debye)
 q only:      -15.528       1.312      -0.521
   full:      -15.649       1.347      -0.536      39.947

 projected vibrational frequencies (cm⁻¹)
eigval :       -0.00    -0.00    -0.00     0.00     0.00     0.00
eigval :        6.26     9.79    12.34    15.69    17.95    18.94
eigval :       22.89    24.24    29.00    32.16    35.87    39.53
eigval :       40.65    42.49    45.62    49.79    51.62    53.99
eigval :       58.54    61.78    65.00    66.63    74.29    77.04
eigval :       80.30    86.48    89.64    92.65   100.51   101.71
eigval :      105.89   107.89   111.22   115.51   117.86   129.36
eigval :      134.02   137.46   140.36   141.61   146.24   150.23
eigval :      151.16   156.35   157.46   162.19   165.03   170.85
eigval :      174.92   181.67   193.85   196.69   205.32   217.36
eigval :      223.60   230.57   238.55   243.31   250.12   254.52
eigval :      266.10   271.19   271.65   275.38   276.61   284.23
eigval :      285.97   294.84   305.95   315.87   320.72   326.05
eigval :      331.89   343.02   351.82   366.42   369.15   370.11
eigval :      372.37   372.73   378.11   381.03   383.31   384.45
eigval :      389.83   391.86   393.79   396.82   398.46   399.19
eigval :      402.34   406.44   408.84   415.52   417.99   420.54
eigval :      425.16   425.50   431.10   434.49   437.86   438.81
eigval :      442.68   444.44   452.09   455.59   461.92   469.97
eigval :      477.49   483.25   484.01   508.59   514.48   515.60
eigval :      517.30   520.91   525.78   529.24   533.82   535.06
eigval :      537.23   538.71   540.46   541.68   542.77   547.08
eigval :      548.17   560.04   570.08   581.26   582.87   583.17
eigval :      585.23   589.25   593.53   596.40   597.97   598.91
eigval :      600.86   608.06   612.86   613.85   615.96   617.74
eigval :      618.53   628.94   634.94   644.00   651.52   670.30
eigval :      674.11   675.12   676.11   679.45   683.32   691.19
eigval :      695.53   702.90   704.83   705.37   706.73   708.12
eigval :      708.80   710.87   715.49   733.46   736.06   742.42
eigval :      755.90   756.36   768.38   769.92   772.63   773.99
eigval :      777.96   781.54   798.11   802.54   807.13   808.45
eigval :      811.08   817.65   821.36   823.63   826.90   833.89
eigval :      835.47   844.54   852.87   861.73   862.35   863.00
eigval :      864.40   865.96   868.76   870.35   871.22   871.41
eigval :      872.41   875.62   876.09   878.73   883.48   886.57
eigval :      892.10   896.69   897.02   898.01   902.80   903.12
eigval :      903.39   903.74   904.99   905.11   906.84   912.39
eigval :      915.80   917.01   917.57   918.06   920.10   920.51
eigval :      920.98   921.41   921.86   924.10   925.17   925.82
eigval :      928.76   930.77   931.54   932.01   936.77   939.14
eigval :      940.63   942.37   954.92   955.44   956.97   966.30
eigval :      973.29   986.93   992.00   994.99  1003.72  1009.90
eigval :     1010.50  1011.26  1021.35  1022.16  1032.95  1034.26
eigval :     1066.31  1066.91  1067.85  1068.27  1069.14  1071.04
eigval :     1071.80  1073.48  1083.15  1090.07  1093.07  1094.51
eigval :     1106.83  1114.97  1116.45  1117.08  1121.06  1123.11
eigval :     1133.96  1139.44  1139.90  1143.12  1143.56  1145.08
eigval :     1146.54  1152.16  1153.10  1154.79  1156.12  1157.66
eigval :     1165.94  1166.61  1171.52  1172.92  1175.14  1177.80
eigval :     1178.79  1179.51  1180.85  1181.53  1184.72  1196.18
eigval :     1197.25  1202.63  1205.09  1206.25  1208.79  1210.39
eigval :     1212.40  1213.85  1215.44  1216.21  1218.31  1223.04
eigval :     1225.48  1230.84  1231.53  1231.72  1240.43  1241.80
eigval :     1245.56  1252.59  1255.15  1255.54  1257.48  1260.95
eigval :     1261.44  1268.33  1271.18  1274.51  1276.65  1279.53
eigval :     1280.38  1281.19  1286.97  1290.55  1292.19  1293.88
eigval :     1294.69  1295.92  1306.03  1315.51  1316.04  1318.76
eigval :     1319.63  1324.50  1327.98  1330.51  1336.89  1338.77
eigval :     1340.57  1341.08  1342.46  1343.64  1345.91  1345.95
eigval :     1349.28  1351.43  1353.27  1354.11  1354.98  1355.29
eigval :     1356.57  1357.84  1360.89  1362.53  1363.27  1365.96
eigval :     1372.43  1397.51  1399.64  1403.39  1404.54  1407.43
eigval :     1411.73  1414.93  1415.64  1416.57  1422.16  1422.88
eigval :     1423.84  1426.39  1442.83  1453.87  1455.26  1462.76
eigval :     1463.63  1465.57  1475.88  1476.72  1480.24  1482.00
eigval :     1482.80  1483.02  1484.45  1486.67  1487.35  1490.40
eigval :     1491.84  1492.92  1495.22  1495.92  1499.47  1504.86
eigval :     1513.63  1520.19  1544.14  1545.19  1553.42  1553.67
eigval :     1555.13  1558.87  1560.16  1562.22  1568.83  1569.10
eigval :     1575.25  1575.92  1581.87  1582.38  1582.64  1583.15
eigval :     1585.27  1585.58  1590.48  1591.95  1597.79  1598.03
eigval :     1602.26  1606.71  2232.88  2265.48  2955.03  2956.19
eigval :     2958.01  2962.04  2964.12  2964.70  2967.38  2971.09
eigval :     2973.41  2974.93  2977.13  2981.19  2983.29  2984.76
eigval :     2989.67  2993.05  2995.02  2995.29  2997.60  2999.06
eigval :     3067.56  3068.82  3074.73  3075.99  3076.24  3076.80
eigval :     3077.28  3078.00  3078.10  3078.32  3078.33  3079.16
eigval :     3081.77  3081.86  3082.32  3082.56  3084.03  3084.06
eigval :     3084.27  3086.40  3087.11  3087.76  3088.14  3088.92
eigval :     3089.19  3090.03  3090.20  3090.58  3091.92  3092.82
eigval :     3093.92  3094.63  3094.69  3095.66  3096.02  3096.49
eigval :     3096.58  3096.99  3097.38  3097.81  3101.70  3101.84
eigval :     3106.96  3108.41  3112.74  3113.05  3113.72  3153.04

   temp. (K)  partition function   enthalpy   heat capacity  entropy
                                   cal/mol     cal/K/mol   cal/K/mol   J/K/mol
 298.15  VIB  0.720E+37            47715.750    301.582    297.216
         ROT  0.506E+09              888.752      2.981     42.809
         INT  0.364E+46            48604.502    304.563    340.025
         TR   0.431E+29             1481.254      4.968     47.243
         TOT                       50085.7564   309.5309   387.2685  1620.3313

       T/K    H(0)-H(T)+PV         H(T)/Eh          T*S/Eh         G(T)/Eh
   ------------------------------------------------------------------------
    298.15    0.798167E-01    0.138849E+01    0.184004E+00    0.120448E+01
   ------------------------------------------------------------------------

         :::::::::::::::::::::::::::::::::::::::::::::::::::::
         ::                  THERMODYNAMIC                  ::
         :::::::::::::::::::::::::::::::::::::::::::::::::::::
         :: total free energy        -248.189737795948 Eh   ::
         ::.................................................::
         :: total energy             -249.394219319109 Eh   ::
         :: zero point energy           1.308668534453 Eh   ::
         :: G(RRHO) w/o ZPVE           -0.104187011292 Eh   ::
         :: G(RRHO) contrib.            1.204481523161 Eh   ::
         :::::::::::::::::::::::::::::::::::::::::::::::::::::

           -------------------------------------------------
          | TOTAL ENERGY             -249.394219319109 Eh   |
          | TOTAL ENTHALPY           -248.005734051299 Eh   |
          | TOTAL FREE ENERGY        -248.189737795948 Eh   |
          | GRADIENT NORM               0.000102980161 Eh/α |
          | HOMO-LUMO GAP               0.530187631252 eV   |
           -------------------------------------------------

 * finished run on 2025/09/12 at 14:49:47.154
