   * xtb version 6.7.1 (edcfbbe) compiled by 'albert@albert-system' on 2024-07-22

   ID    Z sym.   atoms
    1    6 C      1-20, 22-28, 30-36, 38-43, 45-51, 53-59, 61-80, 82, 83
    2    7 N      21, 29, 37, 44, 52, 60, 81, 84
    3    1 H      85-154

          program call               : xtb data2507/gas/BTrztCz/BTrztCz_gas_S0_finalOpt.xtbopt.xyz --gfn 2 --spinpol --tblite --uhf 2 --ohess vtight --parallel 40 --molden --ceasefiles --namespace data2507/gas/BTrztCz/BTrztCz_gas_T1_preOpt
 * total energy  :  -221.9663285 Eh     change       -0.7963411E-07 Eh
 * total energy  :  -221.9692659 Eh     change       -0.2937371E-02 Eh
 * total energy  :  -221.9712629 Eh     change       -0.1997017E-02 Eh
 * total energy  :  -221.9715136 Eh     change       -0.2506606E-03 Eh
 * total energy  :  -221.9717295 Eh     change       -0.2159221E-03 Eh
 * total energy  :  -221.9717840 Eh     change       -0.5451150E-04 Eh
 * total energy  :  -221.9718229 Eh     change       -0.3889137E-04 Eh
 * total energy  :  -221.9718542 Eh     change       -0.3129230E-04 Eh
 * total energy  :  -221.9718767 Eh     change       -0.2250228E-04 Eh
 * total energy  :  -221.9718943 Eh     change       -0.1757817E-04 Eh
 * total energy  :  -221.9719798 Eh     change       -0.6853891E-06 Eh
 * total energy  :  -221.9719809 Eh     change       -0.1097955E-05 Eh
 * total energy  :  -221.9719820 Eh     change       -0.1148831E-05 Eh
 * total energy  :  -221.9719831 Eh     change       -0.1062383E-05 Eh
 * total energy  :  -221.9719839 Eh     change       -0.8745406E-06 Eh
 * total energy  :  -221.9719847 Eh     change       -0.7117006E-06 Eh
 * total energy  :  -221.9719851 Eh     change       -0.4083966E-06 Eh
 * total energy  :  -221.9719855 Eh     change       -0.4592584E-06 Eh
 * total energy  :  -221.9719856 Eh     change       -0.4627077E-07 Eh
   *** GEOMETRY OPTIMIZATION CONVERGED AFTER 44 ITERATIONS ***

 final structure:
================
154
 xtb: 6.7.1 (edcfbbe)
C            3.89767731746450       -1.46241428655460       -4.99396866611951
C            3.05025721953673       -1.38349954465841       -3.71658871438881
C            3.29736843674911       -2.62434851200999       -2.84617209122650
C            1.57047941470864       -1.37182363013069       -4.10977963701201
C            3.44839281416281       -0.14721219843054       -2.92767153738307
C            4.72446010796918       -0.10485803287528       -2.35115808561625
C            5.13747677452529        0.92533598149975       -1.53261124102121
C            4.23634309021680        1.94935481585801       -1.28503795768461
C            2.98859327668704        1.98823357120367       -1.93826007583651
C            2.59365019839167        0.93247091527066       -2.74466603977809
C            2.34037720188065        3.19541059412141       -1.49159943731365
C            1.10959696784811        3.76736486678331       -1.76930756151414
C            0.74413158396772        4.95260106852042       -1.14328579479096
C           -0.57483071088224        5.65148869706003       -1.43604665203275
C           -1.54521467460692        4.76575295454150       -2.22395817161700
C           -1.26379064610469        6.05927664190124       -0.12641269507461
C           -0.27341272374364        6.90854427830014       -2.26628331115102
C            1.63876564279512        5.53718702195722       -0.23836947376592
C            2.86255331926714        4.97770776524975        0.07296275455228
C            3.21770199675889        3.80172623694422       -0.56622847615736
N            4.35893928192259        3.03461326665512       -0.44031715322841
C            5.27350704324695        3.08384040491332        0.62116439155913
C            6.07194240954342        4.20217232510412        0.82088028475009
C            7.00032822513517        4.21824658768629        1.84724967783286
C            7.15508096317283        3.11119155777156        2.66559655609530
C            6.36224670684192        1.99284450697569        2.47509202316101
C            5.40182401957625        1.97715176412612        1.47526342913303
C            4.51050800548491        0.81577845139578        1.28850647395278
N            5.07000740612926       -0.39288348357306        1.29465694779915
C            4.23315110720919       -1.38861491627804        0.94350974507838
C            4.77612539375784       -2.74380354789664        0.88163342571400
C            6.14776262706421       -2.96071586186760        0.99229142537046
C            6.65249481786201       -4.24428773092258        0.91213185658160
C            5.79818370190253       -5.31938297385079        0.72195337747061
C            4.43151602089481       -5.10950377722760        0.61602953780267
C            3.92161372399488       -3.82973050105226        0.69724759445384
N            2.97501767653046       -1.21520239965682        0.61452758467910
C            2.45862938727258        0.02408408277059        0.70367199824306
C            1.09886363996714        0.25185966093187        0.36476703515082
C            0.50114007993998        1.51176118277837        0.58201223074496
C           -0.81967516480641        1.71182207608493        0.30483687700724
C           -1.61952722900436        0.66366972116420       -0.19904033660658
C           -3.02446428176224        0.81682716857062       -0.32584257420445
N           -3.59903118679522        2.02824227758156       -0.17034163900221
C           -4.90950769836040        2.09802066771461       -0.19670228233416
C           -5.54603779350625        3.41169342128173       -0.09254128917449
C           -6.93521543450869        3.52132179591139       -0.11055874545822
C           -7.53275907023785        4.76308776156208       -0.01619756284626
C           -6.75384847357152        5.90381135230578        0.09947390919597
C           -5.37159590078557        5.79876848804694        0.12202615821555
C           -4.76741537467656        4.56097179095273        0.02630294177981
N           -5.72119370708924        1.03184270197861       -0.28649162558965
C           -5.09130928361444       -0.14164263999401       -0.42468260523533
C           -5.94358391475383       -1.33586951853440       -0.43198530176376
C           -7.27153429858146       -1.21333886738111       -0.83344365284626
C           -8.10746495819507       -2.31103307662290       -0.87224275565560
C           -7.62781676162573       -3.55503360513341       -0.49094317447708
C           -6.32016061675639       -3.69006051857150       -0.06483114113091
C           -5.46557501938680       -2.59127700318236       -0.02693122642588
N           -4.15190096832164       -2.78007597156460        0.41612883141233
C           -3.27595671280557       -3.70000422380771       -0.11706613388275
C           -3.44555462678008       -4.59048088960344       -1.16535150620741
C           -2.38351938362651       -5.40793758775376       -1.50610844817391
C           -1.15138143417800       -5.35572646905079       -0.84788081354481
C            0.01662344176342       -6.24787961863392       -1.24058593174459
C            1.12090663737444       -5.36073488485900       -1.83093153797368
C            0.54564445416316       -6.98227551408063       -0.00024291805092
C           -0.36269138608995       -7.30284078250127       -2.28396524002962
C           -0.98285189905322       -4.42984309762093        0.17841342596750
C           -2.03321291773911       -3.61074851413594        0.55024346973346
C           -2.18025269431246       -2.57571353527595        1.54094987599554
C           -1.30444458405245       -2.01815267556914        2.45867843052902
C           -1.74018282225241       -0.99567203290233        3.28867374213015
C           -0.82192315924806       -0.31663354547555        4.29230353025966
C            0.63102604241289       -0.78318281962856        4.16431462077997
C           -0.84726931325923        1.20029296301685        4.06089340745030
C           -1.31373166411534       -0.63764848075322        5.71139960369075
C           -3.07891585286555       -0.59098566968973        3.20605010334828
C           -3.97080309809290       -1.12892231467834        2.30021592548632
C           -3.50408387423475       -2.10442412242133        1.43302881259486
N           -3.79274025390990       -0.27932917084408       -0.51879460238862
C           -1.00267094496965       -0.57354920944710       -0.48425177454801
C            0.31539832531246       -0.77576716163921       -0.20222801975222
N            3.23989061970364        1.06293509422315        1.08059186505735
H            3.63736105635900       -2.35295322426907       -5.56234641564336
H            4.95808569802629       -1.50340736637739       -4.75895771443672
H            3.72088276934528       -0.58895727604431       -5.61845490524533
H            2.80048921507033       -2.50696437052111       -1.88645721133694
H            4.35528726194529       -2.78450941277060       -2.65814973438676
H            2.90694928871951       -3.51176054024896       -3.33830429134266
H            1.32291207482672       -2.30164747582995       -4.61844745425358
H            0.93755105750630       -1.28539393517811       -3.22930787928023
H            1.34945865461303       -0.55284503025003       -4.79035612287604
H            5.41432138877949       -0.91574039319004       -2.52632302381514
H            6.11710224750029        0.91502724919613       -1.07761074168297
H            1.61335776625587        0.95790931601761       -3.18980541776263
H            0.45251955814291        3.27058647072730       -2.46265849425342
H           -1.15762093203113        4.54180295526148       -3.21498300694749
H           -2.49296933251465        5.28604999801591       -2.35064767351264
H           -1.73827648466499        3.83258910743410       -1.69971882943725
H           -0.69755822683380        6.81407631939966        0.41179256753972
H           -2.24617121817810        6.47369533430303       -0.34137701562944
H           -1.38260053602168        5.19510123670735        0.52333098314659
H            0.38966515578035        7.58115921141851       -1.72748156238174
H           -1.19529826821294        7.44010900602342       -2.49308496241748
H            0.20769027594610        6.63519968159423       -3.20315985113995
H            1.37321174102263        6.46272667252375        0.24805160369164
H            3.51497350690895        5.44301083446258        0.79664099946866
H            5.97295674518474        5.04651349346900        0.15474055963359
H            7.61598912702650        5.09267779702434        1.99692324681880
H            7.89193777731734        3.12106362887851        3.45442545626721
H            6.46428772323460        1.12574177378844        3.10943187254071
H            6.79643310367479       -2.11075481358325        1.13631695979078
H            7.71670698345896       -4.41092743371529        0.99663004083876
H            6.19715234181557       -6.32138617689843        0.65839467674526
H            3.76609316244480       -5.94808897004932        0.47125492641717
H            2.86105575581243       -3.64434386664529        0.62631133404793
H            1.11055026480791        2.30142257910352        0.99562168672761
H           -1.29055475997777        2.66266649070594        0.50396719492875
H           -7.52615134508695        2.62299301282758       -0.19634898658818
H           -8.60993983304571        4.84550210079072       -0.03127293767415
H           -7.22369241426429        6.87386109694769        0.17383072805813
H           -4.76704913913925        6.68947692756957        0.21791833304601
H           -3.69486706421428        4.45865199099319        0.04208545283457
H           -7.62200552581344       -0.23645059034665       -1.12740741047972
H           -9.13049629409235       -2.20105354270867       -1.19842810143577
H           -8.27570509791045       -4.41851271881334       -0.51308920398444
H           -5.94947745255540       -4.64945602735445        0.26567396045796
H           -4.37608881878479       -4.64534002177988       -1.71033626889994
H           -2.53075406770681       -6.10190333224341       -2.31677086415235
H            1.46160559176939       -4.62486512313699       -1.10926553705744
H            0.74582068062147       -4.83109553629524       -2.70409781554716
H            1.97452358726372       -5.96557787182218       -2.13002802333530
H            0.92361425350772       -6.28935500247644        0.74578784466957
H            1.35594197621015       -7.65190367304024       -0.28189920942663
H           -0.24680435581232       -7.57392342305194        0.45360470534551
H           -1.16735439108542       -7.93911691331892       -1.92227519446006
H            0.49967518480464       -7.93412716184253       -2.48938358730683
H           -0.66555032273077       -6.84084688232867       -3.22058331695562
H           -0.04043819831509       -4.33544107956239        0.69446626029844
H           -0.29152944685661       -2.38097620734444        2.49580939923851
H            0.72872314189179       -1.84245214379629        4.39155004228155
H            1.25157793806568       -0.23311960165292        4.86925909688583
H            1.01050247327215       -0.59417313325904        3.16240338031286
H           -0.16210533579961        1.69311874908328        4.74779726869048
H           -1.83901226155619        1.61473964182542        4.21816472424564
H           -0.53924909230157        1.42413222948640        3.04205415877076
H           -2.32758796024493       -0.27832624730417        5.86672129771984
H           -1.30386371528122       -1.71277368833691        5.87957115220747
H           -0.66654266719284       -0.16660897104589        6.44833203493773
H           -3.44124842229351        0.17909472599510        3.86973536382840
H           -4.99430210153535       -0.78436018178981        2.26131685041954
H           -1.60334139735153       -1.35356653536682       -0.92690593323446
H            0.78621709376894       -1.72570133381107       -0.40541587127666

 projected vibrational frequencies (cm⁻¹)
eigval :       -0.00    -0.00     0.00     0.00     0.00     0.00
eigval :        3.84     6.34    11.26    12.98    18.15    22.95
eigval :       23.40    28.06    29.42    33.90    37.46    39.55
eigval :       42.22    44.57    47.99    51.24    51.87    53.04
eigval :       55.73    58.57    61.75    68.25    70.65    73.80
eigval :       78.65    82.35    86.89    87.19    98.08   103.74
eigval :      109.74   114.96   117.82   126.27   132.86   140.27
eigval :      150.99   155.27   159.36   167.92   170.79   173.06
eigval :      174.71   180.70   180.86   187.30   189.13   197.44
eigval :      200.94   205.62   208.72   217.31   217.97   221.77
eigval :      222.24   223.36   226.63   234.58   237.92   242.49
eigval :      250.07   256.90   260.24   265.63   268.70   276.07
eigval :      278.59   283.37   285.42   291.14   303.41   305.44
eigval :      313.69   316.32   320.33   321.70   325.77   336.65
eigval :      338.44   341.20   346.28   352.22   355.77   362.46
eigval :      365.86   366.49   368.68   373.45   383.81   386.63
eigval :      391.13   394.99   396.70   399.65   402.02   404.88
eigval :      406.71   408.30   410.63   412.86   427.84   432.83
eigval :      435.76   443.67   444.33   446.22   449.14   453.80
eigval :      463.21   463.48   466.85   468.06   469.10   469.68
eigval :      501.41   505.38   520.33   520.92   555.35   560.98
eigval :      564.91   570.18   571.34   576.51   577.61   580.06
eigval :      582.18   588.41   588.80   590.84   591.98   593.39
eigval :      604.21   612.74   616.04   619.68   624.77   626.52
eigval :      627.39   638.81   641.28   642.63   650.49   662.32
eigval :      666.16   670.83   678.44   689.00   690.46   697.28
eigval :      700.68   706.76   706.90   718.28   721.94   731.63
eigval :      733.37   735.68   736.08   771.19   771.50   781.98
eigval :      785.81   787.14   812.05   812.91   817.64   818.36
eigval :      821.71   823.31   823.97   831.72   833.34   846.85
eigval :      854.31   864.59   866.14   867.05   873.07   873.74
eigval :      876.05   876.44   877.73   884.32   886.83   906.09
eigval :      906.39   906.65   907.19   914.92   915.01   915.77
eigval :      916.79   917.45   919.39   920.08   924.98   926.77
eigval :      927.28   927.83   927.93   928.80   928.96   931.71
eigval :      932.11   936.23   940.10   950.74   958.82   959.87
eigval :      961.06   961.33   962.14   962.40   962.67   963.20
eigval :      963.88   964.19   965.12   966.65   972.39   987.08
eigval :      993.07   998.70  1029.89  1031.68  1032.81  1034.21
eigval :     1035.77  1036.42  1036.94  1038.87  1040.87  1042.69
eigval :     1053.99  1057.07  1076.00  1077.12  1084.64  1088.83
eigval :     1097.30  1101.86  1106.86  1108.06  1110.60  1122.23
eigval :     1123.52  1129.09  1129.69  1130.46  1145.91  1147.04
eigval :     1148.91  1159.87  1166.55  1169.51  1171.57  1174.64
eigval :     1177.25  1179.31  1179.50  1180.96  1181.33  1187.58
eigval :     1192.95  1207.72  1208.71  1219.31  1223.53  1226.53
eigval :     1227.47  1227.68  1228.32  1229.92  1230.69  1231.45
eigval :     1231.89  1232.49  1237.49  1239.12  1243.34  1245.23
eigval :     1248.59  1250.66  1254.79  1257.26  1258.10  1268.81
eigval :     1269.85  1282.75  1283.41  1294.03  1295.52  1296.07
eigval :     1300.03  1300.69  1309.69  1311.79  1323.68  1328.95
eigval :     1331.56  1336.44  1338.09  1341.50  1342.53  1346.50
eigval :     1347.71  1361.78  1365.69  1385.81  1396.67  1400.96
eigval :     1402.09  1402.55  1402.63  1403.81  1405.19  1405.87
eigval :     1406.06  1407.58  1411.37  1411.99  1414.89  1426.42
eigval :     1428.07  1428.47  1428.83  1430.76  1433.98  1435.51
eigval :     1436.60  1442.24  1444.33  1457.46  1463.14  1464.23
eigval :     1465.45  1465.91  1468.25  1473.49  1476.70  1478.77
eigval :     1488.65  1491.54  1491.75  1491.88  1492.07  1492.96
eigval :     1493.98  1495.10  1495.78  1500.76  1500.86  1501.36
eigval :     1501.48  1504.81  1505.97  1506.68  1508.32  1513.39
eigval :     1514.18  1515.07  1515.42  1515.82  1520.70  1521.06
eigval :     1521.51  1522.44  1524.75  1558.68  1561.43  1566.33
eigval :     1567.13  1577.33  1579.76  1580.86  1581.99  1582.65
eigval :     1583.81  1586.16  1586.67  1588.00  1591.03  1594.68
eigval :     1605.16  1607.66  3018.84  3019.69  3019.94  3020.30
eigval :     3021.66  3022.53  3024.54  3025.01  3026.02  3026.73
eigval :     3027.12  3027.30  3028.32  3028.42  3031.11  3031.65
eigval :     3032.59  3032.87  3033.10  3034.83  3035.64  3035.79
eigval :     3036.77  3037.22  3038.67  3039.32  3040.68  3041.13
eigval :     3041.67  3044.84  3045.39  3048.55  3048.93  3050.38
eigval :     3050.77  3060.65  3068.99  3071.76  3072.65  3075.28
eigval :     3078.09  3079.29  3079.88  3080.16  3081.58  3082.83
eigval :     3083.07  3084.56  3086.53  3087.34  3087.83  3088.02
eigval :     3093.24  3093.87  3094.51  3094.70  3095.88  3096.13
eigval :     3097.66  3098.74  3099.94  3102.10  3104.82  3106.24
eigval :     3108.20  3120.44  3120.88  3124.16  3124.39  3125.11

   temp. (K)  partition function   enthalpy   heat capacity  entropy
                                   cal/mol     cal/K/mol   cal/K/mol   J/K/mol
 298.15  VIB  0.418E+37            46278.090    282.392    290.828
         ROT  0.267E+09              888.752      2.981     41.537
         INT  0.111E+46            47166.842    285.373    332.365
         TR   0.351E+29             1481.254      4.968     46.832
         TOT                       48648.0959   290.3411   379.1974  1586.5621

       T/K    H(0)-H(T)+PV         H(T)/Eh          T*S/Eh         G(T)/Eh
   ------------------------------------------------------------------------
    298.15    0.775257E-01    0.131805E+01    0.180169E+00    0.113788E+01
   ------------------------------------------------------------------------

         :::::::::::::::::::::::::::::::::::::::::::::::::::::
         ::                  THERMODYNAMIC                  ::
         :::::::::::::::::::::::::::::::::::::::::::::::::::::
         :: total free energy        -220.834104922808 Eh   ::
         ::.................................................::
         :: total energy             -221.971985618250 Eh   ::
         :: zero point energy           1.240523960107 Eh   ::
         :: G(RRHO) w/o ZPVE           -0.102643264664 Eh   ::
         :: G(RRHO) contrib.            1.137880695442 Eh   ::
         :::::::::::::::::::::::::::::::::::::::::::::::::::::

           -------------------------------------------------
          | TOTAL ENERGY             -221.971985618250 Eh   |
          | TOTAL ENTHALPY           -220.653935982638 Eh   |
          | TOTAL FREE ENERGY        -220.834104922808 Eh   |
          | GRADIENT NORM               0.000111520007 Eh/α |
           -------------------------------------------------

 * finished run on 2025/07/19 at 06:13:20.250
