   * xtb version 6.7.1 (edcfbbe) compiled by 'albert@albert-system' on 2024-07-22

   ID    Z sym.   atoms
    1    6 C      1-20, 22-28, 30-36, 38-43, 45-51, 53-59, 61-80, 82, 83
    2    7 N      21, 29, 37, 44, 52, 60, 81, 84
    3    1 H      85-154

          program call               : xtb data2507/gas/BTrztCz/BTrztCz_gas_T1_crest.xyz --gfn 2 --spinpol --tblite --uhf 2 --ohess vtight --parallel 40 --molden --ceasefiles --namespace data2507/gas/BTrztCz/BTrztCz_gas_T1_finalOpt
 * total energy  :  -221.9740896 Eh     change       -0.1599487E-06 Eh
 * total energy  :  -221.9740978 Eh     change       -0.8147380E-05 Eh
 * total energy  :  -221.9741018 Eh     change       -0.4052589E-05 Eh
 * total energy  :  -221.9741036 Eh     change       -0.1758452E-05 Eh
 * total energy  :  -221.9741056 Eh     change       -0.2037253E-05 Eh
 * total energy  :  -221.9741087 Eh     change       -0.3110751E-05 Eh
 * total energy  :  -221.9741119 Eh     change       -0.3130238E-05 Eh
 * total energy  :  -221.9741138 Eh     change       -0.1992951E-05 Eh
 * total energy  :  -221.9741152 Eh     change       -0.1382710E-05 Eh
 * total energy  :  -221.9741166 Eh     change       -0.1338946E-05 Eh
 * total energy  :  -221.9741342 Eh     change       -0.5750586E-06 Eh
 * total energy  :  -221.9741346 Eh     change       -0.4315621E-06 Eh
 * total energy  :  -221.9741350 Eh     change       -0.3374197E-06 Eh
 * total energy  :  -221.9741356 Eh     change       -0.6161827E-06 Eh
 * total energy  :  -221.9741363 Eh     change       -0.7119726E-06 Eh
 * total energy  :  -221.9741369 Eh     change       -0.5808200E-06 Eh
 * total energy  :  -221.9741373 Eh     change       -0.4468560E-06 Eh
 * total energy  :  -221.9741376 Eh     change       -0.3347874E-06 Eh
 * total energy  :  -221.9741377 Eh     change       -0.2275451E-07 Eh
   *** GEOMETRY OPTIMIZATION CONVERGED AFTER 33 ITERATIONS ***

 final structure:
================
154
 xtb: 6.7.1 (edcfbbe)
C            3.42640530305359       -0.87494418823820       -5.39073030605354
C            2.62773967388440       -0.94086783392013       -4.08143840791212
C            2.90287549499547       -2.27105476045882       -3.36579003703839
C            1.13474796987578       -0.88939287157793       -4.41750404526681
C            3.05666013280874        0.20188100671991       -3.17490050305175
C            4.36916362918627        0.22044654873029       -2.68519607647555
C            4.82098242676878        1.17261236798465       -1.79408860977592
C            3.91908131271460        2.13605086006805       -1.36843699953020
C            2.62312320249212        2.19655212777096       -1.91756982623369
C            2.19327211018007        1.22514496908552       -2.80722214417968
C            1.97429180538665        3.32368732097067       -1.29931377906895
C            0.70342011722107        3.86266279877863       -1.41605916547336
C            0.34168816923725        4.94596754173078       -0.62653764173983
C           -1.03765545430931        5.58226687055554       -0.69745858144082
C           -1.98246241910530        4.83681020638740       -1.64466991101385
C           -1.66773806067850        5.58633703363450        0.70247422786044
C           -0.89130491698155        7.02587818385273       -1.20081647287271
C            1.28297538381049        5.46699510409223        0.27148821735117
C            2.55254525991485        4.94395620615354        0.41419752622484
C            2.90288519581363        3.86645971498748       -0.38458259324955
N            4.07322687391513        3.13741195838732       -0.42881657369752
C            5.10916750605570        3.20323053817116        0.51174534010916
C            5.81302974057095        4.38798810657277        0.69265182332445
C            6.85315676733222        4.45039306851991        1.60264204410128
C            7.21589249600820        3.32473222084317        2.32479554347087
C            6.52368621506087        2.14024663741494        2.14987392185651
C            5.45422306274571        2.07234652512836        1.26811706256852
C            4.69762286057674        0.81969449992675        1.09924339457695
N            5.40472604159415       -0.30992293099220        1.04439915445797
C            4.69097297088638       -1.38795160976088        0.66978686361346
C            5.43328240318699       -2.63904192151147        0.50786593478774
C            6.69102553169912       -2.78335445508591        1.08955782532888
C            7.39618191881216       -3.96051822574181        0.93114770627366
C            6.86144606229297       -4.99677587644270        0.18167604644155
C            5.61623071698705       -4.85172793779417       -0.40969746938069
C            4.90073203712389       -3.68164523385548       -0.24638931976377
N            3.40662558756614       -1.37563169732437        0.40225831832256
C            2.73509725172542       -0.21845543374658        0.57857191890085
C            1.34784972447054       -0.13054546259123        0.29754635315768
C            0.65012030955786        1.07843967613880        0.51552058867253
C           -0.66548054867059        1.19702477356258        0.17974259735971
C           -1.37396263102725        0.10765274820702       -0.37061970662783
C           -2.76621122748089        0.18698211425919       -0.62996791590972
N           -3.43957769393950        1.34386147394960       -0.46271418832024
C           -4.73037773921650        1.34378602632056       -0.69881395353236
C           -5.47468024207678        2.59556835543352       -0.55539234037847
C           -6.76417385498377        2.70178712534859       -1.07284704770788
C           -7.47094909076470        3.88047175763690       -0.93506292347837
C           -6.90513840181444        4.95775667050987       -0.27114061521351
C           -5.62749829650982        4.85168711008804        0.25593934562275
C           -4.91133323040633        3.67939839500815        0.11390611818111
N           -5.44717173162788        0.25185643110883       -1.02568034360356
C           -4.73431377943853       -0.87370657584678       -1.07760572411491
C           -5.48547598989861       -2.13546992479775       -1.19744704825847
C           -6.57501620022374       -2.23393899965903       -2.05110576252597
C           -7.26056828738341       -3.42824522397424       -2.18004685807296
C           -6.87035085267768       -4.53270278493388       -1.43976373083661
C           -5.80932786279181       -4.43920554793494       -0.55692210814684
C           -5.11230053046848       -3.24437106023850       -0.42202489646431
N           -4.05537986891090       -3.14548918540479        0.49194553852802
C           -2.87817874206683       -3.86279774995171        0.43819154834959
C           -2.53544943197196       -4.95719911653562       -0.34057183921830
C           -1.25716451979323       -5.46313636011861       -0.21513911438076
C           -0.30035244862274       -4.90891719346904        0.64581304349129
C            1.08703068682520       -5.52915720559468        0.69955544100170
C            1.68242516610334       -5.56626268071902       -0.71495292606721
C            2.04780234817371       -4.74906152323813        1.60171648384850
C            0.96808300721313       -6.95975823669894        1.24559038082590
C           -0.65499205656317       -3.80906888840016        1.41564823158014
C           -1.93413692047315       -3.28655419434006        1.31586598957643
C           -2.58087472598567       -2.15070954267804        1.92057148763597
C           -2.14133953238292       -1.15111616130898        2.77347491516433
C           -3.00796823863727       -0.12824812611162        3.13514604485044
C           -2.57097630673321        1.04390580081239        3.99924438018775
C           -1.06671105723820        1.02763110347557        4.28500203537600
C           -2.89568280938430        2.35115573228859        3.26218803012424
C           -3.32415512112526        0.99504134907080        5.33593714813184
C           -4.33202195393893       -0.17540858116680        2.67973016081301
C           -4.79363769663790       -1.15556731150650        1.82479903279520
C           -3.89038916425076       -2.11892594266994        1.40183493533659
N           -3.43179691768536       -0.94265263259247       -0.96800001219359
C           -0.67508280939392       -1.09979842693911       -0.59297279236579
C            0.64155881873527       -1.21709666430147       -0.26117949883156
N            3.39944969026881        0.90010903641166        0.95293229141910
H            3.13405019489544       -1.68986922326648       -6.04976981314938
H            4.49445945077199       -0.95150214083309       -5.20488318996839
H            3.23619800177825        0.06736959006627       -5.90060509048844
H            2.40678771575503       -2.27075440239823       -2.39833677670942
H            3.96589090461560       -2.42941403947515       -3.20599786822043
H            2.52070682423826       -3.10181320515864       -3.95591787692963
H            0.87072655820232       -1.75062872664951       -5.02830358903743
H            0.53320512068387       -0.91844286464992       -3.51138751206992
H            0.88881263954213        0.00674687038243       -4.98257029922354
H            5.06317193994011       -0.54592778306833       -2.99494549172901
H            5.83470140466620        1.14440965503116       -1.42140714984090
H            1.18180902407395        1.27049484922136       -3.17354836795575
H            0.01306841123866        3.41429200721457       -2.10984953086170
H           -1.60935739489409        4.86000452778213       -2.66608567581932
H           -2.95978231377036        5.31589831593891       -1.63576636911999
H           -2.11695767202564        3.80192776807711       -1.33905616411187
H           -1.10309818083596        6.20422296089099        1.39514722182619
H           -2.68145060512991        5.97640600416079        0.65138786453503
H           -1.70323657129846        4.57576288026689        1.10259594992984
H           -0.26449333729208        7.61480030890848       -0.53626179514113
H           -1.86784157534525        7.50164617741772       -1.26237298021342
H           -0.44003934557078        7.03486231157775       -2.19085025629588
H            1.01455709517772        6.30943064759598        0.89030274482813
H            3.24167487209793        5.35639093158384        1.13589728538842
H            5.55053225401259        5.25092183007202        0.09846478470334
H            7.39161517211156        5.37683789386324        1.73594631225039
H            8.03713854086267        3.37177201948399        3.02373665641715
H            6.78920088761556        1.25483956194488        2.70641794720724
H            7.09608425062056       -1.96339665391822        1.66169493622474
H            8.36837169334673       -4.07254726109145        1.38892473427369
H            7.41695844248383       -5.91471192610343        0.05458276171665
H            5.20706796174369       -5.65562175424615       -1.00505907964164
H            3.93438335084908       -3.55199156174016       -0.70501053569830
H            1.18817625119245        1.90419510099745        0.95630671872220
H           -1.19452084243702        2.12459005718433        0.33751075908896
H           -7.19205466806036        1.85073793448145       -1.57915491415268
H           -8.46822825913275        3.96202249656253       -1.34257003190571
H           -7.46121333882006        5.87751631053678       -0.16078663354980
H           -5.19337812157816        5.68862589165062        0.78425077122749
H           -3.91987532368661        3.58028455746252        0.52374027865260
H           -6.86169717959520       -1.36496732617069       -2.62288807029002
H           -8.09793451311127       -3.49942298073121       -2.85749134031822
H           -7.40336331080170       -5.46670399631687       -1.53750816103340
H           -5.52487941387487       -5.28499484853660        0.05163252529432
H           -3.23724674659744       -5.39555026056970       -1.03425572694494
H           -0.99450582969893       -6.31875640018172       -0.81812545932760
H            1.69826346320427       -4.56673327758844       -1.14316179357880
H            1.10720816151860       -6.20828606793183       -1.37629050965459
H            2.70088778257518       -5.94510381988762       -0.67737358384310
H            2.16778117944013       -3.72284875759957        1.26254758702601
H            3.02836068940063       -5.22135249683760        1.58328658710677
H            1.69933033527142       -4.74493665060602        2.63205958664899
H            0.54304045576470       -6.94577678319517        2.24710478111549
H            1.95064532453018       -7.42448551705071        1.29411695119623
H            0.32994754272118       -7.57242155284854        0.61406885001251
H            0.04727287047515       -3.33567727245777        2.08026474234823
H           -1.12067860715791       -1.17478031241190        3.11556530969253
H           -0.78549273398875        0.15234146463244        4.86604523686726
H           -0.79757893394739        1.91016755180302        4.86224950355869
H           -0.49699672230996        1.04070161828246        3.35818957636696
H           -3.96662381658617        2.49399692428324        3.14702215023267
H           -2.44533268386706        2.33003758568492        2.27300044809325
H           -2.49730624019965        3.20186810906545        3.81170400250302
H           -4.39925811510277        1.04222676745008        5.18374140811047
H           -3.09518415187167        0.07130667509541        5.86355894639953
H           -3.02947610547735        1.83383491668042        5.96322885665855
H           -5.02762049894115        0.59036618543949        2.98721239561700
H           -5.81642819767254       -1.14914554344310        1.47676177267582
H           -1.21349482345661       -1.92617009262823       -1.03222156204131
H            1.17154182266231       -2.14351104520407       -0.42227882062842

 projected vibrational frequencies (cm⁻¹)
eigval :       -0.00    -0.00    -0.00     0.00     0.00     0.00
eigval :        5.93    11.78    12.33    13.33    19.05    23.95
eigval :       26.96    27.46    27.82    34.38    38.14    42.83
eigval :       49.02    49.85    51.56    52.73    58.02    60.32
eigval :       62.47    62.88    67.28    70.30    71.75    77.66
eigval :       78.69    87.40    88.62    89.05   107.14   110.40
eigval :      112.57   113.42   122.63   128.51   129.50   142.61
eigval :      148.43   155.18   159.41   160.56   170.93   171.59
eigval :      176.61   179.28   180.16   187.50   189.15   200.46
eigval :      209.87   210.37   213.62   214.49   217.25   217.42
eigval :      223.04   224.22   228.61   230.32   231.61   233.25
eigval :      253.04   257.47   264.07   265.83   267.59   272.91
eigval :      276.97   283.55   284.51   289.28   293.57   314.04
eigval :      322.23   323.46   330.67   331.73   338.74   339.64
eigval :      340.41   340.53   342.54   352.06   360.34   360.99
eigval :      366.78   367.43   372.32   372.91   374.64   386.34
eigval :      391.91   393.41   399.65   400.59   402.10   404.69
eigval :      405.32   407.24   409.42   410.05   432.33   433.67
eigval :      436.49   442.54   445.51   445.99   450.66   455.63
eigval :      463.86   464.17   465.95   466.11   468.72   471.36
eigval :      502.43   506.26   520.23   520.36   556.42   561.69
eigval :      567.00   570.69   571.21   576.47   576.87   581.13
eigval :      581.83   588.01   588.30   591.25   591.69   594.29
eigval :      604.06   613.68   620.73   624.89   625.63   626.46
eigval :      627.47   639.89   642.44   642.72   650.46   663.24
eigval :      667.11   670.49   679.00   689.75   690.42   697.69
eigval :      700.53   706.97   707.01   719.65   720.54   733.26
eigval :      734.18   734.85   736.78   771.03   771.35   782.38
eigval :      784.92   786.98   812.94   813.24   820.17   820.53
eigval :      822.71   824.99   825.10   831.94   832.03   847.09
eigval :      854.28   866.48   866.52   869.01   869.28   873.38
eigval :      873.49   877.22   877.86   884.90   885.04   906.88
eigval :      907.07   910.33   910.34   916.48   916.57   916.91
eigval :      917.16   917.77   918.41   920.11   925.45   927.00
eigval :      927.49   927.70   927.77   929.73   930.02   932.19
eigval :      932.93   936.16   940.21   951.42   959.47   959.68
eigval :      961.92   961.96   962.76   963.28   963.54   963.66
eigval :      963.76   964.06   966.07   966.92   971.57   984.68
eigval :      992.47   999.12  1030.61  1030.83  1034.19  1034.48
eigval :     1034.92  1035.46  1037.81  1038.49  1042.24  1043.06
eigval :     1054.66  1056.15  1077.20  1077.36  1085.91  1085.97
eigval :     1096.62  1100.63  1109.43  1109.89  1113.17  1123.17
eigval :     1123.62  1129.38  1129.62  1145.87  1147.07  1148.55
eigval :     1152.87  1166.06  1166.67  1167.52  1172.77  1176.77
eigval :     1179.35  1180.73  1180.91  1182.54  1184.15  1190.41
eigval :     1205.60  1207.04  1212.20  1213.57  1224.80  1224.85
eigval :     1228.77  1228.87  1230.41  1230.55  1231.17  1231.50
eigval :     1232.50  1232.93  1237.08  1238.19  1243.70  1244.12
eigval :     1246.62  1247.83  1253.05  1257.88  1258.21  1269.98
eigval :     1270.32  1282.70  1282.78  1294.75  1295.22  1299.54
eigval :     1301.43  1302.05  1311.06  1311.29  1324.21  1325.49
eigval :     1332.27  1334.49  1337.32  1341.60  1341.90  1346.64
eigval :     1347.77  1362.50  1362.67  1386.90  1397.62  1402.52
eigval :     1402.82  1403.19  1403.28  1404.32  1404.48  1406.51
eigval :     1407.20  1407.59  1411.74  1412.45  1418.12  1427.87
eigval :     1428.14  1430.00  1430.35  1433.60  1433.99  1435.86
eigval :     1436.62  1443.51  1444.67  1460.71  1464.39  1464.70
eigval :     1467.04  1467.38  1470.13  1475.11  1479.93  1480.22
eigval :     1489.06  1489.58  1489.92  1491.96  1492.00  1493.06
eigval :     1493.10  1495.40  1495.51  1501.05  1501.10  1501.44
eigval :     1501.82  1504.32  1504.51  1505.33  1505.37  1514.17
eigval :     1514.53  1514.86  1515.08  1518.66  1521.11  1521.31
eigval :     1521.76  1522.03  1532.07  1560.19  1560.74  1566.28
eigval :     1566.63  1578.27  1578.58  1582.05  1582.30  1583.78
eigval :     1584.08  1585.55  1585.69  1588.68  1591.56  1595.14
eigval :     1604.70  1606.54  3018.94  3019.02  3021.16  3021.57
eigval :     3021.78  3021.95  3025.87  3026.01  3026.70  3026.80
eigval :     3027.71  3027.84  3028.05  3028.16  3032.37  3032.62
eigval :     3033.89  3034.24  3034.97  3035.40  3036.32  3036.39
eigval :     3036.51  3036.64  3041.13  3041.33  3041.43  3041.50
eigval :     3043.62  3043.82  3045.60  3045.81  3047.38  3047.99
eigval :     3048.51  3048.70  3068.83  3068.84  3075.47  3075.50
eigval :     3076.98  3077.26  3080.11  3080.14  3081.47  3081.49
eigval :     3082.92  3084.40  3086.34  3086.51  3088.39  3088.43
eigval :     3093.46  3094.08  3094.33  3094.72  3095.00  3095.14
eigval :     3095.49  3095.70  3104.17  3104.36  3105.49  3105.77
eigval :     3122.95  3123.16  3123.24  3124.12  3126.57  3126.67

   temp. (K)  partition function   enthalpy   heat capacity  entropy
                                   cal/mol     cal/K/mol   cal/K/mol   J/K/mol
 298.15  VIB  0.338E+36            46107.823    283.161    288.324
         ROT  0.258E+09              888.752      2.981     41.469
         INT  0.870E+44            46996.575    286.142    329.793
         TR   0.351E+29             1481.254      4.968     46.832
         TOT                       48477.8293   291.1102   376.6249  1575.7986

       T/K    H(0)-H(T)+PV         H(T)/Eh          T*S/Eh         G(T)/Eh
   ------------------------------------------------------------------------
    298.15    0.772543E-01    0.131848E+01    0.178947E+00    0.113953E+01
   ------------------------------------------------------------------------

         :::::::::::::::::::::::::::::::::::::::::::::::::::::
         ::                  THERMODYNAMIC                  ::
         :::::::::::::::::::::::::::::::::::::::::::::::::::::
         :: total free energy        -220.834608786356 Eh   ::
         ::.................................................::
         :: total energy             -221.974137711403 Eh   ::
         :: zero point energy           1.241221235761 Eh   ::
         :: G(RRHO) w/o ZPVE           -0.101692310714 Eh   ::
         :: G(RRHO) contrib.            1.139528925047 Eh   ::
         :::::::::::::::::::::::::::::::::::::::::::::::::::::

           -------------------------------------------------
          | TOTAL ENERGY             -221.974137711403 Eh   |
          | TOTAL ENTHALPY           -220.655662137250 Eh   |
          | TOTAL FREE ENERGY        -220.834608786356 Eh   |
          | GRADIENT NORM               0.000136772215 Eh/α |
           -------------------------------------------------

 * finished run on 2025/07/19 at 06:59:58.030
