   * xtb version 6.7.1 (edcfbbe) compiled by 'albert@albert-system' on 2024-07-22

   ID    Z sym.   atoms
    1    6 C      1-20, 22-28, 30-36, 38-43, 45-51, 53-59, 61-80, 82, 83
    2    7 N      21, 29, 37, 44, 52, 60, 81, 84
    3    1 H      85-154

          program call               : xtb data2507/gas/BTrztCz/BTrztCz.xyz --gfn 2 --ohess vtight --parallel 40 --molden --ceasefiles --namespace data2507/gas/BTrztCz/BTrztCz_gas_S0_preOpt
          :  Hamiltonian                  GFN2-xTB          :
 * total energy  :  -221.9808673 Eh     change       -0.7643223E-08 Eh
 * total energy  :  -222.0032011 Eh     change       -0.2233380E-01 Eh
 * total energy  :  -222.0112987 Eh     change       -0.8097578E-02 Eh
 * total energy  :  -222.0145466 Eh     change       -0.3247824E-02 Eh
 * total energy  :  -222.0164685 Eh     change       -0.1921904E-02 Eh
 * total energy  :  -222.0174488 Eh     change       -0.9803520E-03 Eh
 * total energy  :  -222.0180665 Eh     change       -0.6176704E-03 Eh
 * total energy  :  -222.0186066 Eh     change       -0.5401102E-03 Eh
 * total energy  :  -222.0190502 Eh     change       -0.4436272E-03 Eh
 * total energy  :  -222.0193495 Eh     change       -0.2992912E-03 Eh
 * total energy  :  -222.0289001 Eh     change       -0.7376989E-06 Eh
 * total energy  :  -222.0289006 Eh     change       -0.5586568E-06 Eh
 * total energy  :  -222.0289010 Eh     change       -0.3987008E-06 Eh
 * total energy  :  -222.0289013 Eh     change       -0.2889123E-06 Eh
 * total energy  :  -222.0289016 Eh     change       -0.2564169E-06 Eh
 * total energy  :  -222.0289018 Eh     change       -0.2804305E-06 Eh
 * total energy  :  -222.0289022 Eh     change       -0.3242969E-06 Eh
 * total energy  :  -222.0289026 Eh     change       -0.4045203E-06 Eh
 * total energy  :  -222.0289026 Eh     change       -0.4778371E-08 Eh
   *** GEOMETRY OPTIMIZATION CONVERGED AFTER 700 ITERATIONS ***

 final structure:
================
154
 xtb: 6.7.1 (edcfbbe)
C            4.75331450019270       -2.48841088380660       -3.59090631243389
C            4.18020883137461       -2.82513626389899       -2.21131409651116
C            4.15191145227682       -4.35150245566883       -2.05455894851233
C            2.75093219561381       -2.26597619399319       -2.14232044772024
C            5.00095876013631       -2.21858748844865       -1.08323521648277
C            4.51133466300556       -2.30946987345450        0.22688515961066
C            5.13795031241613       -1.71193050803946        1.30057745132100
C            6.29075554721531       -0.98324179934088        1.05206463435915
C            6.85953759870013       -0.96178801617071       -0.23562671037989
C            6.20666856903710       -1.57146867039419       -1.29889120993684
C            8.05308349554718       -0.16703121032548       -0.13439548828777
C            9.01786887168185        0.21082085683810       -1.05799750624704
C           10.05676094891729        1.03995398009147       -0.66699419594498
C           11.16271564687424        1.47377146573736       -1.61899627849944
C           12.49924614527554        0.91480607529089       -1.11003373601292
C           10.94333420622546        0.96174756663036       -3.04542262081717
C           11.23243208250580        3.00654346063972       -1.67061725936886
C           10.09389580256017        1.48582167651528        0.66058729999420
C            9.14546068488104        1.12903642539504        1.59857376370229
C            8.12423836772174        0.28327402705334        1.20033865633890
N            7.05485920959375       -0.22259444981460        1.91845465234793
C            6.57860572604124        0.29159110090001        3.13177774377263
C            7.35577165908897        0.22046063681956        4.28146355850988
C            6.86428363239648        0.69135525458318        5.48598456674527
C            5.58237222263748        1.21190683658966        5.56220255199353
C            4.79970220790354        1.28686569498922        4.42425647759803
C            5.29613578493143        0.85771698266735        3.20097447947551
C            4.48555715787879        0.98937665637003        1.98026986300905
N            5.08964887306363        1.44411744628180        0.89086225487950
C            4.39314201546491        1.35289393543521       -0.23800737400927
C            5.07359713312591        1.70752423225310       -1.48065477847803
C            4.47288557398319        1.44306937528603       -2.70964894842113
C            5.15022222239280        1.71245525245154       -3.88257907099755
C            6.42546100279022        2.25492367073592       -3.83930141804351
C            7.01888055687574        2.53554265833993       -2.61881415212496
C            6.35083491387672        2.26261208529848       -1.44165125360565
N            3.14619944372027        0.89576086395623       -0.30113516712791
C            2.58244827906275        0.58068236656973        0.85978155291582
C            1.19991979338086        0.10554436787651        0.84616056538914
C            0.46446679303260        0.11458922942972       -0.33904197372702
C           -0.82523832844637       -0.36974298303108       -0.35553390368125
C           -1.40337619102260       -0.86424174727443        0.81375816289572
C           -2.78815682705202       -1.33266212164807        0.80992226596157
N           -3.49966702820155       -1.15925896792041       -0.29771500754156
C           -4.75504215412954       -1.59621142894973       -0.25953788447919
C           -5.58126715273331       -1.45977390690059       -1.45540220145234
C           -6.90393420395703       -1.89809973186565       -1.44137132376128
C           -7.69516217359926       -1.73075328293688       -2.56034280679711
C           -7.18235192055838       -1.12072658665582       -3.69418696459544
C           -5.86556633137610       -0.68733368656399       -3.71325664352413
C           -5.06445969848124       -0.85953221126642       -2.60173923579755
N           -5.32631863949067       -2.09605880480062        0.83218657882837
C           -4.56720194090260       -2.12945315619118        1.91826954507762
C           -5.24211113649660       -2.44905745076405        3.18774157886583
C           -4.75543856060445       -3.42468123413077        4.04435395813576
C           -5.44873294846479       -3.74531365974851        5.19849501210521
C           -6.62580608148388       -3.08273764632664        5.50667005193938
C           -7.09908811008416       -2.07751009747887        4.68137529396989
C           -6.40934583228596       -1.74603528347396        3.52284872639512
N           -6.84318204955271       -0.69650689565405        2.69897948497261
C           -5.98935304106596        0.25749740704263        2.17338280690442
C           -4.74049023572466        0.65654956969304        2.61585949098197
C           -4.04705066013695        1.58226423449348        1.85854904534315
C           -4.57025001085300        2.13449665836280        0.68665534767532
C           -3.76222428781120        3.07718904771180       -0.19344728903281
C           -4.49379320130354        4.42065751598373       -0.31531047317339
C           -2.35659493039536        3.34474046847159        0.35254483755344
C           -3.61244338079577        2.43000776084048       -1.57725908118541
C           -5.85988767819072        1.78694942962552        0.30311677735119
C           -6.57687164014397        0.85918296735429        1.04197951125641
C           -7.87165295573522        0.25008053628967        0.89166344941948
C           -8.90016672463330        0.42540848617595       -0.02332221866912
C          -10.05057412786617       -0.34162966736059        0.07720880047436
C          -11.23946217572897       -0.15447637277477       -0.85557644501417
C          -12.38370136398375        0.47868553497735       -0.05019425598214
C          -10.91278941495242        0.76127738947801       -2.03904505723875
C          -11.70210276680955       -1.50491666912699       -1.41995212266587
C          -10.13384593642150       -1.29088662842375        1.10348534644744
C           -9.12035011570566       -1.49629947496327        2.01892717155279
C           -7.98662845304437       -0.70880907181383        1.91979944716447
N           -3.27359781367281       -1.84332708135257        1.94079266716158
C           -0.66976798998445       -0.86802312043745        2.00035601225913
C            0.62234984494539       -0.38963024543481        2.01571402307496
N            3.21549743985112        0.61288278476183        2.03097050805275
H            4.10422751842398       -2.89563389556765       -4.36389206434916
H            5.74106668330205       -2.92371942316939       -3.72307765402802
H            4.81705531995707       -1.41126702718402       -3.72960030061619
H            3.72663251761105       -4.63884678821641       -1.09649808648990
H            5.16084912932329       -4.75480824276854       -2.11340003772310
H            3.55262907671957       -4.80002912406824       -2.84443877975461
H            2.18600322173098       -2.56481546022366       -3.02303829821339
H            2.21943401468214       -2.62614125169311       -1.26561239591281
H            2.77909182795961       -1.18026753449031       -2.09346233718583
H            3.59656423466278       -2.85057405581828        0.41562844371114
H            4.72191700414029       -1.78661152385353        2.29521779789678
H            6.64478490289585       -1.50262399827371       -2.28068064563245
H            8.92985508603813       -0.14995233871579       -2.06915309218055
H           13.30714367192857        1.19904233456953       -1.78140198914571
H           12.45681587795808       -0.17127231555864       -1.06027826370851
H           12.73142332316615        1.29135880944948       -0.11755133149670
H           10.00294778873532        1.32663695145487       -3.45228826892484
H           11.74923396091546        1.31498252265382       -3.68611204793191
H           10.94457147442595       -0.12524093579734       -3.07498897188252
H           11.47046859921705        3.42890218259672       -0.69866996202543
H           10.27914047240737        3.41878660629820       -1.99445218413823
H           12.00033771661842        3.32290048737867       -2.37386130582947
H           10.89307404754705        2.13855235023661        0.97783711423055
H            9.19965072626708        1.50911609443375        2.60788114527611
H            8.33925489871309       -0.22174424097480        4.22457855617935
H            7.47852472801544        0.63506243095263        6.37245144552780
H            5.19448985748135        1.56000315878189        6.50748123918054
H            3.80258893597589        1.69839723965959        4.46360718873924
H            3.48036588913314        1.02116903015453       -2.72509183231336
H            4.68688553006954        1.49895082731310       -4.83508940375372
H            6.95466668429492        2.46092453479560       -4.75864246271508
H            8.00944238247801        2.96367070318779       -2.58451938575813
H            6.80473118865490        2.46618047470532       -0.48496580545857
H            0.92329408327687        0.50688429115911       -1.23257770508106
H           -1.40520070728540       -0.37716431993036       -1.26492232133806
H           -7.29355475775617       -2.36042523296061       -0.54848289859949
H           -8.71814896012449       -2.07532572804623       -2.54849152680529
H           -7.80771366166323       -0.98499656281046       -4.56501839303772
H           -5.46543382229699       -0.21506352858392       -4.59868947781569
H           -4.03757666428706       -0.53176376299853       -2.60068311374672
H           -3.84398820492819       -3.94133379053109        3.78443279774243
H           -5.07282339487169       -4.51425810940540        5.85628639965777
H           -7.16984956908656       -3.33757063057549        6.40408855716962
H           -7.99601479302872       -1.53256383866859        4.93550699884296
H           -4.30010235699676        0.23561217686268        3.50836428400384
H           -3.06120754513842        1.85916976219423        2.19378166390504
H           -5.47888652045877        4.29655984996873       -0.75631626839465
H           -3.92334447576043        5.10362206230603       -0.94168443655916
H           -4.61509122931853        4.87255995864181        0.66710335613148
H           -2.39803966409181        3.82351098628078        1.32831878123968
H           -1.82714985310940        4.01216421611918       -0.32503626402330
H           -1.78383971528069        2.42261292890358        0.42972891418614
H           -4.57817186664570        2.28378756266437       -2.05363522378715
H           -3.13352467881503        1.45945826183089       -1.47205505417009
H           -3.00017364230725        3.05599358570990       -2.22356830325176
H           -6.31072125509909        2.21038883615355       -0.58142544173019
H           -8.77754694896445        1.16253848518595       -0.79922280048312
H          -12.67321052237548       -0.15922815163335        0.78105517766912
H          -13.25355744384570        0.63328819383784       -0.68553603295682
H          -12.07301945236608        1.44065426667218        0.35216131474849
H          -10.69084133333974        1.77162141244986       -1.70437986302063
H          -11.77054428267335        0.81387036076114       -2.70698887438902
H          -10.06401668434367        0.37942426815193       -2.60226845968135
H          -10.88270645068019       -2.00442386100454       -1.93137465053929
H          -12.06792065240983       -2.16471060607142       -0.63881773276973
H          -12.50978353630882       -1.35266388612636       -2.13326467598567
H          -11.02364096906213       -1.89447854898037        1.19682093139375
H           -9.21371846199087       -2.25184004422743        2.78486804017811
H           -1.13707137938148       -1.24882616903774        2.89506906653673
H            1.20856912575442       -0.38997921808597        2.92145615605857

          :  Hamiltonian                  GFN2-xTB          :
         :: gradient norm              0.000046252381 Eh/a0 ::
         :: HOMO-LUMO gap              1.437588010784 eV    ::
         :: SCC energy              -225.918236721101 Eh    ::
         :: -> dispersion             -0.242593421589 Eh    ::
         :: repulsion energy           3.889334139529 Eh    ::

    * Orbital Energies and Occupations

         #    Occupation            Energy/Eh            Energy/eV
      -------------------------------------------------------------
         1        2.0000           -0.6839397             -18.6109
       ...           ...                  ...                  ...
       195        2.0000           -0.4023991             -10.9498
       196        2.0000           -0.4011730             -10.9165
       197        2.0000           -0.4011083             -10.9147
       198        2.0000           -0.3891984             -10.5906
       199        2.0000           -0.3882185             -10.5640
       200        2.0000           -0.3728722             -10.1464
       201        2.0000           -0.3720168             -10.1231
       202        2.0000           -0.3711598             -10.0998
       203        2.0000           -0.3704325             -10.0800
       204        2.0000           -0.3663211              -9.9681
       205        2.0000           -0.3658226              -9.9545
       206        2.0000           -0.3517852              -9.5726
       207        2.0000           -0.3511991              -9.5566 (HOMO)
       208                         -0.2983687              -8.1190 (LUMO)
       209                         -0.2817988              -7.6681
       210                         -0.2808212              -7.6415
       211                         -0.2693822              -7.3303
       212                         -0.2446902              -6.6584
       213                         -0.2385284              -6.4907
       214                         -0.2376983              -6.4681
       215                         -0.2318084              -6.3078
       216                         -0.2314480              -6.2980
       217                         -0.2303413              -6.2679
       218                         -0.2271324              -6.1806
       ...                                ...                  ...
       406                          0.7528658              20.4865
      -------------------------------------------------------------
                  HL-Gap            0.0528304 Eh            1.4376 eV

     #   Z          covCN         q      C6AA      α(0)
     1   6 C        3.761    -0.106    22.574     6.773
     2   6 C        3.903     0.026    20.076     6.369
     3   6 C        3.761    -0.104    22.532     6.767
     4   6 C        3.762    -0.104    22.527     6.766
     5   6 C        2.974    -0.003    28.089     8.694
     6   6 C        2.932    -0.039    28.961     8.826
     7   6 C        2.908    -0.053    29.316     8.878
     8   6 C        3.091     0.048    26.830     8.490
     9   6 C        3.064    -0.020    28.437     8.744
    10   6 C        2.918    -0.044    29.100     8.846
    11   6 C        3.070    -0.017    28.356     8.731
    12   6 C        2.918    -0.043    29.057     8.839
    13   6 C        2.973    -0.003    28.085     8.693
    14   6 C        3.903     0.026    20.085     6.370
    15   6 C        3.762    -0.105    22.552     6.769
    16   6 C        3.761    -0.106    22.573     6.773
    17   6 C        3.761    -0.103    22.509     6.763
    18   6 C        2.931    -0.040    28.988     8.830
    19   6 C        2.908    -0.052    29.298     8.875
    20   6 C        3.083     0.050    26.793     8.486
    21   7 N        2.798    -0.049    22.177     6.994
    22   6 C        2.917     0.074    26.351     8.418
    23   6 C        2.921    -0.042    29.033     8.836
    24   6 C        2.919    -0.026    28.651     8.778
    25   6 C        2.918    -0.032    28.805     8.801
    26   6 C        2.923    -0.023    28.581     8.767
    27   6 C        2.986    -0.010    28.251     8.719
    28   6 C        2.994     0.215    23.468     7.947
    29   7 N        1.846    -0.297    28.543     7.918
    30   6 C        2.989     0.206    23.625     7.973
    31   6 C        2.985     0.001    27.987     8.678
    32   6 C        2.924    -0.022    28.551     8.763
    33   6 C        2.919    -0.028    28.703     8.786
    34   6 C        2.920    -0.023    28.588     8.768
    35   6 C        2.919    -0.024    28.613     8.772
    36   6 C        2.924    -0.019    28.480     8.752
    37   7 N        1.844    -0.292    28.424     7.901
    38   6 C        2.992     0.205    23.653     7.978
    39   6 C        2.985     0.006    27.873     8.660
    40   6 C        2.922    -0.022    28.558     8.763
    41   6 C        2.922    -0.022    28.559     8.764
    42   6 C        2.985     0.006    27.876     8.661
    43   6 C        2.995     0.205    23.644     7.976
    44   7 N        1.844    -0.292    28.425     7.901
    45   6 C        2.989     0.207    23.615     7.971
    46   6 C        2.985     0.002    27.985     8.678
    47   6 C        2.924    -0.019    28.491     8.753
    48   6 C        2.919    -0.025    28.626     8.774
    49   6 C        2.920    -0.023    28.590     8.768
    50   6 C        2.919    -0.028    28.703     8.786
    51   6 C        2.924    -0.022    28.564     8.765
    52   7 N        1.847    -0.298    28.564     7.921
    53   6 C        2.997     0.216    23.444     7.943
    54   6 C        2.987    -0.009    28.224     8.715
    55   6 C        2.921    -0.023    28.582     8.767
    56   6 C        2.919    -0.032    28.797     8.800
    57   6 C        2.919    -0.026    28.663     8.779
    58   6 C        2.920    -0.041    29.020     8.834
    59   6 C        2.919     0.074    26.350     8.418
    60   7 N        2.797    -0.053    22.266     7.008
    61   6 C        3.090     0.047    26.852     8.494
    62   6 C        2.909    -0.053    29.324     8.879
    63   6 C        2.929    -0.043    29.079     8.843
    64   6 C        2.973    -0.002    28.076     8.692
    65   6 C        3.903     0.026    20.078     6.369
    66   6 C        3.761    -0.104    22.542     6.768
    67   6 C        3.761    -0.104    22.539     6.768
    68   6 C        3.763    -0.105    22.546     6.768
    69   6 C        2.920    -0.040    28.998     8.831
    70   6 C        3.061    -0.020    28.449     8.747
    71   6 C        3.068    -0.017    28.366     8.733
    72   6 C        2.918    -0.042    29.050     8.838
    73   6 C        2.972    -0.003    28.085     8.693
    74   6 C        3.903     0.026    20.086     6.371
    75   6 C        3.762    -0.105    22.543     6.768
    76   6 C        3.761    -0.106    22.576     6.773
    77   6 C        3.761    -0.103    22.515     6.764
    78   6 C        2.931    -0.040    28.990     8.830
    79   6 C        2.908    -0.052    29.295     8.875
    80   6 C        3.082     0.051    26.765     8.481
    81   7 N        1.843    -0.295    28.496     7.911
    82   6 C        2.922    -0.023    28.575     8.766
    83   6 C        2.922    -0.023    28.582     8.767
    84   7 N        1.844    -0.295    28.485     7.910
    85   1 H        0.925     0.035     2.520     2.482
    86   1 H        0.925     0.034     2.528     2.486
    87   1 H        0.925     0.036     2.508     2.476
    88   1 H        0.925     0.034     2.526     2.485
    89   1 H        0.925     0.033     2.546     2.495
    90   1 H        0.925     0.036     2.501     2.473
    91   1 H        0.925     0.034     2.525     2.485
    92   1 H        0.925     0.031     2.573     2.509
    93   1 H        0.925     0.039     2.466     2.456
    94   1 H        0.926     0.026     2.638     2.540
    95   1 H        0.926     0.020     2.729     2.583
    96   1 H        0.926     0.034     2.528     2.486
    97   1 H        0.926     0.035     2.521     2.483
    98   1 H        0.925     0.035     2.511     2.478
    99   1 H        0.925     0.033     2.542     2.493
   100   1 H        0.925     0.035     2.510     2.477
   101   1 H        0.925     0.035     2.523     2.484
   102   1 H        0.925     0.034     2.527     2.486
   103   1 H        0.925     0.035     2.515     2.480
   104   1 H        0.925     0.035     2.510     2.478
   105   1 H        0.925     0.030     2.590     2.517
   106   1 H        0.925     0.035     2.521     2.483
   107   1 H        0.926     0.028     2.608     2.526
   108   1 H        0.926     0.025     2.662     2.552
   109   1 H        0.926     0.047     2.357     2.401
   110   1 H        0.926     0.041     2.432     2.439
   111   1 H        0.926     0.041     2.432     2.439
   112   1 H        0.926     0.050     2.323     2.383
   113   1 H        0.926     0.053     2.285     2.364
   114   1 H        0.926     0.037     2.491     2.468
   115   1 H        0.926     0.036     2.498     2.472
   116   1 H        0.926     0.037     2.493     2.469
   117   1 H        0.926     0.056     2.240     2.341
   118   1 H        0.926     0.061     2.183     2.310
   119   1 H        0.926     0.059     2.206     2.322
   120   1 H        0.926     0.057     2.237     2.339
   121   1 H        0.926     0.036     2.497     2.471
   122   1 H        0.926     0.036     2.500     2.472
   123   1 H        0.926     0.037     2.486     2.466
   124   1 H        0.926     0.056     2.244     2.343
   125   1 H        0.926     0.048     2.347     2.396
   126   1 H        0.926     0.041     2.430     2.438
   127   1 H        0.926     0.041     2.431     2.438
   128   1 H        0.926     0.047     2.357     2.401
   129   1 H        0.926     0.022     2.709     2.574
   130   1 H        0.926     0.032     2.552     2.498
   131   1 H        0.925     0.036     2.509     2.477
   132   1 H        0.925     0.035     2.511     2.478
   133   1 H        0.925     0.033     2.549     2.497
   134   1 H        0.925     0.034     2.534     2.490
   135   1 H        0.925     0.035     2.519     2.482
   136   1 H        0.925     0.032     2.559     2.502
   137   1 H        0.925     0.034     2.524     2.484
   138   1 H        0.925     0.039     2.468     2.457
   139   1 H        0.925     0.035     2.523     2.484
   140   1 H        0.926     0.028     2.620     2.531
   141   1 H        0.926     0.033     2.538     2.491
   142   1 H        0.925     0.035     2.514     2.480
   143   1 H        0.925     0.036     2.504     2.475
   144   1 H        0.925     0.033     2.542     2.493
   145   1 H        0.925     0.035     2.520     2.482
   146   1 H        0.925     0.034     2.527     2.486
   147   1 H        0.925     0.035     2.516     2.481
   148   1 H        0.925     0.031     2.579     2.512
   149   1 H        0.925     0.035     2.513     2.479
   150   1 H        0.925     0.034     2.526     2.485
   151   1 H        0.926     0.029     2.599     2.521
   152   1 H        0.926     0.025     2.663     2.552
   153   1 H        0.926     0.063     2.161     2.299
   154   1 H        0.926     0.063     2.163     2.300

molecular dipole:
                 x           y           z       tot (Debye)
 q only:        0.011       0.068      -0.262
   full:       -0.006      -0.003      -0.027       0.070

 projected vibrational frequencies (cm⁻¹)
eigval :       -0.00    -0.00    -0.00    -0.00    -0.00     0.00
eigval :        1.24     4.30     8.14    11.90    12.40    21.32
eigval :       26.98    31.41    33.58    34.67    35.83    38.70
eigval :       39.50    43.04    44.30    45.33    49.22    53.16
eigval :       55.12    56.04    64.94    68.49    69.56    72.69
eigval :       75.87    79.47    82.92    90.71    97.19    99.75
eigval :      102.23   110.56   115.55   123.20   129.20   133.91
eigval :      137.31   149.48   154.61   164.97   166.91   169.49
eigval :      177.02   180.58   183.77   186.62   190.55   192.66
eigval :      193.36   197.48   204.25   206.39   216.85   220.23
eigval :      220.84   222.17   224.34   225.29   234.45   243.07
eigval :      254.27   261.66   264.68   268.49   272.59   274.68
eigval :      276.74   286.96   293.42   294.34   306.66   308.38
eigval :      314.86   314.88   317.50   319.28   330.60   336.21
eigval :      339.36   340.16   343.79   359.71   361.75   364.06
eigval :      366.54   366.73   370.29   370.52   371.39   376.96
eigval :      395.50   397.93   400.32   400.96   404.25   408.35
eigval :      411.27   414.06   414.53   433.29   435.07   437.69
eigval :      442.06   445.48   447.22   449.22   455.25   463.23
eigval :      464.37   464.95   466.42   467.79   470.92   477.67
eigval :      500.87   506.08   521.21   521.60   560.01   563.61
eigval :      576.06   576.97   578.21   578.48   587.66   588.45
eigval :      589.61   590.25   601.60   610.63   613.50   614.75
eigval :      618.74   626.42   627.91   631.48   634.95   636.06
eigval :      639.72   640.28   647.75   648.82   655.46   670.38
eigval :      672.42   679.35   689.58   689.84   700.22   703.34
eigval :      706.63   707.00   714.33   727.33   730.64   737.04
eigval :      738.01   758.17   763.81   784.11   784.97   790.12
eigval :      792.08   817.70   819.65   821.55   822.62   824.99
eigval :      831.74   832.53   837.56   845.90   846.85   868.19
eigval :      869.10   871.57   873.05   873.45   875.93   877.29
eigval :      877.44   878.13   878.51   885.48   886.70   907.86
eigval :      910.47   912.22   912.89   913.25   915.23   916.43
eigval :      917.71   918.31   919.37   926.22   926.31   927.20
eigval :      928.99   929.46   930.90   931.45   933.08   933.43
eigval :      933.62   940.43   941.01   958.16   959.57   960.63
eigval :      960.82   961.06   961.62   962.30   962.96   963.32
eigval :      963.72   963.81   967.03   977.86   983.14  1006.28
eigval :     1030.54  1031.61  1034.29  1035.21  1035.26  1036.92
eigval :     1037.93  1038.16  1038.85  1041.84  1042.33  1043.46
eigval :     1067.80  1069.00  1076.48  1076.91  1084.59  1086.36
eigval :     1106.34  1108.72  1110.34  1111.37  1115.82  1126.70
eigval :     1127.85  1130.55  1130.89  1149.30  1149.63  1161.10
eigval :     1166.70  1174.55  1175.17  1177.48  1178.96  1179.21
eigval :     1179.49  1180.81  1184.66  1195.70  1198.48  1203.83
eigval :     1206.82  1210.12  1213.18  1214.90  1225.77  1226.96
eigval :     1228.40  1228.68  1231.15  1231.44  1232.16  1233.56
eigval :     1236.97  1238.36  1239.37  1239.99  1246.72  1247.29
eigval :     1249.75  1261.22  1261.42  1268.48  1269.10  1285.30
eigval :     1285.76  1299.76  1302.87  1309.60  1310.77  1311.70
eigval :     1312.75  1330.09  1330.68  1337.25  1346.59  1348.81
eigval :     1352.73  1357.24  1358.84  1362.44  1363.89  1368.43
eigval :     1369.15  1375.68  1378.70  1392.41  1402.34  1402.72
eigval :     1404.34  1404.59  1404.87  1405.02  1405.44  1405.66
eigval :     1407.21  1413.97  1414.14  1428.09  1428.71  1428.88
eigval :     1429.40  1433.44  1434.01  1435.91  1436.14  1449.90
eigval :     1450.96  1467.33  1467.63  1469.31  1474.67  1477.04
eigval :     1482.02  1482.58  1483.56  1485.40  1490.82  1490.90
eigval :     1490.95  1491.89  1493.91  1494.67  1494.76  1495.22
eigval :     1502.03  1502.09  1502.62  1502.93  1504.52  1505.83
eigval :     1507.02  1507.02  1513.07  1514.06  1514.10  1514.57
eigval :     1516.88  1517.04  1518.17  1521.48  1522.11  1523.05
eigval :     1523.55  1523.86  1565.15  1566.60  1570.66  1572.16
eigval :     1572.94  1584.88  1585.24  1585.46  1587.72  1590.49
eigval :     1591.43  1592.03  1596.25  1596.34  1604.69  1605.07
eigval :     1618.33  1619.37  3016.99  3018.46  3019.29  3019.38
eigval :     3019.68  3020.72  3020.88  3020.94  3024.77  3026.51
eigval :     3026.57  3027.32  3027.56  3027.83  3028.51  3028.58
eigval :     3030.62  3031.06  3032.31  3032.42  3035.30  3035.56
eigval :     3036.83  3037.34  3038.34  3039.43  3039.87  3040.16
eigval :     3042.73  3045.26  3045.58  3046.34  3048.57  3049.17
eigval :     3051.56  3051.99  3072.21  3072.44  3072.55  3075.65
eigval :     3077.77  3078.49  3080.87  3080.94  3081.20  3082.60
eigval :     3086.58  3088.01  3088.64  3090.33  3091.08  3091.16
eigval :     3092.19  3093.98  3094.52  3094.79  3100.14  3100.53
eigval :     3100.83  3102.74  3106.45  3109.66  3112.75  3113.02
eigval :     3113.11  3114.16  3115.53  3116.26  3117.80  3118.81

   temp. (K)  partition function   enthalpy   heat capacity  entropy
                                   cal/mol     cal/K/mol   cal/K/mol   J/K/mol
 298.15  VIB  0.597E+38            46152.851    279.984    293.002
         ROT  0.397E+09              888.752      2.981     42.329
         INT  0.237E+47            47041.603    282.965    335.332
         TR   0.351E+29             1481.254      4.968     46.832
         TOT                       48522.8572   287.9332   382.1637  1598.9730

       T/K    H(0)-H(T)+PV         H(T)/Eh          T*S/Eh         G(T)/Eh
   ------------------------------------------------------------------------
    298.15    0.773261E-01    0.132257E+01    0.181578E+00    0.114099E+01
   ------------------------------------------------------------------------

         :::::::::::::::::::::::::::::::::::::::::::::::::::::
         ::                  THERMODYNAMIC                  ::
         :::::::::::::::::::::::::::::::::::::::::::::::::::::
         :: total free energy        -220.887915640917 Eh   ::
         ::.................................................::
         :: total energy             -222.028902581571 Eh   ::
         :: zero point energy           1.245239165117 Eh   ::
         :: G(RRHO) w/o ZPVE           -0.104252224464 Eh   ::
         :: G(RRHO) contrib.            1.140986940653 Eh   ::
         :::::::::::::::::::::::::::::::::::::::::::::::::::::

           -------------------------------------------------
          | TOTAL ENERGY             -222.028902581571 Eh   |
          | TOTAL ENTHALPY           -220.706337321567 Eh   |
          | TOTAL FREE ENERGY        -220.887915640917 Eh   |
          | GRADIENT NORM               0.000046252780 Eh/α |
          | HOMO-LUMO GAP               1.437588799580 eV   |
           -------------------------------------------------

 * finished run on 2025/07/19 at 05:52:03.665
