   * xtb version 6.7.1 (edcfbbe) compiled by 'albert@albert-system' on 2024-07-22

   ID    Z sym.   atoms
    1    6 C      1-20, 22-28, 30-36, 38-43, 45-51, 53-59, 61-80, 82, 83
    2    7 N      21, 29, 37, 44, 52, 60, 81, 84
    3    1 H      85-154

          program call               : xtb data2507/gas/BTrztCz/BTrztCz_gas_S0_crest.xyz --gfn 2 --ohess vtight --parallel 40 --molden --ceasefiles --namespace data2507/gas/BTrztCz/BTrztCz_gas_S0_finalOpt
          :  Hamiltonian                  GFN2-xTB          :
 * total energy  :  -222.0350026 Eh     change       -0.9715706E-08 Eh
 * total energy  :  -222.0350039 Eh     change       -0.1323614E-05 Eh
 * total energy  :  -222.0350052 Eh     change       -0.1277771E-05 Eh
 * total energy  :  -222.0350072 Eh     change       -0.1996482E-05 Eh
 * total energy  :  -222.0350077 Eh     change       -0.5229814E-06 Eh
 * total energy  :  -222.0350088 Eh     change       -0.1074117E-05 Eh
 * total energy  :  -222.0350099 Eh     change       -0.1138628E-05 Eh
 * total energy  :  -222.0350100 Eh     change       -0.5493155E-07 Eh
 * total energy  :  -222.0350089 Eh     change        0.1021590E-05 Eh
 * total energy  :  -222.0350104 Eh     change       -0.1430997E-05 Eh
 * total energy  :  -222.0350115 Eh     change       -0.3158112E-06 Eh
 * total energy  :  -222.0350119 Eh     change       -0.3712725E-06 Eh
 * total energy  :  -222.0350122 Eh     change       -0.2945407E-06 Eh
 * total energy  :  -222.0350125 Eh     change       -0.2850904E-06 Eh
 * total energy  :  -222.0350128 Eh     change       -0.3821153E-06 Eh
 * total energy  :  -222.0350133 Eh     change       -0.4995227E-06 Eh
 * total energy  :  -222.0350137 Eh     change       -0.3939425E-06 Eh
 * total energy  :  -222.0350140 Eh     change       -0.2781687E-06 Eh
 * total energy  :  -222.0350140 Eh     change       -0.4251888E-08 Eh
   *** GEOMETRY OPTIMIZATION CONVERGED AFTER 22 ITERATIONS ***

 final structure:
================
154
 xtb: 6.7.1 (edcfbbe)
C            3.89770788816330       -1.48384672671269       -5.00153634775415
C            3.05603463948958       -1.41313480662583       -3.72013246053512
C            3.31737382843499       -2.65407870059234       -2.85399493363829
C            1.57538649591687       -1.41329383725466       -4.11027556871336
C            3.44750241625625       -0.17322250998145       -2.93122762114072
C            4.73129213034627       -0.11766062691714       -2.37239591110991
C            5.14976069790998        0.92229310247630       -1.56929795830744
C            4.24831543587679        1.94329842619587       -1.31601253184587
C            2.98544012012949        1.96079337765140       -1.93820898300573
C            2.58667869171349        0.89474669243716       -2.73420383773159
C            2.33525008606367        3.16325309393393       -1.49016825572033
C            1.08899106129428        3.71851683533710       -1.74586698053365
C            0.72782138898955        4.90911125751265       -1.13489040860078
C           -0.60035153857466        5.59879661791058       -1.41340715296164
C           -1.57789325281388        4.70306014006640       -2.18090721829256
C           -1.27307756152138        6.01413690993047       -0.09794046971354
C           -0.31960374168350        6.85052684613882       -2.25823215173512
C            1.63888973044013        5.51777160617674       -0.26242282181317
C            2.87625529177597        4.97719996648155        0.02629603906410
C            3.22924441406546        3.79566768489017       -0.60104938376779
N            4.39160224159993        3.05077743692879       -0.49997665461007
C            5.28888373346970        3.09358678954218        0.57670109907866
C            6.09017342733731        4.20723739452196        0.79130496359335
C            7.00736935133549        4.21493789372302        1.82753442991054
C            7.15230991827730        3.10264672444188        2.64103948606173
C            6.35708226572924        1.98900599626755        2.43741546010750
C            5.40422829641476        1.98377338187583        1.42841540703552
C            4.50922209445553        0.82971959510670        1.24656530514504
N            5.03735853449515       -0.38575967418184        1.26317834855239
C            4.20703851048647       -1.37397605399217        0.93458722576336
C            4.72734085991996       -2.73901811913693        0.91387257258492
C            6.09468516599997       -2.97367390871074        1.03814161629997
C            6.57821618397784       -4.26715388423991        0.99336425457596
C            5.70586933085269       -5.33156772146001        0.82511582468463
C            4.34361240412988       -5.10326226064465        0.70544698695383
C            3.85459485983601       -3.81300235371383        0.75108585571804
N            2.93856793746777       -1.19296577331622        0.58236071789229
C            2.47701932200751        0.04871697026552        0.68559931422892
C            1.07563362873423        0.29260560882623        0.35185638218881
C            0.48718427395792        1.52039066771200        0.65293722761111
C           -0.85098941786177        1.72284866717247        0.39213029723818
C           -1.61465663685660        0.70796016494959       -0.18250016223398
C           -3.06254205744257        0.86378168861761       -0.31106956382723
N           -3.59341847977913        2.07397079126538       -0.18038891877900
C           -4.92320199938432        2.13079391103651       -0.23008645184597
C           -5.56651382757645        3.44293524575352       -0.18441020614196
C           -6.95350894948446        3.54754733790974       -0.27201939134196
C           -7.55652059449372        4.78939846864912       -0.22991428098070
C           -6.78472674316028        5.93350465380487       -0.09742166381304
C           -5.40528883970720        5.83324411845585       -0.00560484492419
C           -4.79534196336210        4.59485560508479       -0.04893394732099
N           -5.70735513427245        1.05915799909103       -0.28349551019306
C           -5.08905412883184       -0.11428836560795       -0.37617714206720
C           -5.93277627828975       -1.31274975941926       -0.35733183258938
C           -7.26534374887875       -1.18273474822562       -0.74669666445624
C           -8.10761745997565       -2.27444037547240       -0.78841294968121
C           -7.62850691661439       -3.52395551762692       -0.42380457069877
C           -6.31904717752323       -3.66768720053540       -0.00983970443397
C           -5.45494556766092       -2.57452389151806        0.03141812895441
N           -4.14470217775143       -2.78048668686387        0.46907911890917
C           -3.27216955127250       -3.70449307751947       -0.07423580753499
C           -3.45972374860496       -4.61901282971633       -1.09608433619452
C           -2.39804903967544       -5.43152098464246       -1.45136441056411
C           -1.14810612656701       -5.35249773971766       -0.83177507123418
C            0.01629630134686       -6.24844400113253       -1.23154251514382
C            1.12102527921659       -5.37094818288520       -1.83462411105857
C            0.54957293226851       -6.97899435968538        0.00904213905313
C           -0.37287514792356       -7.30696570069866       -2.26748477019286
C           -0.96162161908353       -4.40292560387454        0.16488378623493
C           -2.01163181226633       -3.58490463695914        0.54966006890648
C           -2.13708960695553       -2.53262482319359        1.52096904723391
C           -1.24637658697374       -1.97168870355499        2.42564735104951
C           -1.66981095473810       -0.95787120986646        3.26810059339550
C           -0.74826544125340       -0.30772071897448        4.28980603569343
C            0.70713136309785       -0.75914568020949        4.13474634075826
C           -0.78313217337431        1.21785485292508        4.12933456564371
C           -1.22858857503142       -0.69215593610559        5.69698054340305
C           -3.00911991662889       -0.54993939350485        3.20163346753996
C           -3.91409853420067       -1.08879640501091        2.31039610018250
C           -3.46620501018566       -2.06959997071379        1.43917903528857
N           -3.77287165137077       -0.24933614128013       -0.47466881703722
C           -1.01027599039293       -0.49692449045149       -0.53985824555097
C            0.32345026194977       -0.70463576368872       -0.26761193733852
N            3.22092827351313        1.08587133274352        1.05493585344167
H            3.64398092382238       -2.37659151897487       -5.56972374868564
H            4.95963279681450       -1.51389560036726       -4.77184649496960
H            3.70936794697527       -0.61154778494825       -5.62422083243782
H            2.82825776730837       -2.54323496634865       -1.88924161575960
H            4.37827265950706       -2.80597930077785       -2.67534250688799
H            2.92991851707076       -3.54392399638156       -3.34423342043043
H            1.33594777531471       -2.34114552872455       -4.62651336870379
H            0.94182375335787       -1.33983109267071       -3.22912094970749
H            1.34607271039818       -0.59023331941625       -4.78310343276804
H            5.42560548893514       -0.92371235362016       -2.55409238815674
H            6.13813119028422        0.92339733871411       -1.13230103819369
H            1.59914197304702        0.91194004844546       -3.16469179426293
H            0.42306571738253        3.20357889621104       -2.41802198915591
H           -1.19584851077892        4.46282786109163       -3.17021113225905
H           -2.52498188251613        5.22408503506308       -2.31103144230676
H           -1.77074695827620        3.77838791553321       -1.64133376285629
H           -0.69085150973294        6.75946905442565        0.43619895941269
H           -2.25102252118658        6.44383564324249       -0.30372320573447
H           -1.39849162620358        5.15125603028400        0.55245354621677
H            0.34561037499559        7.53236935133613       -1.73403858396356
H           -1.24764278693438        7.37437367059811       -2.47889199628991
H            0.15218679132410        6.57184751390711       -3.19822059243382
H            1.37735841920024        6.45045827322596        0.21304463289677
H            3.54200094207189        5.46421257049121        0.72327716775846
H            5.99896062954639        5.05649428968173        0.13062747389079
H            7.62408989789637        5.08663629039803        1.98908782625327
H            7.88329239899869        3.10493533707650        3.43534810016624
H            6.44905807088295        1.11911971052407        3.06994619279465
H            6.75694268624398       -2.13110800767614        1.16247441272884
H            7.63874105452969       -4.44972033869954        1.08748435454767
H            6.08860546028845       -6.34113356283065        0.78845064427692
H            3.66581932724144       -5.93405867109282        0.57667313764227
H            2.79828126841297       -3.61044836739970        0.66859800384241
H            1.09060971145876        2.29122916228679        1.10685100759766
H           -1.33191109229982        2.65238382908458        0.65399978011634
H           -7.53884847272377        2.64681196573759       -0.36996271337320
H           -8.63152580936926        4.86972444184555       -0.29898233871045
H           -7.25932627867504        6.90341302266739       -0.06381963454340
H           -4.80786284744295        6.72702651979777        0.10308034273732
H           -3.72527240601176        4.49344534059835        0.02151563703055
H           -7.61551530762811       -0.20271603201958       -1.03087952637446
H           -9.13331121259216       -2.15619184097424       -1.10294763064530
H           -8.28058506478985       -4.38444084720123       -0.44886936216924
H           -5.95047222391818       -4.63205583676256        0.30732834548596
H           -4.40406350724188       -4.69909599052905       -1.61381310031425
H           -2.56256586076100       -6.14477027799542       -2.24198421390936
H            1.47526575707432       -4.63654857497010       -1.11797134149934
H            0.74076556377667       -4.84029699625520       -2.70499542645032
H            1.96743394610742       -5.98213154161314       -2.14199940521001
H            0.91382114989818       -6.28134059816789        0.75777719749185
H            1.36864572210638       -7.63977343492192       -0.26913447177885
H           -0.23853263710176       -7.57938889627385        0.45896702236722
H           -1.16857668914485       -7.94702641657956       -1.89303310456326
H            0.48960664646556       -7.93427173965291       -2.48524937033463
H           -0.69306729748289       -6.84701307859633       -3.19940271774049
H           -0.00648362057936       -4.28645273875414        0.65344136020991
H           -0.23417302310240       -2.33915705810064        2.44932006901523
H            0.81350893945568       -1.82410733626977        4.32808782579899
H            1.33091170825062       -0.22692194841298        4.85065186966221
H            1.07655162004016       -0.53901221278345        3.13515248183209
H           -0.10080969700904        1.68272158845562        4.83838801072206
H           -1.77707545893576        1.61816064824277        4.30749429382795
H           -0.47742386983099        1.49225512020400        3.12251689039380
H           -2.24465840904509       -0.34775646330259        5.87084036106583
H           -1.21064243203496       -1.77332082048309        5.81863042702450
H           -0.58158428202187       -0.24809425559631        6.45086231924328
H           -3.36341913500232        0.21671145060113        3.87407556815712
H           -4.93967311561496       -0.74669729658209        2.29289774507060
H           -1.60619968094073       -1.26177230386410       -1.01208903382941
H            0.79878536419823       -1.64054477745501       -0.51520984314041

          :  Hamiltonian                  GFN2-xTB          :
         :: gradient norm              0.000074986926 Eh/a0 ::
         :: HOMO-LUMO gap              1.511700480536 eV    ::
         :: SCC energy              -225.923983809530 Eh    ::
         :: -> dispersion             -0.246124794734 Eh    ::
         :: repulsion energy           3.888969801140 Eh    ::

    * Orbital Energies and Occupations

         #    Occupation            Energy/Eh            Energy/eV
      -------------------------------------------------------------
         1        2.0000           -0.6830663             -18.5872
       ...           ...                  ...                  ...
       195        2.0000           -0.4012298             -10.9180
       196        2.0000           -0.4004275             -10.8962
       197        2.0000           -0.3990363             -10.8583
       198        2.0000           -0.3886445             -10.5756
       199        2.0000           -0.3871763             -10.5356
       200        2.0000           -0.3714022             -10.1064
       201        2.0000           -0.3710925             -10.0979
       202        2.0000           -0.3702224             -10.0743
       203        2.0000           -0.3698631             -10.0645
       204        2.0000           -0.3646130              -9.9216
       205        2.0000           -0.3640019              -9.9050
       206        2.0000           -0.3507600              -9.5447
       207        2.0000           -0.3501325              -9.5276 (HOMO)
       208                         -0.2945785              -8.0159 (LUMO)
       209                         -0.2843534              -7.7376
       210                         -0.2822419              -7.6802
       211                         -0.2684716              -7.3055
       212                         -0.2448113              -6.6617
       213                         -0.2373900              -6.4597
       214                         -0.2366718              -6.4402
       215                         -0.2312982              -6.2939
       216                         -0.2301072              -6.2615
       217                         -0.2279780              -6.2036
       218                         -0.2271215              -6.1803
       ...                                ...                  ...
       406                          0.7527944              20.4846
      -------------------------------------------------------------
                  HL-Gap            0.0555540 Eh            1.5117 eV

     #   Z          covCN         q      C6AA      α(0)
     1   6 C        3.761    -0.104    22.534     6.767
     2   6 C        3.903     0.026    20.075     6.369
     3   6 C        3.762    -0.104    22.531     6.766
     4   6 C        3.761    -0.105    22.559     6.771
     5   6 C        2.974    -0.003    28.087     8.693
     6   6 C        2.932    -0.039    28.973     8.827
     7   6 C        2.908    -0.053    29.322     8.879
     8   6 C        3.094     0.047    26.827     8.489
     9   6 C        3.063    -0.020    28.445     8.746
    10   6 C        2.918    -0.044    29.099     8.846
    11   6 C        3.069    -0.017    28.357     8.732
    12   6 C        2.918    -0.042    29.041     8.837
    13   6 C        2.973    -0.002    28.067     8.690
    14   6 C        3.903     0.026    20.081     6.370
    15   6 C        3.761    -0.107    22.592     6.776
    16   6 C        3.761    -0.103    22.509     6.763
    17   6 C        3.762    -0.104    22.534     6.767
    18   6 C        2.932    -0.040    29.000     8.832
    19   6 C        2.908    -0.052    29.300     8.876
    20   6 C        3.084     0.051    26.771     8.482
    21   7 N        2.797    -0.052    22.248     7.005
    22   6 C        2.919     0.074    26.336     8.415
    23   6 C        2.921    -0.041    29.026     8.835
    24   6 C        2.919    -0.026    28.655     8.778
    25   6 C        2.918    -0.032    28.805     8.801
    26   6 C        2.922    -0.023    28.583     8.767
    27   6 C        2.986    -0.009    28.241     8.717
    28   6 C        2.995     0.215    23.457     7.945
    29   7 N        1.843    -0.295    28.493     7.911
    30   6 C        2.993     0.206    23.641     7.976
    31   6 C        2.985     0.001    27.994     8.679
    32   6 C        2.923    -0.023    28.582     8.767
    33   6 C        2.918    -0.027    28.684     8.783
    34   6 C        2.921    -0.024    28.596     8.769
    35   6 C        2.918    -0.028    28.692     8.784
    36   6 C        2.925    -0.021    28.531     8.759
    37   7 N        1.845    -0.295    28.489     7.910
    38   6 C        2.991     0.208    23.596     7.968
    39   6 C        2.986     0.007    27.868     8.659
    40   6 C        2.922    -0.019    28.482     8.752
    41   6 C        2.923    -0.020    28.507     8.756
    42   6 C        2.986     0.006    27.887     8.662
    43   6 C        2.989     0.205    23.659     7.979
    44   7 N        1.843    -0.294    28.457     7.906
    45   6 C        2.985     0.203    23.703     7.986
    46   6 C        2.984    -0.000    28.026     8.684
    47   6 C        2.924    -0.024    28.595     8.769
    48   6 C        2.918    -0.028    28.696     8.784
    49   6 C        2.920    -0.024    28.602     8.770
    50   6 C        2.919    -0.027    28.681     8.782
    51   6 C        2.924    -0.027    28.666     8.780
    52   7 N        1.847    -0.297    28.538     7.917
    53   6 C        2.985     0.208    23.592     7.967
    54   6 C        2.982    -0.013    28.321     8.729
    55   6 C        2.927    -0.024    28.607     8.771
    56   6 C        2.917    -0.033    28.823     8.804
    57   6 C        2.919    -0.025    28.620     8.773
    58   6 C        2.924    -0.042    29.056     8.840
    59   6 C        2.912     0.073    26.379     8.422
    60   7 N        2.802    -0.033    21.871     6.946
    61   6 C        3.081     0.045    26.893     8.502
    62   6 C        2.909    -0.054    29.332     8.881
    63   6 C        2.929    -0.044    29.096     8.846
    64   6 C        2.972    -0.003    28.086     8.693
    65   6 C        3.903     0.026    20.087     6.371
    66   6 C        3.762    -0.103    22.520     6.765
    67   6 C        3.761    -0.103    22.523     6.765
    68   6 C        3.761    -0.106    22.577     6.773
    69   6 C        2.920    -0.039    28.965     8.826
    70   6 C        3.066    -0.017    28.358     8.732
    71   6 C        3.068    -0.017    28.367     8.733
    72   6 C        2.918    -0.043    29.068     8.841
    73   6 C        2.973    -0.003    28.103     8.696
    74   6 C        3.903     0.025    20.091     6.371
    75   6 C        3.761    -0.100    22.463     6.756
    76   6 C        3.762    -0.105    22.554     6.770
    77   6 C        3.762    -0.104    22.535     6.767
    78   6 C        2.931    -0.040    28.984     8.829
    79   6 C        2.909    -0.049    29.211     8.862
    80   6 C        3.079     0.051    26.774     8.483
    81   7 N        1.845    -0.294    28.465     7.907
    82   6 C        2.923    -0.020    28.496     8.754
    83   6 C        2.923    -0.019    28.475     8.751
    84   7 N        1.845    -0.298    28.572     7.922
    85   1 H        0.925     0.036     2.505     2.475
    86   1 H        0.925     0.034     2.528     2.487
    87   1 H        0.925     0.033     2.549     2.497
    88   1 H        0.925     0.037     2.486     2.466
    89   1 H        0.925     0.030     2.582     2.513
    90   1 H        0.925     0.037     2.485     2.465
    91   1 H        0.925     0.034     2.531     2.488
    92   1 H        0.925     0.037     2.493     2.469
    93   1 H        0.925     0.034     2.536     2.490
    94   1 H        0.926     0.027     2.632     2.537
    95   1 H        0.926     0.020     2.732     2.585
    96   1 H        0.926     0.034     2.532     2.489
    97   1 H        0.926     0.034     2.529     2.487
    98   1 H        0.925     0.032     2.551     2.498
    99   1 H        0.925     0.034     2.533     2.489
   100   1 H        0.925     0.042     2.428     2.437
   101   1 H        0.925     0.034     2.528     2.486
   102   1 H        0.925     0.035     2.516     2.480
   103   1 H        0.925     0.032     2.555     2.500
   104   1 H        0.925     0.034     2.526     2.486
   105   1 H        0.925     0.035     2.512     2.478
   106   1 H        0.925     0.033     2.550     2.497
   107   1 H        0.926     0.029     2.596     2.519
   108   1 H        0.926     0.024     2.668     2.555
   109   1 H        0.926     0.047     2.357     2.401
   110   1 H        0.926     0.041     2.435     2.440
   111   1 H        0.926     0.041     2.437     2.441
   112   1 H        0.926     0.049     2.327     2.385
   113   1 H        0.926     0.056     2.248     2.345
   114   1 H        0.926     0.037     2.494     2.470
   115   1 H        0.926     0.037     2.495     2.470
   116   1 H        0.926     0.042     2.422     2.434
   117   1 H        0.926     0.051     2.304     2.373
   118   1 H        0.926     0.061     2.191     2.315
   119   1 H        0.926     0.057     2.233     2.337
   120   1 H        0.926     0.054     2.272     2.357
   121   1 H        0.926     0.036     2.506     2.475
   122   1 H        0.926     0.036     2.508     2.477
   123   1 H        0.926     0.035     2.522     2.483
   124   1 H        0.926     0.066     2.131     2.283
   125   1 H        0.926     0.058     2.227     2.334
   126   1 H        0.926     0.040     2.445     2.445
   127   1 H        0.926     0.041     2.439     2.442
   128   1 H        0.926     0.046     2.366     2.405
   129   1 H        0.926     0.024     2.674     2.557
   130   1 H        0.926     0.035     2.516     2.480
   131   1 H        0.925     0.039     2.463     2.454
   132   1 H        0.925     0.033     2.537     2.491
   133   1 H        0.925     0.033     2.544     2.494
   134   1 H        0.925     0.036     2.509     2.477
   135   1 H        0.925     0.033     2.551     2.498
   136   1 H        0.925     0.032     2.556     2.500
   137   1 H        0.925     0.034     2.527     2.486
   138   1 H        0.925     0.034     2.531     2.488
   139   1 H        0.925     0.035     2.522     2.483
   140   1 H        0.926     0.030     2.590     2.517
   141   1 H        0.926     0.036     2.497     2.471
   142   1 H        0.925     0.034     2.526     2.485
   143   1 H        0.925     0.033     2.539     2.492
   144   1 H        0.925     0.028     2.613     2.528
   145   1 H        0.925     0.035     2.514     2.479
   146   1 H        0.925     0.034     2.526     2.485
   147   1 H        0.925     0.034     2.534     2.490
   148   1 H        0.925     0.035     2.510     2.478
   149   1 H        0.925     0.033     2.543     2.494
   150   1 H        0.925     0.036     2.499     2.472
   151   1 H        0.926     0.028     2.621     2.532
   152   1 H        0.925     0.015     2.804     2.619
   153   1 H        0.926     0.061     2.188     2.313
   154   1 H        0.926     0.060     2.200     2.320

molecular dipole:
                 x           y           z       tot (Debye)
 q only:       -0.089      -0.188       0.099
   full:       -0.130      -0.135       0.185       0.669

 projected vibrational frequencies (cm⁻¹)
eigval :       -0.00    -0.00     0.00     0.00     0.00     0.00
eigval :        5.11     6.86    11.26    12.31    18.26    23.05
eigval :       24.23    29.73    31.74    34.53    39.65    40.96
eigval :       44.18    45.58    49.42    52.17    52.57    54.59
eigval :       56.25    60.88    62.62    70.11    70.38    73.47
eigval :       80.66    81.23    83.36    87.83    96.03   103.00
eigval :      107.47   114.17   115.92   121.02   129.38   138.14
eigval :      149.86   154.03   156.92   169.44   172.38   174.84
eigval :      176.94   182.70   183.60   188.41   191.23   197.44
eigval :      200.12   200.36   207.87   210.15   215.82   220.11
eigval :      222.15   223.70   227.25   233.81   238.20   244.36
eigval :      248.98   257.53   264.29   268.69   269.61   279.35
eigval :      281.93   286.10   290.13   297.57   305.50   309.09
eigval :      312.36   313.59   316.45   323.11   326.17   338.11
eigval :      340.36   342.01   348.41   355.45   357.84   365.22
eigval :      365.40   367.65   370.41   374.32   376.11   385.73
eigval :      394.26   396.42   399.03   400.89   405.22   407.11
eigval :      412.16   413.82   424.99   428.20   434.31   437.94
eigval :      441.71   444.79   446.03   452.90   458.06   461.60
eigval :      464.04   465.00   467.94   469.70   471.34   477.87
eigval :      501.33   505.21   521.09   521.69   559.44   562.43
eigval :      576.62   577.20   578.14   578.66   586.24   587.78
eigval :      589.32   591.61   598.96   610.34   612.12   617.01
eigval :      620.71   626.70   627.52   630.07   631.61   633.68
eigval :      639.29   640.55   647.16   648.80   657.69   668.54
eigval :      672.26   679.62   687.15   689.95   699.90   704.06
eigval :      706.48   706.59   714.16   726.98   730.98   734.98
eigval :      738.42   758.86   763.90   784.58   785.61   791.23
eigval :      794.52   817.06   818.46   822.06   822.68   823.91
eigval :      831.44   832.89   839.01   844.47   846.14   867.96
eigval :      870.43   871.02   872.91   874.10   876.80   877.71
eigval :      878.55   878.92   881.13   886.00   889.71   906.91
eigval :      907.43   911.26   911.51   915.31   915.65   915.93
eigval :      918.24   918.96   920.23   926.67   927.53   929.13
eigval :      930.37   930.92   932.18   932.49   933.77   934.29
eigval :      934.46   940.81   941.68   958.46   959.74   960.50
eigval :      960.97   961.76   962.12   962.21   963.05   963.59
eigval :      963.76   964.22   966.26   977.54   983.40  1006.13
eigval :     1030.39  1032.01  1033.64  1035.11  1035.94  1036.58
eigval :     1037.18  1038.68  1040.61  1042.38  1043.06  1043.77
eigval :     1067.85  1069.55  1076.83  1078.55  1085.35  1092.03
eigval :     1106.78  1109.18  1110.10  1111.01  1117.75  1126.74
eigval :     1129.01  1130.31  1131.29  1148.99  1150.65  1162.63
eigval :     1168.11  1174.52  1176.22  1177.40  1179.69  1180.43
eigval :     1181.02  1181.14  1186.08  1196.75  1199.23  1205.56
eigval :     1209.35  1210.29  1213.05  1213.61  1225.32  1228.40
eigval :     1228.59  1229.04  1229.67  1231.17  1232.63  1233.14
eigval :     1236.54  1238.12  1239.22  1240.80  1246.52  1249.41
eigval :     1249.80  1260.99  1261.09  1269.89  1270.58  1285.56
eigval :     1286.19  1301.19  1302.05  1309.26  1311.01  1313.56
eigval :     1313.70  1329.01  1330.00  1339.02  1348.49  1348.55
eigval :     1353.39  1357.13  1361.53  1362.28  1366.47  1370.35
eigval :     1371.71  1374.17  1375.81  1395.27  1401.88  1402.91
eigval :     1402.95  1403.63  1404.40  1404.80  1405.94  1406.76
eigval :     1408.21  1414.01  1414.51  1427.76  1429.23  1429.30
eigval :     1429.84  1430.96  1433.62  1434.57  1436.58  1448.77
eigval :     1449.88  1465.51  1467.11  1469.53  1474.96  1475.63
eigval :     1482.11  1484.40  1485.01  1485.74  1490.62  1492.40
eigval :     1493.21  1493.57  1494.20  1495.16  1496.18  1497.83
eigval :     1502.32  1502.58  1503.05  1503.50  1506.02  1507.29
eigval :     1507.98  1509.60  1511.31  1514.08  1514.66  1515.17
eigval :     1516.14  1516.35  1518.58  1521.02  1522.04  1522.52
eigval :     1523.52  1525.99  1563.48  1565.81  1571.25  1571.83
eigval :     1572.15  1585.26  1585.38  1586.06  1586.35  1589.79
eigval :     1590.79  1592.98  1595.64  1595.76  1605.07  1605.09
eigval :     1618.25  1619.46  3016.92  3017.49  3017.54  3018.65
eigval :     3018.76  3020.65  3021.77  3023.50  3026.05  3026.13
eigval :     3026.50  3026.76  3026.77  3027.56  3030.40  3030.69
eigval :     3031.00  3031.51  3032.25  3034.44  3035.50  3035.67
eigval :     3036.53  3037.10  3037.84  3038.66  3039.63  3040.45
eigval :     3042.33  3044.38  3045.88  3047.95  3048.87  3049.69
eigval :     3049.78  3059.71  3064.47  3072.23  3072.95  3075.18
eigval :     3078.48  3078.61  3079.40  3080.73  3080.95  3082.91
eigval :     3087.86  3088.08  3089.00  3089.36  3090.01  3090.91
eigval :     3093.60  3094.42  3095.94  3096.26  3098.66  3100.20
eigval :     3102.70  3103.39  3105.69  3106.48  3107.67  3108.04
eigval :     3112.27  3113.34  3117.65  3117.85  3118.18  3130.39

   temp. (K)  partition function   enthalpy   heat capacity  entropy
                                   cal/mol     cal/K/mol   cal/K/mol   J/K/mol
 298.15  VIB  0.169E+37            45977.315    280.484    289.170
         ROT  0.266E+09              888.752      2.981     41.529
         INT  0.450E+45            46866.068    283.465    330.699
         TR   0.351E+29             1481.254      4.968     46.832
         TOT                       48347.3216   288.4329   377.5307  1579.5886

       T/K    H(0)-H(T)+PV         H(T)/Eh          T*S/Eh         G(T)/Eh
   ------------------------------------------------------------------------
    298.15    0.770464E-01    0.132282E+01    0.179377E+00    0.114345E+01
   ------------------------------------------------------------------------

         :::::::::::::::::::::::::::::::::::::::::::::::::::::
         ::                  THERMODYNAMIC                  ::
         :::::::::::::::::::::::::::::::::::::::::::::::::::::
         :: total free energy        -220.891567336568 Eh   ::
         ::.................................................::
         :: total energy             -222.035014008389 Eh   ::
         :: zero point energy           1.245777341056 Eh   ::
         :: G(RRHO) w/o ZPVE           -0.102330669235 Eh   ::
         :: G(RRHO) contrib.            1.143446671821 Eh   ::
         :::::::::::::::::::::::::::::::::::::::::::::::::::::

           -------------------------------------------------
          | TOTAL ENERGY             -222.035014008389 Eh   |
          | TOTAL ENTHALPY           -220.712190306082 Eh   |
          | TOTAL FREE ENERGY        -220.891567336568 Eh   |
          | GRADIENT NORM               0.000074993734 Eh/α |
          | HOMO-LUMO GAP               1.511701206060 eV   |
           -------------------------------------------------

 * finished run on 2025/07/19 at 06:12:16.587
