   * xtb version 6.7.1 (edcfbbe) compiled by 'albert@albert-system' on 2024-07-22

   ID    Z sym.   atoms
    1    6 C      1-5, 8-12, 14-19, 21-28, 30, 31
    2    7 N      6, 7, 13
    3    8 O      20, 29
    4    1 H      32-48

          program call               : xtb data2507/toluene/PXZ-OXD/PXZ-OXD_toluene_S0_crest.xyz --gfn 2 --gbsa toluene --ohess vtight --parallel 40 --molden --ceasefiles --namespace data2507/toluene/PXZ-OXD/PXZ-OXD_toluene_S0_finalOpt
      * Solvation model:               GBSA
        Solvent                        toluene
        Solvent mass                       9.2140E+01 g/mol
          :  Hamiltonian                  GFN2-xTB          :
 * total energy  :   -81.2970262 Eh     change       -0.2629179E-08 Eh
 * total energy  :   -81.2970557 Eh     change       -0.2950017E-04 Eh
 * total energy  :   -81.2970646 Eh     change       -0.8863082E-05 Eh
 * total energy  :   -81.2970667 Eh     change       -0.2090216E-05 Eh
 * total energy  :   -81.2970682 Eh     change       -0.1473037E-05 Eh
 * total energy  :   -81.2970695 Eh     change       -0.1334748E-05 Eh
 * total energy  :   -81.2970710 Eh     change       -0.1485287E-05 Eh
 * total energy  :   -81.2970723 Eh     change       -0.1319700E-05 Eh
 * total energy  :   -81.2970732 Eh     change       -0.9336266E-06 Eh
 * total energy  :   -81.2970739 Eh     change       -0.6311685E-06 Eh
 * total energy  :   -81.2970743 Eh     change       -0.4697401E-06 Eh
 * total energy  :   -81.2970747 Eh     change       -0.3428944E-06 Eh
 * total energy  :   -81.2970749 Eh     change       -0.2611659E-06 Eh
 * total energy  :   -81.2970750 Eh     change       -0.2259270E-07 Eh
   *** GEOMETRY OPTIMIZATION CONVERGED AFTER 14 ITERATIONS ***

 final structure:
================
48
 xtb: 6.7.1 (edcfbbe)
C            8.40610240287030        0.83295573210549        1.20045103354570
C            8.37679126364223       -0.00385237053164        0.09409745834508
C            7.16877214502298       -0.40150360425931       -0.44460897302276
C            5.97591909718636        0.04131093402336        0.12894212513359
C            4.71638876154754       -0.37893855377322       -0.43940036779219
N            4.54089904567775       -1.16095819895609       -1.46591792529016
N            3.21827839842038       -1.28856644631549       -1.65042534936790
C            2.62845003158982       -0.57963585394212       -0.73030562824267
C            1.20823839206760       -0.41716935291996       -0.53712429208184
C            0.31803877531666       -1.06086911498053       -1.39979329605363
C           -1.04075587510195       -0.91373944118179       -1.22438273098679
C           -1.53495271477470       -0.12313422959967       -0.18583803592194
N           -2.92469453497149        0.02341937749092       -0.00708403201622
C           -3.72553367666374       -1.08821391369377        0.27651882839993
C           -3.19347116729395       -2.35713853667543        0.47220541984434
C           -4.01507816461664       -3.43698298535262        0.75857797348206
C           -5.38085624267137       -3.26665900801038        0.86600006715744
C           -5.92476983538287       -2.00037267968418        0.70783341205081
C           -5.10868668082390       -0.92034078039405        0.42498945791015
O           -5.71922951793673        0.30740052520281        0.31952692023038
C           -4.91666562962589        1.39215335467002        0.05496666532180
C           -5.54392111399064        2.62019150270111       -0.05012574491276
C           -4.80968088567505        3.75853210269078       -0.34910085125779
C           -3.44965282102588        3.65263137323249       -0.56025567176254
C           -2.81634179428565        2.42343351142442       -0.45383971065867
C           -3.53103517570152        1.27881076165275       -0.12118717737122
C           -0.64565393811138        0.51910954553534        0.67457495705614
C            0.71498198945297        0.37479722118470        0.50072283310802
O            3.53134502731348        0.02813966008203        0.07731814743266
C            6.00759701563552        0.88244546356409        1.24106671349630
C            7.22237814245845        1.27376868213799        1.77155757381169
H            9.35277645292032        1.14173457530328        1.61803090752521
H            9.29993505822630       -0.34613542866304       -0.34882069289564
H            7.12011031925622       -1.05061676295490       -1.30468892567156
H            0.71572833036053       -1.66235451416901       -2.20145619951292
H           -1.73230073862467       -1.40374239476185       -1.89321666621754
H           -2.12698801241454       -2.50339159116858        0.40606015279307
H           -3.57326087792317       -4.41140150529936        0.89956839545698
H           -6.02571794357335       -4.10334830439864        1.08374167405970
H           -6.98483358076177       -1.82655799811429        0.80635222463061
H           -6.61141640910561        2.66198054006093        0.09940255212790
H           -5.30729088707502        4.71234519711984       -0.42612570069722
H           -2.86692498344781        4.52463517671756       -0.81479828120628
H           -1.75639551282611        2.35384104897461       -0.64007746329974
H           -1.02996495149539        1.12337671284405        1.48270122241099
H            1.40296533490495        0.86648017942922        1.17181392024204
H            5.08116101884672        1.22188821501763        1.68033334638062
H            7.24601362558379        1.92424829003473        2.63324229408662

          :  Hamiltonian                  GFN2-xTB          :
         :: gradient norm              0.000168632446 Eh/a0 ::
         :: HOMO-LUMO gap              1.587766275013 eV    ::
         :: SCC energy               -82.639555845134 Eh    ::
         :: -> dispersion             -0.059759921209 Eh    ::
         :: -> Gsolv                  -0.035404264732 Eh    ::
         :: repulsion energy           1.342480888253 Eh    ::

    * Orbital Energies and Occupations

         #    Occupation            Energy/Eh            Energy/eV
      -------------------------------------------------------------
         1        2.0000           -0.7736876             -21.0531
       ...           ...                  ...                  ...
        62        2.0000           -0.4371130             -11.8945
        63        2.0000           -0.4362583             -11.8712
        64        2.0000           -0.4322823             -11.7630
        65        2.0000           -0.4277518             -11.6397
        66        2.0000           -0.4268935             -11.6164
        67        2.0000           -0.4248922             -11.5619
        68        2.0000           -0.4204311             -11.4405
        69        2.0000           -0.4183707             -11.3844
        70        2.0000           -0.4154068             -11.3038
        71        2.0000           -0.4017402             -10.9319
        72        2.0000           -0.3943155             -10.7299
        73        2.0000           -0.3928458             -10.6899
        74        2.0000           -0.3471239              -9.4457 (HOMO)
        75                         -0.2887746              -7.8580 (LUMO)
        76                         -0.2647814              -7.2051
        77                         -0.2459637              -6.6930
        78                         -0.2410750              -6.5600
        79                         -0.2376718              -6.4674
        80                         -0.2324292              -6.3247
        81                         -0.2192824              -5.9670
        82                         -0.2027616              -5.5174
        83                         -0.1930173              -5.2523
        84                         -0.1877516              -5.1090
        85                         -0.1055561              -2.8723
       ...                                ...                  ...
       141                          0.6704447              18.2437
      -------------------------------------------------------------
                  HL-Gap            0.0583493 Eh            1.5878 eV

     #   Z          covCN         q      C6AA      α(0)
     1   6 C        2.920    -0.022    28.553     8.763
     2   6 C        2.918    -0.023    28.581     8.767
     3   6 C        2.924    -0.027    28.678     8.782
     4   6 C        2.975    -0.009    28.240     8.717
     5   6 C        3.163     0.218    23.130     7.861
     6   7 N        2.045    -0.216    26.448     7.628
     7   7 N        2.044    -0.216    26.448     7.628
     8   6 C        3.164     0.217    23.145     7.863
     9   6 C        2.974    -0.011    28.295     8.725
    10   6 C        2.923    -0.027    28.672     8.781
    11   6 C        2.920    -0.036    28.891     8.814
    12   6 C        2.920     0.072    26.401     8.426
    13   7 N        2.751    -0.068    22.564     7.055
    14   6 C        2.921     0.041    27.072     8.532
    15   6 C        2.924    -0.060    29.495     8.906
    16   6 C        2.919    -0.038    28.956     8.824
    17   6 C        2.919    -0.040    28.996     8.830
    18   6 C        2.919    -0.057    29.426     8.895
    19   6 C        2.883     0.123    25.297     8.246
    20   8 O        1.708    -0.270    18.473     5.803
    21   6 C        2.883     0.123    25.295     8.245
    22   6 C        2.920    -0.057    29.427     8.896
    23   6 C        2.919    -0.040    29.001     8.831
    24   6 C        2.919    -0.039    28.962     8.825
    25   6 C        2.924    -0.060    29.502     8.907
    26   6 C        2.921     0.042    27.068     8.532
    27   6 C        2.920    -0.038    28.954     8.824
    28   6 C        2.922    -0.026    28.645     8.777
    29   8 O        1.722    -0.232    17.835     5.702
    30   6 C        2.923    -0.026    28.656     8.779
    31   6 C        2.918    -0.026    28.642     8.776
    32   1 H        0.926     0.051     2.309     2.376
    33   1 H        0.926     0.051     2.305     2.374
    34   1 H        0.926     0.056     2.251     2.346
    35   1 H        0.926     0.064     2.156     2.296
    36   1 H        0.926     0.058     2.227     2.334
    37   1 H        0.926     0.040     2.449     2.447
    38   1 H        0.926     0.043     2.415     2.430
    39   1 H        0.926     0.044     2.402     2.424
    40   1 H        0.926     0.049     2.329     2.387
    41   1 H        0.926     0.049     2.330     2.387
    42   1 H        0.926     0.043     2.406     2.426
    43   1 H        0.926     0.042     2.423     2.434
    44   1 H        0.926     0.039     2.456     2.451
    45   1 H        0.926     0.055     2.255     2.348
    46   1 H        0.926     0.053     2.278     2.360
    47   1 H        0.926     0.045     2.386     2.415
    48   1 H        0.926     0.048     2.342     2.393

molecular dipole:
                 x           y           z       tot (Debye)
 q only:        0.520       0.571       0.778
   full:        0.468       0.896       1.200       3.986

 projected vibrational frequencies (cm⁻¹)
eigval :       -0.00    -0.00     0.00     0.00     0.00     0.00
eigval :       16.03    20.12    36.66    39.20    46.52    61.78
eigval :       64.79    91.81   110.63   117.41   136.29   140.77
eigval :      197.44   203.67   242.06   253.60   271.16   286.08
eigval :      315.70   355.16   367.82   374.16   379.83   389.07
eigval :      397.73   424.45   429.46   445.06   451.44   474.47
eigval :      495.44   499.75   509.38   522.41   550.03   586.53
eigval :      587.13   595.72   608.18   653.20   657.42   658.82
eigval :      660.42   678.13   682.86   701.10   717.96   722.71
eigval :      770.88   776.82   777.73   799.87   824.54   853.41
eigval :      862.73   864.89   872.98   874.98   896.12   897.20
eigval :      908.88   910.22   912.11   914.11   915.65   925.59
eigval :      929.78   933.54   934.11   952.65   971.20   993.14
eigval :     1014.28  1074.05  1081.88  1089.89  1091.62  1093.84
eigval :     1105.58  1114.12  1116.98  1126.63  1167.25  1173.10
eigval :     1174.53  1177.82  1178.14  1184.89  1187.75  1197.93
eigval :     1217.46  1241.26  1256.89  1259.36  1269.13  1277.68
eigval :     1300.72  1303.51  1314.36  1319.86  1325.21  1333.03
eigval :     1352.05  1405.25  1421.66  1428.10  1439.73  1451.31
eigval :     1458.45  1478.98  1500.39  1531.16  1534.25  1557.06
eigval :     1566.46  1578.73  1579.89  1580.60  1588.35  1590.16
eigval :     1601.30  3079.03  3083.63  3087.89  3088.48  3088.69
eigval :     3090.01  3093.96  3096.47  3096.88  3098.05  3099.36
eigval :     3104.93  3105.33  3109.18  3109.65  3110.48  3113.77

   temp. (K)  partition function   enthalpy   heat capacity  entropy
                                   cal/mol     cal/K/mol   cal/K/mol   J/K/mol
 298.15  VIB  0.732E+10            13215.075     85.605     81.192
         ROT  0.279E+08              888.752      2.981     37.049
         INT  0.204E+18            14103.827     88.586    118.241
         TR   0.784E+28             1481.254      4.968     43.856
         TOT                       15585.0809    93.5545   162.0967   678.2126

       T/K    H(0)-H(T)+PV         H(T)/Eh          T*S/Eh         G(T)/Eh
   ------------------------------------------------------------------------
    298.15    0.248364E-01    0.381527E+00    0.770174E-01    0.304510E+00
   ------------------------------------------------------------------------

         :::::::::::::::::::::::::::::::::::::::::::::::::::::
         ::                  THERMODYNAMIC                  ::
         :::::::::::::::::::::::::::::::::::::::::::::::::::::
         :: total free energy         -80.992565322385 Eh   ::
         ::.................................................::
         :: total energy              -81.297074955019 Eh   ::
         :: zero point energy           0.356690593729 Eh   ::
         :: G(RRHO) w/o ZPVE           -0.052180961095 Eh   ::
         :: G(RRHO) contrib.            0.304509632634 Eh   ::
         :::::::::::::::::::::::::::::::::::::::::::::::::::::

           -------------------------------------------------
          | TOTAL ENERGY              -81.297074955019 Eh   |
          | TOTAL ENTHALPY            -80.915547953902 Eh   |
          | TOTAL FREE ENERGY         -80.992565322385 Eh   |
          | GRADIENT NORM               0.000168596522 Eh/α |
          | HOMO-LUMO GAP               1.587764043877 eV   |
           -------------------------------------------------

 * finished run on 2025/09/05 at 02:07:29.157
