   * xtb version 6.7.1 (edcfbbe) compiled by 'albert@albert-system' on 2024-07-22

   ID    Z sym.   atoms
    1    6 C      1-5, 8-12, 14-19, 21-28, 30, 31
    2    7 N      6, 7, 13
    3    8 O      20, 29
    4    1 H      32-48

          program call               : xtb data2507/toluene/PXZ-OXD/PXZ-OXD.xyz --gfn 2 --gbsa toluene --ohess vtight --parallel 40 --molden --ceasefiles --namespace data2507/toluene/PXZ-OXD/PXZ-OXD_toluene_S0_preOpt
      * Solvation model:               GBSA
        Solvent                        toluene
        Solvent mass                       9.2140E+01 g/mol
          :  Hamiltonian                  GFN2-xTB          :
 * total energy  :   -81.2836273 Eh     change       -0.3908738E-08 Eh
 * total energy  :   -81.2921669 Eh     change       -0.8539524E-02 Eh
 * total energy  :   -81.2945876 Eh     change       -0.2420712E-02 Eh
 * total energy  :   -81.2952704 Eh     change       -0.6827831E-03 Eh
 * total energy  :   -81.2955939 Eh     change       -0.3235724E-03 Eh
 * total energy  :   -81.2957022 Eh     change       -0.1082537E-03 Eh
 * total energy  :   -81.2957579 Eh     change       -0.5574858E-04 Eh
 * total energy  :   -81.2957886 Eh     change       -0.3070167E-04 Eh
 * total energy  :   -81.2958277 Eh     change       -0.3910590E-04 Eh
 * total energy  :   -81.2958635 Eh     change       -0.3579834E-04 Eh
 * total energy  :   -81.2971017 Eh     change       -0.2967270E-06 Eh
 * total energy  :   -81.2971019 Eh     change       -0.1795363E-06 Eh
 * total energy  :   -81.2971021 Eh     change       -0.1882724E-06 Eh
 * total energy  :   -81.2971023 Eh     change       -0.2161962E-06 Eh
 * total energy  :   -81.2971025 Eh     change       -0.1910077E-06 Eh
 * total energy  :   -81.2971026 Eh     change       -0.1482104E-06 Eh
 * total energy  :   -81.2971028 Eh     change       -0.1185304E-06 Eh
 * total energy  :   -81.2971029 Eh     change       -0.1009788E-06 Eh
 * total energy  :   -81.2971029 Eh     change       -0.7011270E-07 Eh
   *** GEOMETRY OPTIMIZATION CONVERGED AFTER 106 ITERATIONS ***

 final structure:
================
48
 xtb: 6.7.1 (edcfbbe)
C            8.38119610892631        0.48541021623930       -1.12971013853043
C            7.20718505798558        0.77185953744775       -1.80884539369971
C            5.98375608521467        0.52250428302869       -1.21615909526897
C            5.93354607965158       -0.01806929199661        0.06860479315136
C            4.66479604029001       -0.28458670651920        0.70520106895483
N            4.47221203842336       -0.78240109254120        1.89319198059850
N            3.14675054666896       -0.86126893346435        2.08418584085523
C            2.57221679452844       -0.40890037981914        1.00594943005239
C            1.15550243015346       -0.30431804283018        0.75621284899894
C            0.67909886653557        0.18083583276569       -0.46261280482730
C           -0.67849042473277        0.27036953612209       -0.68833747073646
C           -1.58195769779181       -0.11986319663278        0.29934527550378
N           -2.96802336353063       -0.02862949196517        0.06476829989596
C           -3.76922432598747       -1.17587259286757        0.07166240542882
C           -3.24418317821854       -2.44917604484543        0.25742420092699
C           -4.06606759691408       -3.56605669436687        0.25181158099388
C           -5.42481889254027       -3.43268913506584        0.04768685241392
C           -5.96066362480566       -2.17237432250019       -0.17302262042630
C           -5.14441126619383       -1.05599292363098       -0.16925076500634
O           -5.74659443201534        0.15264100001942       -0.42974031104955
C           -4.94539338185913        1.27005920880206       -0.43602587908714
C           -5.56574154085616        2.48052900897734       -0.68607118819758
C           -4.83307220229131        3.65839921929290       -0.67631584515054
C           -3.48204810784646        3.61474738103852       -0.39616803950526
C           -2.85576461200031        2.40290494992592       -0.14651402306112
C           -3.56788147388019        1.20998945268759       -0.18592353863900
C           -1.10459668317349       -0.60164566357404        1.51915878961469
C            0.25138501348816       -0.69519233017467        1.74649004191031
O            3.48846684376235       -0.02344279617441        0.08467344020494
C            7.11673028007831       -0.30612420548521        0.75054163304699
C            8.33351112817562       -0.05280530587602        0.14819787439974
H            9.33469293066494        0.68186383137491       -1.59675645678606
H            7.24540736271820        1.19064938502064       -2.80344653462685
H            5.06486111461665        0.74318069594714       -1.73902304636375
H            1.37764555111690        0.47597590467917       -1.23098050605213
H           -1.05002853075101        0.63600918883541       -1.63398938800877
H           -2.18239324553037       -2.57190585261028        0.40043689689776
H           -3.62949335694997       -4.54103437877924        0.40482917436745
H           -6.06984322021742       -4.29714235406863        0.04650300615450
H           -7.01450480844364       -2.03292768966386       -0.35654517407334
H           -6.62686096906012        2.47907674310456       -0.88031167952588
H           -5.32496213607526        4.59737146485113       -0.87561952235043
H           -2.90145630220087        4.52392586218313       -0.36385223856930
H           -1.80348140785137        2.38715218338060        0.08912411079777
H           -1.80634531247841       -0.89340202271290        2.28596497245876
H            0.63635609596601       -1.06021634346906        2.68520671499340
H            7.05388290584855       -0.72412891875918        1.74287902913880
H            9.24910181939068       -0.27528517532536        0.67517139779495

          :  Hamiltonian                  GFN2-xTB          :
         :: gradient norm              0.000071935915 Eh/a0 ::
         :: HOMO-LUMO gap              1.590229105188 eV    ::
         :: SCC energy               -82.639576637140 Eh    ::
         :: -> dispersion             -0.059760119437 Eh    ::
         :: -> Gsolv                  -0.035423024431 Eh    ::
         :: repulsion energy           1.342473710443 Eh    ::

    * Orbital Energies and Occupations

         #    Occupation            Energy/Eh            Energy/eV
      -------------------------------------------------------------
         1        2.0000           -0.7736434             -21.0519
       ...           ...                  ...                  ...
        62        2.0000           -0.4371083             -11.8943
        63        2.0000           -0.4362464             -11.8709
        64        2.0000           -0.4322908             -11.7632
        65        2.0000           -0.4277148             -11.6387
        66        2.0000           -0.4268684             -11.6157
        67        2.0000           -0.4248260             -11.5601
        68        2.0000           -0.4204206             -11.4402
        69        2.0000           -0.4184047             -11.3854
        70        2.0000           -0.4154229             -11.3042
        71        2.0000           -0.4017186             -10.9313
        72        2.0000           -0.3942710             -10.7287
        73        2.0000           -0.3928575             -10.6902
        74        2.0000           -0.3471688              -9.4469 (HOMO)
        75                         -0.2887290              -7.8567 (LUMO)
        76                         -0.2647472              -7.2041
        77                         -0.2459056              -6.6914
        78                         -0.2411070              -6.5609
        79                         -0.2376534              -6.4669
        80                         -0.2324513              -6.3253
        81                         -0.2193225              -5.9681
        82                         -0.2027811              -5.5180
        83                         -0.1929615              -5.2508
        84                         -0.1877119              -5.1079
        85                         -0.1055697              -2.8727
       ...                                ...                  ...
       141                          0.6704382              18.2436
      -------------------------------------------------------------
                  HL-Gap            0.0584398 Eh            1.5902 eV

     #   Z          covCN         q      C6AA      α(0)
     1   6 C        2.920    -0.022    28.553     8.763
     2   6 C        2.918    -0.026    28.643     8.776
     3   6 C        2.923    -0.026    28.656     8.779
     4   6 C        2.975    -0.009    28.240     8.717
     5   6 C        3.163     0.218    23.132     7.861
     6   7 N        2.044    -0.216    26.449     7.628
     7   7 N        2.044    -0.216    26.449     7.629
     8   6 C        3.163     0.217    23.146     7.863
     9   6 C        2.974    -0.011    28.297     8.726
    10   6 C        2.922    -0.026    28.645     8.777
    11   6 C        2.920    -0.038    28.954     8.824
    12   6 C        2.920     0.071    26.402     8.426
    13   7 N        2.750    -0.068    22.562     7.055
    14   6 C        2.921     0.041    27.072     8.532
    15   6 C        2.924    -0.060    29.498     8.907
    16   6 C        2.919    -0.038    28.955     8.824
    17   6 C        2.919    -0.040    28.995     8.830
    18   6 C        2.920    -0.057    29.425     8.895
    19   6 C        2.883     0.123    25.296     8.246
    20   8 O        1.708    -0.270    18.472     5.803
    21   6 C        2.883     0.123    25.295     8.245
    22   6 C        2.919    -0.057    29.427     8.896
    23   6 C        2.919    -0.040    29.000     8.831
    24   6 C        2.919    -0.039    28.962     8.825
    25   6 C        2.924    -0.060    29.499     8.907
    26   6 C        2.921     0.042    27.070     8.532
    27   6 C        2.920    -0.036    28.895     8.815
    28   6 C        2.924    -0.027    28.673     8.781
    29   8 O        1.722    -0.232    17.835     5.702
    30   6 C        2.924    -0.027    28.678     8.782
    31   6 C        2.918    -0.023    28.581     8.767
    32   1 H        0.926     0.051     2.309     2.376
    33   1 H        0.926     0.048     2.342     2.393
    34   1 H        0.926     0.045     2.386     2.415
    35   1 H        0.926     0.053     2.280     2.361
    36   1 H        0.926     0.055     2.259     2.351
    37   1 H        0.926     0.040     2.444     2.445
    38   1 H        0.926     0.043     2.414     2.430
    39   1 H        0.926     0.044     2.402     2.424
    40   1 H        0.926     0.049     2.329     2.387
    41   1 H        0.926     0.049     2.330     2.387
    42   1 H        0.926     0.043     2.405     2.425
    43   1 H        0.926     0.042     2.422     2.434
    44   1 H        0.926     0.039     2.457     2.451
    45   1 H        0.926     0.058     2.223     2.332
    46   1 H        0.926     0.064     2.156     2.296
    47   1 H        0.926     0.056     2.251     2.346
    48   1 H        0.926     0.051     2.305     2.374

molecular dipole:
                 x           y           z       tot (Debye)
 q only:        0.523       0.357      -0.875
   full:        0.478       0.566      -1.369       3.956

 projected vibrational frequencies (cm⁻¹)
eigval :       -0.00    -0.00     0.00     0.00     0.00     0.00
eigval :       15.95    26.30    30.88    41.25    44.62    60.18
eigval :       63.48    88.30   111.04   117.82   136.71   141.06
eigval :      197.42   203.59   242.85   253.61   271.83   285.87
eigval :      316.27   354.68   366.72   377.24   381.85   389.14
eigval :      397.82   425.07   428.65   445.02   451.38   474.03
eigval :      495.64   500.12   510.13   522.89   550.02   586.88
eigval :      587.12   595.76   608.44   653.53   656.49   660.25
eigval :      661.55   678.60   682.84   700.43   718.47   722.68
eigval :      770.59   777.63   779.30   800.01   823.29   853.48
eigval :      863.25   866.30   873.59   875.86   897.14   898.25
eigval :      908.97   910.25   913.59   915.15   916.44   925.71
eigval :      931.51   932.34   934.61   952.68   971.45   993.21
eigval :     1014.72  1074.08  1081.89  1090.30  1091.60  1093.92
eigval :     1106.27  1113.89  1117.44  1125.89  1168.62  1174.11
eigval :     1174.96  1177.53  1178.54  1185.63  1188.02  1198.60
eigval :     1217.88  1241.45  1256.64  1259.60  1268.87  1277.67
eigval :     1300.71  1303.66  1314.09  1320.32  1325.34  1333.01
eigval :     1352.13  1405.74  1422.01  1427.70  1440.03  1451.16
eigval :     1458.23  1479.13  1500.42  1531.26  1534.24  1556.97
eigval :     1566.57  1578.80  1579.90  1580.87  1588.51  1590.25
eigval :     1601.37  3080.03  3084.38  3087.83  3088.54  3088.91
eigval :     3090.72  3093.67  3097.08  3097.26  3097.29  3099.08
eigval :     3105.09  3106.50  3109.74  3109.92  3111.19  3113.87

   temp. (K)  partition function   enthalpy   heat capacity  entropy
                                   cal/mol     cal/K/mol   cal/K/mol   J/K/mol
 298.15  VIB  0.699E+10            13213.532     85.470     81.088
         ROT  0.279E+08              888.752      2.981     37.050
         INT  0.195E+18            14102.284     88.451    118.139
         TR   0.784E+28             1481.254      4.968     43.856
         TOT                       15583.5380    93.4189   161.9945   677.7848

       T/K    H(0)-H(T)+PV         H(T)/Eh          T*S/Eh         G(T)/Eh
   ------------------------------------------------------------------------
    298.15    0.248339E-01    0.381592E+00    0.769688E-01    0.304623E+00
   ------------------------------------------------------------------------

         :::::::::::::::::::::::::::::::::::::::::::::::::::::
         ::                  THERMODYNAMIC                  ::
         :::::::::::::::::::::::::::::::::::::::::::::::::::::
         :: total free energy         -80.992479464714 Eh   ::
         ::.................................................::
         :: total energy              -81.297102925851 Eh   ::
         :: zero point energy           0.356758306004 Eh   ::
         :: G(RRHO) w/o ZPVE           -0.052134844868 Eh   ::
         :: G(RRHO) contrib.            0.304623461137 Eh   ::
         :::::::::::::::::::::::::::::::::::::::::::::::::::::

           -------------------------------------------------
          | TOTAL ENERGY              -81.297102925851 Eh   |
          | TOTAL ENTHALPY            -80.915510671324 Eh   |
          | TOTAL FREE ENERGY         -80.992479464714 Eh   |
          | GRADIENT NORM               0.000071912811 Eh/α |
          | HOMO-LUMO GAP               1.590228055993 eV   |
           -------------------------------------------------

 * finished run on 2025/09/05 at 02:06:25.777
