   * xtb version 6.7.1 (edcfbbe) compiled by 'albert@albert-system' on 2024-07-22

   ID    Z sym.   atoms
    1    6 C      1-5, 8-12, 14-19, 21-28, 30, 31
    2    7 N      6, 7, 13
    3    8 O      20, 29
    4    1 H      32-48

          program call               : xtb data2507/toluene/PXZ-OXD/PXZ-OXD_toluene_T1_crest.xyz --gfn 2 --uhf 2 --gbsa toluene --ohess vtight --parallel 40 --molden --ceasefiles --namespace data2507/toluene/PXZ-OXD/PXZ-OXD_toluene_T1_finalOpt
      * Solvation model:               GBSA
        Solvent                        toluene
        Solvent mass                       9.2140E+01 g/mol
          :  Hamiltonian                  GFN2-xTB          :
 * total energy  :   -81.2165592 Eh     change       -0.6808420E-09 Eh
 * total energy  :   -81.2166577 Eh     change       -0.9844634E-04 Eh
 * total energy  :   -81.2167039 Eh     change       -0.4623302E-04 Eh
 * total energy  :   -81.2167079 Eh     change       -0.4030789E-05 Eh
 * total energy  :   -81.2167106 Eh     change       -0.2703828E-05 Eh
 * total energy  :   -81.2167123 Eh     change       -0.1697623E-05 Eh
 * total energy  :   -81.2167160 Eh     change       -0.3728130E-05 Eh
 * total energy  :   -81.2167188 Eh     change       -0.2793100E-05 Eh
 * total energy  :   -81.2167207 Eh     change       -0.1907920E-05 Eh
 * total energy  :   -81.2167222 Eh     change       -0.1480393E-05 Eh
 * total energy  :   -81.2167254 Eh     change       -0.4572843E-06 Eh
 * total energy  :   -81.2167257 Eh     change       -0.3453960E-06 Eh
 * total energy  :   -81.2167259 Eh     change       -0.2255897E-06 Eh
 * total energy  :   -81.2167262 Eh     change       -0.2140618E-06 Eh
 * total energy  :   -81.2167264 Eh     change       -0.2374544E-06 Eh
 * total energy  :   -81.2167266 Eh     change       -0.1876672E-06 Eh
 * total energy  :   -81.2167267 Eh     change       -0.1239905E-06 Eh
 * total energy  :   -81.2167269 Eh     change       -0.1451626E-06 Eh
 * total energy  :   -81.2167269 Eh     change       -0.4181828E-08 Eh
   *** GEOMETRY OPTIMIZATION CONVERGED AFTER 22 ITERATIONS ***

 final structure:
================
48
 xtb: 6.7.1 (edcfbbe)
C            8.46363474762152        0.83643164848556        1.10238495034228
C            8.38932011826932       -0.04615341416475        0.02818480611961
C            7.16905865059363       -0.44288466100675       -0.46647658830838
C            5.98041342866714        0.04278868766673        0.11201971130897
C            4.72343557569898       -0.37176675329031       -0.39597154448286
N            4.50858468099443       -1.21055705065895       -1.39860556976535
N            3.21690527477247       -1.34018961348076       -1.56697296514148
C            2.60075555318872       -0.57198812946164       -0.65625519448986
C            1.22605574414579       -0.41151941733987       -0.48798930069144
C            0.31185150546816       -1.11627250917000       -1.32709025311313
C           -1.03225836234497       -0.98323015485452       -1.15730164527622
C           -1.54920630478538       -0.11683438274838       -0.16743385311635
N           -2.93671745784694        0.02566670744307       -0.00733432872568
C           -3.72974280836759       -1.07738828654781        0.27409501333953
C           -3.19021352773686       -2.34841472943852        0.49493626643604
C           -4.01298939980085       -3.42360204259953        0.76382392571076
C           -5.39042538713480       -3.26051589179984        0.83480716169013
C           -5.94294026392913       -2.00398722474139        0.66555345063121
C           -5.12423399887404       -0.91597552892842        0.39818662551538
O           -5.72186702460594        0.30203827286273        0.29169797382347
C           -4.93404246112921        1.38321967359038        0.04257119983375
C           -5.56244231016301        2.61621937909216       -0.06021842067286
C           -4.82360260168538        3.74671434138237       -0.35820613221497
C           -3.45740271184186        3.63817699224617       -0.58276811285630
C           -2.82253908328762        2.41671906571095       -0.48057617397603
C           -3.54042200526285        1.26825679747342       -0.13276813532632
C           -0.65698623997362        0.59976195499448        0.65807983442978
C            0.69001863729086        0.44894149554240        0.51586963496965
O            3.53471389245216        0.08405649571092        0.12926129490668
C            6.06584951648765        0.93606641039345        1.19667672937082
C            7.29563470093949        1.32170635077726        1.67988826128273
H            9.42504845297714        1.14396329065069        1.48547636584787
H            9.29787054836817       -0.42231414152654       -0.41978760633075
H            7.09057550645521       -1.12651141543404       -1.29759306162999
H            0.72380292215912       -1.74611033614351       -2.09893168944852
H           -1.72046766034147       -1.50379256413674       -1.80731404514478
H           -2.12114549936843       -2.48069120341761        0.46313584670700
H           -3.57419272382456       -4.39524216296364        0.92731527088369
H           -6.02953126645470       -4.10407649816426        1.04048010057228
H           -7.00500025047442       -1.83661282807906        0.74483967875204
H           -6.62933932846054        2.65961520824252        0.08849191411867
H           -5.31440404491995        4.70362432418152       -0.43441349624146
H           -2.88195592538321        4.51095907604608       -0.84848460720041
H           -1.76648026056250        2.33807984598784       -0.68038543889338
H           -1.05642284628147        1.23484750563243        1.43568183926567
H            1.37596137445526        0.96859546132596        1.16752120738420
H            5.15430457923419        1.30940759010903        1.64069028296627
H            7.35310220450168        2.00719254414924        2.51362051823763

          :  Hamiltonian                  GFN2-xTB          :
         :: gradient norm              0.000040893501 Eh/a0 ::
         :: HOMO-LUMO gap              0.301654190740 eV    ::
         :: SCC energy               -82.542030125067 Eh    ::
         :: -> dispersion             -0.059817937671 Eh    ::
         :: -> Gsolv                  -0.042899755939 Eh    ::
         :: repulsion energy           1.325303267846 Eh    ::

    * Orbital Energies and Occupations

         #    Occupation            Energy/Eh            Energy/eV
      -------------------------------------------------------------
         1        2.0000           -0.7634862             -20.7755
       ...           ...                  ...                  ...
        63        2.0000           -0.4359522             -11.8629
        64        2.0000           -0.4307378             -11.7210
        65        2.0000           -0.4277891             -11.6407
        66        2.0000           -0.4202553             -11.4357
        67        2.0000           -0.4148865             -11.2896
        68        2.0000           -0.4145641             -11.2809
        69        2.0000           -0.4072818             -11.0827
        70        2.0000           -0.4066235             -11.0648
        71        2.0000           -0.4041368             -10.9971
        72        2.0000           -0.3760225             -10.2321
        73        1.9736           -0.3691304             -10.0445
        74        1.0264           -0.3622770              -9.8581
        75        0.9971           -0.2766308              -7.5275 (HOMO)
        76        0.0029           -0.2655449              -7.2258 (LUMO)
        77                         -0.2518934              -6.8544
        78                         -0.2490716              -6.7776
        79                         -0.2370248              -6.4498
        80                         -0.2256675              -6.1407
        81                         -0.2200833              -5.9888
        82                         -0.2194449              -5.9714
        83                         -0.1778315              -4.8390
        84                         -0.1663448              -4.5265
        85                         -0.1272925              -3.4638
        86                         -0.0999442              -2.7196
       ...                                ...                  ...
       141                          0.6820073              18.5584
      -------------------------------------------------------------
                  HL-Gap            0.0110859 Eh            0.3017 eV

     #   Z          covCN         q      C6AA      α(0)
     1   6 C        2.918    -0.037    28.914     8.818
     2   6 C        2.915    -0.030    28.737     8.791
     3   6 C        2.923    -0.037    28.920     8.819
     4   6 C        2.971    -0.018    28.465     8.751
     5   6 C        3.104     0.200    23.634     7.966
     6   7 N        2.025    -0.218    26.510     7.637
     7   7 N        2.030    -0.228    26.755     7.672
     8   6 C        3.098     0.190    23.843     8.002
     9   6 C        2.967    -0.025    28.633     8.777
    10   6 C        2.918    -0.041    29.024     8.835
    11   6 C        2.911    -0.039    28.973     8.826
    12   6 C        2.922     0.025    27.456     8.593
    13   7 N        2.750     0.006    21.154     6.831
    14   6 C        2.926     0.044    27.023     8.525
    15   6 C        2.920    -0.046    29.142     8.853
    16   6 C        2.917    -0.027    28.671     8.781
    17   6 C        2.918    -0.025    28.621     8.773
    18   6 C        2.916    -0.050    29.237     8.867
    19   6 C        2.887     0.134    25.066     8.208
    20   8 O        1.710    -0.212    17.529     5.653
    21   6 C        2.887     0.134    25.065     8.208
    22   6 C        2.916    -0.050    29.238     8.867
    23   6 C        2.918    -0.025    28.627     8.774
    24   6 C        2.917    -0.027    28.677     8.782
    25   6 C        2.920    -0.046    29.147     8.853
    26   6 C        2.926     0.044    27.021     8.525
    27   6 C        2.911    -0.040    28.990     8.829
    28   6 C        2.916    -0.040    29.006     8.832
    29   8 O        1.712    -0.295    18.895     5.869
    30   6 C        2.921    -0.036    28.899     8.816
    31   6 C        2.915    -0.031    28.776     8.796
    32   1 H        0.926     0.034     2.535     2.490
    33   1 H        0.926     0.035     2.520     2.483
    34   1 H        0.926     0.039     2.462     2.454
    35   1 H        0.926     0.045     2.384     2.415
    36   1 H        0.926     0.043     2.406     2.425
    37   1 H        0.926     0.063     2.165     2.301
    38   1 H        0.926     0.062     2.180     2.309
    39   1 H        0.926     0.065     2.145     2.290
    40   1 H        0.926     0.071     2.079     2.255
    41   1 H        0.926     0.070     2.080     2.255
    42   1 H        0.926     0.064     2.149     2.292
    43   1 H        0.926     0.061     2.189     2.314
    44   1 H        0.926     0.062     2.174     2.306
    45   1 H        0.926     0.040     2.442     2.444
    46   1 H        0.926     0.032     2.552     2.498
    47   1 H        0.926     0.028     2.610     2.526
    48   1 H        0.926     0.032     2.560     2.502

molecular dipole:
                 x           y           z       tot (Debye)
 q only:       -5.628       0.724       0.834
   full:       -5.571       1.053       1.227      14.745

 projected vibrational frequencies (cm⁻¹)
eigval :       -0.00    -0.00    -0.00    -0.00     0.00     0.00
eigval :       17.03    27.84    29.56    45.87    49.32    74.20
eigval :       75.03   106.96   111.73   127.09   134.23   142.89
eigval :      177.45   207.34   235.99   253.05   269.37   275.92
eigval :      316.58   331.90   368.42   368.53   383.05   392.37
eigval :      397.02   414.68   436.84   439.42   448.55   456.97
eigval :      478.25   494.21   500.21   533.40   538.09   571.13
eigval :      583.57   584.20   592.41   601.45   637.03   643.38
eigval :      644.99   669.74   672.87   676.79   678.56   708.74
eigval :      739.35   774.26   778.18   790.86   798.35   824.41
eigval :      848.19   856.66   867.70   868.92   871.72   886.70
eigval :      896.96   900.75   902.58   906.96   909.48   911.36
eigval :      911.94   913.28   916.64   921.22   922.49   961.90
eigval :      971.53  1027.03  1050.41  1068.94  1081.61  1082.97
eigval :     1113.01  1114.54  1117.66  1123.60  1152.76  1167.82
eigval :     1171.48  1176.01  1179.49  1192.00  1196.48  1209.40
eigval :     1213.17  1228.90  1233.85  1247.31  1251.13  1263.05
eigval :     1282.02  1284.67  1305.08  1319.91  1331.97  1337.18
eigval :     1343.09  1374.81  1383.14  1403.51  1405.82  1423.00
eigval :     1429.68  1434.40  1446.83  1456.02  1475.41  1518.52
eigval :     1527.13  1537.98  1542.37  1545.64  1559.73  1570.28
eigval :     1593.46  3066.29  3071.14  3075.02  3077.61  3080.24
eigval :     3088.47  3093.11  3099.73  3100.19  3100.25  3107.58
eigval :     3108.48  3110.31  3116.18  3116.54  3119.41  3119.88

   temp. (K)  partition function   enthalpy   heat capacity  entropy
                                   cal/mol     cal/K/mol   cal/K/mol   J/K/mol
 298.15  VIB  0.409E+10            13369.907     87.662     81.414
         ROT  0.278E+08              888.752      2.981     37.046
         INT  0.114E+18            14258.659     90.643    118.461
         TR   0.784E+28             1481.254      4.968     43.856
         TOT                       15739.9131    95.6110   162.3164   679.1318

       T/K    H(0)-H(T)+PV         H(T)/Eh          T*S/Eh         G(T)/Eh
   ------------------------------------------------------------------------
    298.15    0.250831E-01    0.378020E+00    0.771218E-01    0.300898E+00
   ------------------------------------------------------------------------

         :::::::::::::::::::::::::::::::::::::::::::::::::::::
         ::                  THERMODYNAMIC                  ::
         :::::::::::::::::::::::::::::::::::::::::::::::::::::
         :: total free energy         -80.915828761813 Eh   ::
         ::.................................................::
         :: total energy              -81.216726856310 Eh   ::
         :: zero point energy           0.352936706235 Eh   ::
         :: G(RRHO) w/o ZPVE           -0.052038611738 Eh   ::
         :: G(RRHO) contrib.            0.300898094497 Eh   ::
         :::::::::::::::::::::::::::::::::::::::::::::::::::::

           -------------------------------------------------
          | TOTAL ENERGY              -81.216726856310 Eh   |
          | TOTAL ENTHALPY            -80.838707002008 Eh   |
          | TOTAL FREE ENERGY         -80.915828761813 Eh   |
          | GRADIENT NORM               0.000040763079 Eh/α |
          | HOMO-LUMO GAP               0.301662914057 eV   |
           -------------------------------------------------

 * finished run on 2025/09/05 at 02:09:03.020
