   * xtb version 6.7.1 (edcfbbe) compiled by 'albert@albert-system' on 2024-07-22

   ID    Z sym.   atoms
    1    6 C      1-5, 8-12, 14-19, 21-28, 30, 31
    2    7 N      6, 7, 13
    3    8 O      20, 29
    4    1 H      32-48

          program call               : xtb data2507/toluene/PXZ-OXD/PXZ-OXD_toluene_S0_finalOpt.xtbopt.xyz --gfn 2 --uhf 2 --gbsa toluene --ohess vtight --parallel 40 --molden --ceasefiles --namespace data2507/toluene/PXZ-OXD/PXZ-OXD_toluene_T1_preOpt
      * Solvation model:               GBSA
        Solvent                        toluene
        Solvent mass                       9.2140E+01 g/mol
          :  Hamiltonian                  GFN2-xTB          :
 * total energy  :   -81.2094527 Eh     change        0.5206857E-10 Eh
 * total energy  :   -81.2147272 Eh     change       -0.5274545E-02 Eh
 * total energy  :   -81.2163989 Eh     change       -0.1671638E-02 Eh
 * total energy  :   -81.2165580 Eh     change       -0.1591667E-03 Eh
 * total energy  :   -81.2166399 Eh     change       -0.8182286E-04 Eh
 * total energy  :   -81.2166546 Eh     change       -0.1472044E-04 Eh
 * total energy  :   -81.2166768 Eh     change       -0.2226045E-04 Eh
 * total energy  :   -81.2166877 Eh     change       -0.1088897E-04 Eh
 * total energy  :   -81.2167071 Eh     change       -0.1936765E-04 Eh
 * total energy  :   -81.2167178 Eh     change       -0.1068883E-04 Eh
 * total energy  :   -81.2167261 Eh     change       -0.1735765E-05 Eh
 * total energy  :   -81.2167275 Eh     change       -0.1343709E-05 Eh
 * total energy  :   -81.2167284 Eh     change       -0.9545005E-06 Eh
 * total energy  :   -81.2167291 Eh     change       -0.6781656E-06 Eh
 * total energy  :   -81.2167298 Eh     change       -0.7405893E-06 Eh
 * total energy  :   -81.2167306 Eh     change       -0.7942296E-06 Eh
 * total energy  :   -81.2167314 Eh     change       -0.7380886E-06 Eh
 * total energy  :   -81.2167321 Eh     change       -0.7293537E-06 Eh
 * total energy  :   -81.2167321 Eh     change       -0.8449362E-08 Eh
   *** GEOMETRY OPTIMIZATION CONVERGED AFTER 22 ITERATIONS ***

 final structure:
================
48
 xtb: 6.7.1 (edcfbbe)
C            8.45141697724210        0.82797062056647        1.15163110969344
C            8.38533443978173       -0.03588582298104        0.06176342665894
C            7.16887710711673       -0.42840826078184       -0.44551683142948
C            5.97577527266758        0.04271408377803        0.13581859816516
C            4.72230894602547       -0.36587448107643       -0.38553404937519
N            4.51343953905507       -1.18729563541552       -1.40369536532729
N            3.22270376433410       -1.31633350169089       -1.58006673020970
C            2.60110175238289       -0.56494918252217       -0.65914900094485
C            1.22558503602535       -0.40834864494922       -0.49351512386275
C            0.31391080604593       -1.10144974737747       -1.34494217947502
C           -1.03083581965212       -0.97203830325003       -1.17631246089000
C           -1.55061991852615       -0.12035973115420       -0.17544459745504
N           -2.93830875623263        0.02089579925358       -0.01490526458519
C           -3.73336145134670       -1.08310845244347        0.25693324623091
C           -3.19767064395451       -2.35967312132491        0.45341383686082
C           -4.02269412430467       -3.43480483507554        0.71581326695549
C           -5.39843567249839       -3.26630174579796        0.80474027479355
C           -5.94667324523291       -2.00493681332404        0.65946753131549
C           -5.12582685340825       -0.91725236784260        0.39725243625989
O           -5.71954527011501        0.30437673164663        0.31220845617639
C           -4.93056113356042        1.38479227778135        0.06358801225173
C           -5.55551532705384        2.62058447087995       -0.02510291845803
C           -4.81524826649889        3.75069168884864       -0.32109357613272
C           -3.45111048996515        3.63935324754335       -0.55690996778450
C           -2.81963022001160        2.41515233911327       -0.46854222827229
C           -3.53893233206481        1.26638066073968       -0.12452048514260
C           -0.66084182931790        0.58615240282270        0.66137785389875
C            0.68650195974646        0.43794341907146        0.52068865096735
O            3.53042006430368        0.07885439762722        0.14192224949260
C            6.05290047023116        0.91648301239278        1.23691609497734
C            7.27893559341322        1.29809778771838        1.73262390064184
H            9.40990188920562        1.13260176910038        1.54426158054000
H            9.29737587144559       -0.40051565721526       -0.38865236689652
H            7.09689826960852       -1.09711001731605       -1.28930030476937
H            0.72806073101669       -1.71970054081034       -2.12494719242787
H           -1.71697355862431       -1.48368343996485       -1.83550317262507
H           -2.12968198184689       -2.49659659673930        0.40799377397545
H           -3.58688554587845       -4.41085824180248        0.85983584501329
H           -6.03922318665217       -4.10960615625388        1.00623059958264
H           -7.00691669662678       -1.83351384927057        0.75321886683574
H           -6.62098262460644        2.66650647029154        0.13288313506581
H           -5.30345026892314        4.70970451958167       -0.38690722454585
H           -2.87482207973532        4.51220859627323       -0.82057219904399
H           -1.76531659914935        2.33428606120635       -0.67665814458438
H           -1.06280912790241        1.21128246369439        1.44572237826483
H            1.37052604079162        0.94937151312129        1.18077984848997
H            5.13784667024603        1.27800199626833        1.68349419086256
H            7.32988038642594        1.96820201848213        2.57922230511936

          :  Hamiltonian                  GFN2-xTB          :
         :: gradient norm              0.000075025749 Eh/a0 ::
         :: HOMO-LUMO gap              0.300867407460 eV    ::
         :: SCC energy               -82.542020077259 Eh    ::
         :: -> dispersion             -0.059816286456 Eh    ::
         :: -> Gsolv                  -0.042914046089 Eh    ::
         :: repulsion energy           1.325287964547 Eh    ::

    * Orbital Energies and Occupations

         #    Occupation            Energy/Eh            Energy/eV
      -------------------------------------------------------------
         1        2.0000           -0.7635115             -20.7762
       ...           ...                  ...                  ...
        63        2.0000           -0.4359867             -11.8638
        64        2.0000           -0.4307312             -11.7208
        65        2.0000           -0.4277891             -11.6407
        66        2.0000           -0.4202493             -11.4356
        67        2.0000           -0.4148861             -11.2896
        68        2.0000           -0.4145800             -11.2813
        69        2.0000           -0.4072845             -11.0828
        70        2.0000           -0.4066221             -11.0648
        71        2.0000           -0.4041326             -10.9970
        72        2.0000           -0.3760088             -10.2317
        73        1.9733           -0.3691458             -10.0450
        74        1.0268           -0.3623163              -9.8591
        75        0.9970           -0.2766172              -7.5271 (HOMO)
        76        0.0030           -0.2655600              -7.2263 (LUMO)
        77                         -0.2519069              -6.8547
        78                         -0.2490689              -6.7775
        79                         -0.2370422              -6.4502
        80                         -0.2256682              -6.1407
        81                         -0.2201010              -5.9893
        82                         -0.2194416              -5.9713
        83                         -0.1778428              -4.8393
        84                         -0.1663434              -4.5264
        85                         -0.1272935              -3.4638
        86                         -0.0999275              -2.7192
       ...                                ...                  ...
       141                          0.6820533              18.5596
      -------------------------------------------------------------
                  HL-Gap            0.0110573 Eh            0.3009 eV

     #   Z          covCN         q      C6AA      α(0)
     1   6 C        2.918    -0.037    28.914     8.818
     2   6 C        2.915    -0.030    28.737     8.791
     3   6 C        2.922    -0.037    28.920     8.819
     4   6 C        2.971    -0.018    28.465     8.751
     5   6 C        3.104     0.200    23.635     7.966
     6   7 N        2.025    -0.218    26.510     7.637
     7   7 N        2.030    -0.228    26.754     7.672
     8   6 C        3.098     0.190    23.843     8.002
     9   6 C        2.967    -0.025    28.634     8.777
    10   6 C        2.918    -0.041    29.024     8.835
    11   6 C        2.911    -0.039    28.973     8.826
    12   6 C        2.922     0.025    27.456     8.593
    13   7 N        2.750     0.006    21.155     6.831
    14   6 C        2.926     0.044    27.021     8.525
    15   6 C        2.920    -0.046    29.144     8.853
    16   6 C        2.917    -0.027    28.670     8.780
    17   6 C        2.918    -0.025    28.621     8.773
    18   6 C        2.916    -0.050    29.236     8.867
    19   6 C        2.887     0.134    25.066     8.208
    20   8 O        1.710    -0.212    17.529     5.653
    21   6 C        2.887     0.134    25.066     8.208
    22   6 C        2.916    -0.050    29.238     8.867
    23   6 C        2.919    -0.025    28.627     8.774
    24   6 C        2.917    -0.027    28.677     8.781
    25   6 C        2.920    -0.046    29.145     8.853
    26   6 C        2.926     0.044    27.022     8.525
    27   6 C        2.911    -0.040    28.989     8.829
    28   6 C        2.916    -0.040    29.005     8.832
    29   8 O        1.712    -0.295    18.895     5.869
    30   6 C        2.921    -0.036    28.899     8.816
    31   6 C        2.915    -0.031    28.776     8.796
    32   1 H        0.926     0.034     2.535     2.490
    33   1 H        0.926     0.035     2.520     2.483
    34   1 H        0.926     0.039     2.462     2.454
    35   1 H        0.926     0.045     2.385     2.415
    36   1 H        0.926     0.043     2.404     2.425
    37   1 H        0.926     0.063     2.163     2.300
    38   1 H        0.926     0.062     2.180     2.309
    39   1 H        0.926     0.065     2.145     2.290
    40   1 H        0.926     0.071     2.079     2.255
    41   1 H        0.926     0.070     2.080     2.255
    42   1 H        0.926     0.064     2.149     2.292
    43   1 H        0.926     0.061     2.189     2.314
    44   1 H        0.926     0.062     2.175     2.306
    45   1 H        0.926     0.040     2.445     2.445
    46   1 H        0.926     0.032     2.552     2.498
    47   1 H        0.926     0.028     2.610     2.526
    48   1 H        0.926     0.032     2.560     2.502

molecular dipole:
                 x           y           z       tot (Debye)
 q only:       -5.635       0.707       0.830
   full:       -5.580       1.031       1.229      14.756

 projected vibrational frequencies (cm⁻¹)
eigval :       -0.00    -0.00     0.00     0.00     0.00     0.00
eigval :       16.81    25.36    31.22    44.38    49.38    73.49
eigval :       74.80   106.70   110.17   126.51   134.17   142.48
eigval :      177.51   207.32   236.23   252.75   269.36   275.79
eigval :      316.61   331.81   368.03   368.80   383.18   392.07
eigval :      396.77   414.70   436.17   439.29   448.44   456.74
eigval :      478.48   493.18   500.10   533.61   538.20   571.11
eigval :      583.53   584.20   592.37   601.52   636.96   643.31
eigval :      644.97   667.99   671.92   675.51   677.66   708.82
eigval :      738.18   774.06   778.16   790.67   798.31   824.44
eigval :      847.15   856.65   867.20   869.20   870.35   886.68
eigval :      896.54   900.94   902.59   906.81   909.66   909.99
eigval :      911.38   913.36   916.18   920.16   923.09   961.92
eigval :      971.57  1027.14  1050.58  1068.78  1081.56  1082.78
eigval :     1112.97  1114.56  1117.76  1123.66  1153.22  1168.01
eigval :     1171.51  1175.69  1179.92  1191.31  1196.09  1209.25
eigval :     1213.09  1228.76  1233.80  1247.29  1250.94  1262.87
eigval :     1282.12  1284.74  1305.09  1319.74  1332.04  1337.12
eigval :     1342.87  1375.03  1383.11  1403.57  1405.87  1422.84
eigval :     1429.60  1434.39  1446.47  1455.88  1475.34  1518.39
eigval :     1526.98  1537.85  1542.39  1545.39  1559.68  1570.25
eigval :     1593.35  3065.79  3071.00  3075.01  3077.99  3079.84
eigval :     3088.30  3093.27  3099.58  3100.04  3100.37  3107.67
eigval :     3108.38  3110.14  3116.12  3116.48  3119.22  3119.92

   temp. (K)  partition function   enthalpy   heat capacity  entropy
                                   cal/mol     cal/K/mol   cal/K/mol   J/K/mol
 298.15  VIB  0.456E+10            13381.641     87.649     81.539
         ROT  0.278E+08              888.752      2.981     37.047
         INT  0.127E+18            14270.393     90.630    118.586
         TR   0.784E+28             1481.254      4.968     43.856
         TOT                       15751.6474    95.5980   162.4421   679.6575

       T/K    H(0)-H(T)+PV         H(T)/Eh          T*S/Eh         G(T)/Eh
   ------------------------------------------------------------------------
    298.15    0.251018E-01    0.377982E+00    0.771815E-01    0.300801E+00
   ------------------------------------------------------------------------

         :::::::::::::::::::::::::::::::::::::::::::::::::::::
         ::                  THERMODYNAMIC                  ::
         :::::::::::::::::::::::::::::::::::::::::::::::::::::
         :: total free energy         -80.915931515275 Eh   ::
         ::.................................................::
         :: total energy              -81.216732110989 Eh   ::
         :: zero point energy           0.352880208225 Eh   ::
         :: G(RRHO) w/o ZPVE           -0.052079612510 Eh   ::
         :: G(RRHO) contrib.            0.300800595715 Eh   ::
         :::::::::::::::::::::::::::::::::::::::::::::::::::::

           -------------------------------------------------
          | TOTAL ENERGY              -81.216732110989 Eh   |
          | TOTAL ENTHALPY            -80.838750054814 Eh   |
          | TOTAL FREE ENERGY         -80.915931515275 Eh   |
          | GRADIENT NORM               0.000074778861 Eh/α |
          | HOMO-LUMO GAP               0.300883869012 eV   |
           -------------------------------------------------

 * finished run on 2025/09/05 at 02:07:31.422
