   * xtb version 6.7.1 (edcfbbe) compiled by 'albert@albert-system' on 2024-07-22

   ID    Z sym.   atoms
    1    6 C      1-4, 6-12, 14-19, 21-33, 35-40, 42-52
    2    8 O      5, 20, 41, 53
    3    7 N      13, 34
    4    1 H      54-85

          program call               : xtb data2507/toluene/5,6PXZ-PIDO/5,6PXZ-PIDO_toluene_S0_crest.xyz --gfn 2 --gbsa toluene --ohess vtight --parallel 40 --molden --ceasefiles --namespace data2507/toluene/5,6PXZ-PIDO/5,6PXZ-PIDO_toluene_S0_finalOpt
      * Solvation model:               GBSA
        Solvent                        toluene
        Solvent mass                       9.2140E+01 g/mol
          :  Hamiltonian                  GFN2-xTB          :
 * total energy  :  -139.1921382 Eh     change       -0.5362409E-08 Eh
 * total energy  :  -139.1922683 Eh     change       -0.1300841E-03 Eh
 * total energy  :  -139.1923379 Eh     change       -0.6964060E-04 Eh
 * total energy  :  -139.1923677 Eh     change       -0.2978219E-04 Eh
 * total energy  :  -139.1924125 Eh     change       -0.4479390E-04 Eh
 * total energy  :  -139.1924573 Eh     change       -0.4479271E-04 Eh
 * total energy  :  -139.1924836 Eh     change       -0.2628971E-04 Eh
 * total energy  :  -139.1925091 Eh     change       -0.2556363E-04 Eh
 * total energy  :  -139.1925271 Eh     change       -0.1800080E-04 Eh
 * total energy  :  -139.1925518 Eh     change       -0.2469217E-04 Eh
 * total energy  :  -139.1927940 Eh     change       -0.5351298E-06 Eh
 * total energy  :  -139.1927945 Eh     change       -0.5248289E-06 Eh
 * total energy  :  -139.1927951 Eh     change       -0.5170276E-06 Eh
 * total energy  :  -139.1927956 Eh     change       -0.5045320E-06 Eh
 * total energy  :  -139.1927960 Eh     change       -0.4907008E-06 Eh
 * total energy  :  -139.1927965 Eh     change       -0.4712316E-06 Eh
 * total energy  :  -139.1927970 Eh     change       -0.4509410E-06 Eh
 * total energy  :  -139.1927974 Eh     change       -0.4309425E-06 Eh
 * total energy  :  -139.1927974 Eh     change       -0.3473161E-08 Eh
   *** GEOMETRY OPTIMIZATION CONVERGED AFTER 68 ITERATIONS ***

 final structure:
================
85
 xtb: 6.7.1 (edcfbbe)
C           -8.98106877100391        0.48938372867317       -1.13739350149911
C           -8.10663959932274       -0.00403924721611        0.02094034929394
C           -8.97650517924437       -0.49766921624360        1.18255095325940
C           -7.17324976742313       -1.11844995862616       -0.45550096159375
O           -7.52166472572328       -2.18496952964945       -0.90884598994387
C           -5.79218553449555       -0.64824040023313       -0.25870976840408
C           -4.60277835986880       -1.30698626364271       -0.52884817817499
C           -3.40739853119025       -0.65709772935992       -0.25139442486241
C           -2.08756241880423       -1.29789402277377       -0.44400238323443
C           -1.34016324917724       -1.64292311845967        0.67920902734759
C           -0.03139298284368       -2.05800261749684        0.55151643142509
C            0.56176988242913       -2.11600775292425       -0.70648948711197
N            1.94484543055779       -2.38534578474759       -0.82574765010009
C            2.81650690035266       -1.37456385139810       -1.24490280587222
C            2.36496183764786       -0.15305303621451       -1.72717100699949
C            3.25552019641933        0.82510370893542       -2.14319329391505
C            4.61555348000852        0.60324830595785       -2.08104549714947
C            5.08455113702275       -0.60239365419976       -1.58100620854621
C            4.20011986381077       -1.57786298924173       -1.16039150600487
O            4.74827577887228       -2.73094660242126       -0.65172519421019
C            3.87846743797049       -3.70155061715127       -0.21122513725883
C            4.43647531366709       -4.85405084977786        0.31003612815280
C            3.62349687986621       -5.89207138545397        0.74351394720218
C            2.25244113947965       -5.77299358471049        0.63481835469617
C            1.68859172869252       -4.61718943378309        0.11576022510595
C            2.48764025017326       -3.55606537278817       -0.29289418043908
C           -0.20994299918506       -1.86441491025326       -1.83619364105005
C           -1.52743988899243       -1.46210660146471       -1.70444142580674
C           -3.40657610561732        0.65289552788565        0.26860525094777
C           -2.08624586845334        1.29419021062284        0.45591741299177
C           -1.52202699163888        1.45924792945489        1.71443608362426
C           -0.20415463265041        1.86169401406182        1.84164782007810
C            0.56386973950553        2.11264401634246        0.70927435259917
N            1.94732669985443        2.38183858624494        0.82412063110539
C            2.48885502544779        3.55268008155844        0.29031191368264
C            1.68887646157444        4.61332699707353       -0.11775030046735
C            2.25163090642025        5.76928949076134       -0.63766369123419
C            3.62251055395438        5.88903018411357       -0.74778979697201
C            4.43643756308370        4.85146016133113       -0.31500672970635
C            3.87953675886222        3.69879460856274        0.20705283577158
O            4.75032884491520        2.72869251444873        0.64674527553084
C            4.20333353615188        1.57534080819352        1.15604658713536
C            5.08868646328924        0.60025708106509        1.57561154897137
C            4.62080016691485       -0.60560087399738        2.07618171340000
C            3.26094014997234       -0.82807718636311        2.13985434460874
C            2.36946520164863        0.14969119204339        1.72489047293224
C            2.81991305597037        1.37144827680898        1.24221235894195
C           -0.03339163762331        2.05391068125842       -0.54675166965809
C           -1.34255807701232        1.63864341315425       -0.66992251117649
C           -4.60103082745073        1.30186667353424        0.55214344483568
C           -5.79128813581164        0.64212361770838        0.28827970196611
C           -7.17167678702368        1.11079539573502        0.49329413579450
O           -7.51856660467526        2.17647803694760        0.94976473277027
H           -9.60827738036491       -0.32404829173284       -1.49455946394235
H           -9.61099958522092        1.30811856093046       -0.79760717190813
H           -8.36196310137239        0.84212941421677       -1.96080738617890
H           -9.60267764951716        0.31554280508566        1.54201851271545
H           -9.60738609202166       -1.31668661465556        0.84522078820366
H           -8.35416726197475       -0.85009544976809        2.00365903259039
H           -4.61042292352638       -2.30755954971651       -0.93437873313135
H           -1.78411362387969       -1.56033958659510        1.65982267522971
H            0.54897457646176       -2.31033236047893        1.42563247169939
H            1.30524042832671        0.03853598800344       -1.76604965717803
H            2.87711462958325        1.76528492049256       -2.51659371493917
H            5.31365077437677        1.35947645271967       -2.40432894070577
H            6.14117737497600       -0.80329535297158       -1.49953332444043
H            5.51182209132531       -4.92184993998260        0.36419217171485
H            4.06839464654826       -6.78614735462162        1.15132151834810
H            1.60797633872486       -6.57962250143340        0.94925758480020
H            0.61665304315777       -4.53953593677927        0.02221346817608
H            0.23454567641351       -1.95994611536323       -2.81568245018798
H           -2.11234365708298       -1.23885623944101       -2.58436246642866
H           -2.10403348579529        1.23643663687275        2.59638030471421
H            0.24357021827803        1.95770993227491        2.81961329200995
H            0.61707854158464        4.53523994198881       -0.02301489820408
H            1.60644859781892        6.57554604224390       -0.95158926364840
H            4.06655914091809        6.78326287234051       -1.15617656500182
H            5.51169661886989        4.91977565729378       -0.37026803610850
H            6.14513051642397        0.80163727418943        1.49296608589043
H            5.31959807694891       -1.36151672758696        2.39867616599681
H            2.88337470731991       -1.76844364182830        2.51364197805408
H            1.30987141478996       -0.04237508871330        1.76499081733590
H            0.54411011829989        2.30572217135002       -1.42290927415146
H           -1.78971933835060        1.55549697950615       -1.64902322570219
H           -4.60736162847178        2.30235833817417        0.95789520778640

          :  Hamiltonian                  GFN2-xTB          :
         :: gradient norm              0.000048804252 Eh/a0 ::
         :: HOMO-LUMO gap              0.751393023691 eV    ::
         :: SCC energy              -141.533519935157 Eh    ::
         :: -> dispersion             -0.138361633070 Eh    ::
         :: -> Gsolv                  -0.051647355126 Eh    ::
         :: repulsion energy           2.340722529271 Eh    ::

    * Orbital Energies and Occupations

         #    Occupation            Energy/Eh            Energy/eV
      -------------------------------------------------------------
         1        2.0000           -0.7294132             -19.8483
       ...           ...                  ...                  ...
       115        2.0000           -0.4193289             -11.4105
       116        2.0000           -0.4182026             -11.3799
       117        2.0000           -0.4181869             -11.3794
       118        2.0000           -0.4157855             -11.3141
       119        2.0000           -0.4146613             -11.2835
       120        2.0000           -0.4113908             -11.1945
       121        2.0000           -0.4095614             -11.1447
       122        2.0000           -0.4086021             -11.1186
       123        2.0000           -0.3986259             -10.8472
       124        2.0000           -0.3920360             -10.6678
       125        2.0000           -0.3898166             -10.6074
       126        2.0000           -0.3441960              -9.3661
       127        2.0000           -0.3440942              -9.3633 (HOMO)
       128        0.0000           -0.3164811              -8.6119 (LUMO)
       129                         -0.2853626              -7.7651
       130                         -0.2497034              -6.7948
       131                         -0.2450102              -6.6671
       132                         -0.2408945              -6.5551
       133                         -0.2402847              -6.5385
       134                         -0.2385205              -6.4905
       135                         -0.2366678              -6.4401
       136                         -0.2312850              -6.2936
       137                         -0.2295887              -6.2474
       138                         -0.2176738              -5.9232
       ...                                ...                  ...
       244                          0.7127256              19.3942
      -------------------------------------------------------------
                  HL-Gap            0.0276132 Eh            0.7514 eV

     #   Z          covCN         q      C6AA      α(0)
     1   6 C        3.758    -0.097    22.397     6.747
     2   6 C        3.924    -0.023    20.925     6.501
     3   6 C        3.758    -0.097    22.397     6.747
     4   6 C        2.856     0.231    23.157     7.887
     5   8 O        0.856    -0.378    21.254     6.181
     6   6 C        3.012    -0.020    28.482     8.754
     7   6 C        2.913    -0.016    28.399     8.739
     8   6 C        2.986     0.024    27.451     8.594
     9   6 C        2.979     0.011    27.759     8.642
    10   6 C        2.926    -0.031    28.776     8.797
    11   6 C        2.921    -0.040    28.996     8.830
    12   6 C        2.921     0.064    26.557     8.451
    13   7 N        2.750    -0.075    22.699     7.076
    14   6 C        2.923     0.043    27.040     8.527
    15   6 C        2.925    -0.064    29.605     8.923
    16   6 C        2.919    -0.039    28.976     8.827
    17   6 C        2.919    -0.041    29.007     8.832
    18   6 C        2.920    -0.058    29.449     8.899
    19   6 C        2.884     0.123    25.294     8.245
    20   8 O        1.708    -0.272    18.504     5.808
    21   6 C        2.883     0.123    25.304     8.247
    22   6 C        2.919    -0.058    29.442     8.898
    23   6 C        2.919    -0.042    29.031     8.836
    24   6 C        2.919    -0.040    28.985     8.829
    25   6 C        2.924    -0.060    29.500     8.907
    26   6 C        2.922     0.043    27.030     8.526
    27   6 C        2.921    -0.040    28.999     8.831
    28   6 C        2.922    -0.030    28.751     8.793
    29   6 C        2.986     0.024    27.451     8.594
    30   6 C        2.979     0.011    27.760     8.643
    31   6 C        2.922    -0.030    28.751     8.793
    32   6 C        2.921    -0.040    28.999     8.831
    33   6 C        2.921     0.064    26.557     8.451
    34   7 N        2.750    -0.075    22.698     7.076
    35   6 C        2.922     0.043    27.030     8.526
    36   6 C        2.924    -0.060    29.500     8.907
    37   6 C        2.919    -0.040    28.985     8.829
    38   6 C        2.919    -0.042    29.031     8.836
    39   6 C        2.919    -0.058    29.442     8.898
    40   6 C        2.883     0.123    25.304     8.247
    41   8 O        1.708    -0.272    18.505     5.808
    42   6 C        2.884     0.123    25.294     8.245
    43   6 C        2.920    -0.058    29.449     8.899
    44   6 C        2.919    -0.041    29.007     8.832
    45   6 C        2.919    -0.039    28.976     8.827
    46   6 C        2.925    -0.064    29.605     8.923
    47   6 C        2.923     0.043    27.040     8.527
    48   6 C        2.921    -0.040    28.996     8.830
    49   6 C        2.926    -0.031    28.776     8.797
    50   6 C        2.913    -0.016    28.400     8.739
    51   6 C        3.012    -0.020    28.482     8.754
    52   6 C        2.856     0.231    23.157     7.887
    53   8 O        0.856    -0.378    21.254     6.181
    54   1 H        0.925     0.061     2.185     2.311
    55   1 H        0.925     0.061     2.185     2.311
    56   1 H        0.925     0.038     2.473     2.459
    57   1 H        0.925     0.061     2.185     2.311
    58   1 H        0.925     0.061     2.185     2.311
    59   1 H        0.925     0.038     2.473     2.459
    60   1 H        0.926     0.067     2.124     2.279
    61   1 H        0.926     0.046     2.375     2.410
    62   1 H        0.926     0.049     2.337     2.391
    63   1 H        0.926     0.042     2.423     2.434
    64   1 H        0.926     0.033     2.545     2.495
    65   1 H        0.926     0.038     2.474     2.459
    66   1 H        0.926     0.046     2.371     2.408
    67   1 H        0.926     0.046     2.367     2.406
    68   1 H        0.926     0.041     2.433     2.439
    69   1 H        0.926     0.041     2.432     2.439
    70   1 H        0.926     0.041     2.439     2.442
    71   1 H        0.926     0.051     2.313     2.378
    72   1 H        0.926     0.048     2.339     2.392
    73   1 H        0.926     0.048     2.340     2.392
    74   1 H        0.926     0.050     2.314     2.379
    75   1 H        0.926     0.041     2.439     2.442
    76   1 H        0.926     0.041     2.432     2.439
    77   1 H        0.926     0.041     2.433     2.439
    78   1 H        0.926     0.046     2.367     2.406
    79   1 H        0.926     0.046     2.371     2.408
    80   1 H        0.926     0.038     2.473     2.459
    81   1 H        0.926     0.033     2.545     2.495
    82   1 H        0.926     0.042     2.424     2.435
    83   1 H        0.926     0.049     2.337     2.390
    84   1 H        0.926     0.046     2.375     2.410
    85   1 H        0.926     0.067     2.124     2.279

molecular dipole:
                 x           y           z       tot (Debye)
 q only:       -0.060       0.001      -0.004
   full:        0.029       0.001      -0.004       0.075

 projected vibrational frequencies (cm⁻¹)
eigval :       -0.00    -0.00    -0.00    -0.00     0.00     0.00
eigval :       18.07    19.68    24.31    24.74    25.66    29.17
eigval :       41.73    50.28    52.54    54.03    64.50    68.62
eigval :       72.65    85.58    99.56   108.64   109.38   121.89
eigval :      130.48   141.32   142.38   177.72   178.84   189.68
eigval :      195.64   197.18   199.61   214.82   224.55   237.35
eigval :      237.91   247.45   254.43   256.43   271.60   272.59
eigval :      278.46   281.15   288.07   325.02   342.70   363.75
eigval :      365.00   372.30   378.00   388.59   388.73   394.86
eigval :      399.69   416.02   424.60   427.86   430.94   431.76
eigval :      444.79   450.32   451.45   493.45   504.57   511.48
eigval :      512.01   520.99   524.74   525.86   531.39   537.04
eigval :      548.69   549.54   560.05   578.64   590.06   592.20
eigval :      602.53   602.58   614.56   614.64   643.80   658.70
eigval :      659.31   661.81   662.33   670.33   684.59   685.60
eigval :      700.23   706.40   716.69   717.57   727.19   739.19
eigval :      746.21   776.66   778.61   782.07   782.48   797.83
eigval :      801.92   821.60   823.25   853.46   853.67   859.95
eigval :      860.96   865.62   866.69   868.66   876.97   877.72
eigval :      880.14   893.53   894.22   895.69   898.46   898.78
eigval :      907.55   909.91   913.80   914.53   915.40   915.76
eigval :      918.39   918.68   920.60   927.56   928.22   935.64
eigval :      935.99   959.25   976.40  1005.11  1011.03  1024.91
eigval :     1029.71  1071.96  1088.09  1088.21  1094.68  1094.77
eigval :     1106.48  1106.57  1117.38  1119.05  1119.32  1127.72
eigval :     1130.43  1161.34  1168.73  1169.35  1175.17  1175.42
eigval :     1176.15  1181.22  1182.63  1188.66  1189.74  1194.33
eigval :     1200.33  1200.57  1208.70  1214.09  1219.79  1241.50
eigval :     1242.09  1242.71  1243.47  1259.94  1260.76  1263.34
eigval :     1264.17  1298.16  1303.24  1305.74  1305.79  1306.67
eigval :     1312.09  1320.95  1330.81  1334.85  1336.66  1354.82
eigval :     1355.71  1387.50  1397.17  1398.34  1404.07  1422.24
eigval :     1423.67  1424.03  1434.67  1442.97  1443.35  1474.49
eigval :     1480.71  1481.99  1482.57  1485.68  1486.11  1490.04
eigval :     1492.07  1504.59  1504.97  1553.94  1558.86  1559.88
eigval :     1560.62  1567.09  1567.19  1580.52  1580.61  1587.96
eigval :     1587.98  1593.28  1593.63  1604.07  1604.19  1719.09
eigval :     1742.93  3023.46  3025.81  3036.87  3037.46  3038.75
eigval :     3041.01  3078.84  3078.85  3081.83  3082.23  3086.19
eigval :     3086.22  3086.92  3087.04  3093.74  3093.83  3094.36
eigval :     3094.40  3094.71  3094.97  3095.58  3095.61  3101.24
eigval :     3101.37  3102.58  3102.72  3106.75  3107.63  3107.99
eigval :     3108.44  3117.33  3118.11

   temp. (K)  partition function   enthalpy   heat capacity  entropy
                                   cal/mol     cal/K/mol   cal/K/mol   J/K/mol
 298.15  VIB  0.529E+19            25251.396    159.456    155.326
         ROT  0.451E+08              888.752      2.981     38.005
         INT  0.239E+27            26140.149    162.437    193.331
         TR   0.175E+29             1481.254      4.968     45.450
         TOT                       27621.4025   167.4054   238.7806   999.0580

       T/K    H(0)-H(T)+PV         H(T)/Eh          T*S/Eh         G(T)/Eh
   ------------------------------------------------------------------------
    298.15    0.440175E-01    0.688141E+00    0.113452E+00    0.574689E+00
   ------------------------------------------------------------------------

         :::::::::::::::::::::::::::::::::::::::::::::::::::::
         ::                  THERMODYNAMIC                  ::
         :::::::::::::::::::::::::::::::::::::::::::::::::::::
         :: total free energy        -138.618108594578 Eh   ::
         ::.................................................::
         :: total energy             -139.192797402748 Eh   ::
         :: zero point energy           0.644123670197 Eh   ::
         :: G(RRHO) w/o ZPVE           -0.069434862027 Eh   ::
         :: G(RRHO) contrib.            0.574688808170 Eh   ::
         :::::::::::::::::::::::::::::::::::::::::::::::::::::

           -------------------------------------------------
          | TOTAL ENERGY             -139.192797402748 Eh   |
          | TOTAL ENTHALPY           -138.504656225765 Eh   |
          | TOTAL FREE ENERGY        -138.618108594578 Eh   |
          | GRADIENT NORM               0.000048803856 Eh/α |
          | HOMO-LUMO GAP               0.751392984192 eV   |
           -------------------------------------------------

 * finished run on 2025/09/04 at 00:44:55.966
