   * xtb version 6.7.1 (edcfbbe) compiled by 'albert@albert-system' on 2024-07-22

   ID    Z sym.   atoms
    1    6 C      1-4, 6-12, 14-19, 21-33, 35-40, 42-52
    2    8 O      5, 20, 41, 53
    3    7 N      13, 34
    4    1 H      54-85

          program call               : xtb data2507/toluene/5,6PXZ-PIDO/5,6PXZ-PIDO.xyz --gfn 2 --gbsa toluene --ohess vtight --parallel 40 --molden --ceasefiles --namespace data2507/toluene/5,6PXZ-PIDO/5,6PXZ-PIDO_toluene_S0_preOpt
      * Solvation model:               GBSA
        Solvent                        toluene
        Solvent mass                       9.2140E+01 g/mol
          :  Hamiltonian                  GFN2-xTB          :
 * total energy  :  -139.1726575 Eh     change       -0.6864411E-08 Eh
 * total energy  :  -139.1851949 Eh     change       -0.1253740E-01 Eh
 * total energy  :  -139.1893221 Eh     change       -0.4127225E-02 Eh
 * total energy  :  -139.1904188 Eh     change       -0.1096739E-02 Eh
 * total energy  :  -139.1911206 Eh     change       -0.7018010E-03 Eh
 * total energy  :  -139.1913907 Eh     change       -0.2700736E-03 Eh
 * total energy  :  -139.1915504 Eh     change       -0.1597059E-03 Eh
 * total energy  :  -139.1917149 Eh     change       -0.1645367E-03 Eh
 * total energy  :  -139.1919262 Eh     change       -0.2112410E-03 Eh
 * total energy  :  -139.1922109 Eh     change       -0.2846870E-03 Eh
 * total energy  :  -139.1945042 Eh     change       -0.8377649E-06 Eh
 * total energy  :  -139.1945051 Eh     change       -0.8998877E-06 Eh
 * total energy  :  -139.1945060 Eh     change       -0.8788816E-06 Eh
 * total energy  :  -139.1945068 Eh     change       -0.8188463E-06 Eh
 * total energy  :  -139.1945076 Eh     change       -0.7512217E-06 Eh
 * total energy  :  -139.1945082 Eh     change       -0.6861341E-06 Eh
 * total energy  :  -139.1945089 Eh     change       -0.6346350E-06 Eh
 * total energy  :  -139.1945095 Eh     change       -0.6090321E-06 Eh
 * total energy  :  -139.1945095 Eh     change       -0.5751986E-08 Eh
   *** GEOMETRY OPTIMIZATION CONVERGED AFTER 94 ITERATIONS ***

 final structure:
================
85
 xtb: 6.7.1 (edcfbbe)
C           -8.46095246110361        0.13360905491468       -1.25327350544977
C           -7.58777854715100        0.00169196710481       -0.00022997681537
C           -8.46113731338557       -0.12982926786842        1.25272457303967
C           -6.65390234767593       -1.20383130235151       -0.12727062362881
O           -7.00254540012500       -2.35662668641955       -0.24891326464284
C           -5.27440212073007       -0.69585711433981       -0.07468796388978
C           -4.08300563931483       -1.39462456436847       -0.14562656348400
C           -2.87546116930291       -0.70114982440898       -0.06762924313810
C           -1.61621956156731       -1.46372192592058       -0.11331195807700
C           -0.61302871500855       -1.25549672935981        0.83225444924961
C            0.57564734945137       -1.95278307501059        0.75871871640931
C            0.78511480708817       -2.87273880431347       -0.26440759342184
N            2.02080943841020       -3.55522517044988       -0.35994450609619
C            3.17535448090300       -2.86459448456937       -0.73084161212724
C            3.15842580676548       -1.51253859737591       -1.05026002711009
C            4.32198949506964       -0.85715379190959       -1.42421002975053
C            5.51797532350392       -1.54215928007948       -1.49010474278856
C            5.54825935492017       -2.89774557576492       -1.19282531018425
C            4.39080222626655       -3.55622034762673       -0.82272612452627
O            4.49325826775534       -4.90495667259785       -0.56461644690685
C            3.33540314504144       -5.57670242462776       -0.24143053550751
C            3.44118419964200       -6.93560073709349       -0.01316340741590
C            2.32128891503363       -7.67564582466536        0.34110923742677
C            1.10208412664359       -7.04282493600885        0.47495916096627
C            0.99044985256263       -5.67955526337918        0.24526004230722
C            2.09742789642571       -4.92876889394510       -0.13039842179695
C           -0.22292379195342       -3.10931039560400       -1.19285333567723
C           -1.41448135037260       -2.41514698075643       -1.11123489120762
C           -2.87515651866080        0.70242704213938        0.06748222042276
C           -1.61558811587750        1.46444844759612        0.11327283142644
C           -1.41352072717333        2.41576850838237        1.11122847067086
C           -0.22167442428123        3.10942402768150        1.19295085831569
C            0.78632743946454        2.87243604830733        0.26457292180935
N            2.02231702130413        3.55437170317452        0.36019270927486
C            2.09960771528966        4.92786126635446        0.13055417714252
C            0.99295260571281        5.67920960875728       -0.24492930750397
C            1.10525312854163        7.04241481841721       -0.47468350242907
C            2.32480984930900        7.67460653786406       -0.34106674713553
C            3.44438505937372        6.93399134087174        0.01302788641250
C            3.33794008215996        5.57515297562805        0.24134542567430
O            4.49550854709154        4.90280816982072        0.56431857350962
C            4.39236092402427        3.55417653385267        0.82270174070643
C            5.54949831102401        2.89514937023205        1.19281836257214
C            5.51851972746170        1.53962481561293        1.49031002962166
C            4.32216870854906        0.85523843825367        1.42461215360866
C            3.15891993682538        1.51118240593362        1.05066554900755
C            3.17653962818290        2.86318103704624        0.73104174609462
C            0.57654925204155        1.95258014621427       -0.75857995052903
C           -0.61241671202282        1.25580235325433       -0.83222026464115
C           -4.08239572600566        1.39644146796033        0.14538949980937
C           -5.27409745229831        0.69820506798790        0.07437382204919
C           -6.65337213882174        1.20679435026067        0.12689689669594
O           -7.00150613332669        2.35974182407670        0.24856173965359
H           -9.09074259784673       -0.74717756341033       -1.35466678244112
H           -9.08851327596383        1.01791804213489       -1.17051558159627
H           -7.84180410137831        0.22579296524336       -2.14428008594450
H           -9.09053614819184        0.75124390127637        1.35405463538462
H           -9.08909089967991       -1.01385357239278        1.16990529891286
H           -7.84211775835028       -0.22229342682490        2.14379184895645
H           -4.09291974008324       -2.47011425163574       -0.23955087029203
H           -0.77256596946352       -0.55496637664891        1.63735536531852
H            1.35165778192381       -1.78842510394352        1.49119519195366
H            2.22793691637719       -0.96944021420366       -1.00579525091844
H            4.28529967665245        0.19499045424888       -1.65969390514785
H            6.42676552636826       -1.03592153006383       -1.77486570963245
H            6.46456112479705       -3.46469845513032       -1.24651722090755
H            4.41128145846292       -7.39711366064916       -0.11296430148116
H            2.41427473349740       -8.73591800040824        0.51633362333542
H            0.22535425637602       -7.60279626319476        0.76257125622563
H            0.03529850417303       -5.19282333078335        0.36497237318983
H           -0.06337784273612       -3.83027232023835       -1.98088244041289
H           -2.18377452181246       -2.58521887881790       -1.84979876487406
H           -2.18280107293896        2.58615250077622        1.84973434456081
H           -0.06188032314944        3.83029836840273        1.98100944347038
H            0.03752994051213        5.19296821718767       -0.36446715092527
H            0.22876360863814        7.60283316681424       -0.76215784338679
H            2.41831055528099        8.73482411700371       -0.51634490784605
H            4.41474224193819        7.39500169999565        0.11263218862848
H            6.46610644081975        3.46162341618841        1.24633633016756
H            6.42706325480437        1.03295306476054        1.77508697665661
H            4.28494179398574       -0.19684901161476        1.66026509822438
H            2.22813684052340        0.96857427948016        1.00636419918258
H            1.35255564998358        1.78790070064144       -1.49098872543437
H           -0.77219075988436        0.55534507732305       -1.63733757590995
H           -4.09183554935245        2.47193533159948        0.23931400498514

          :  Hamiltonian                  GFN2-xTB          :
         :: gradient norm              0.000064069204 Eh/a0 ::
         :: HOMO-LUMO gap              0.721565391911 eV    ::
         :: SCC energy              -141.533138322907 Eh    ::
         :: -> dispersion             -0.125234123030 Eh    ::
         :: -> Gsolv                  -0.056455082037 Eh    ::
         :: repulsion energy           2.338628835631 Eh    ::

    * Orbital Energies and Occupations

         #    Occupation            Energy/Eh            Energy/eV
      -------------------------------------------------------------
         1        2.0000           -0.7293579             -19.8468
       ...           ...                  ...                  ...
       115        2.0000           -0.4206022             -11.4452
       116        2.0000           -0.4173341             -11.3562
       117        2.0000           -0.4167887             -11.3414
       118        2.0000           -0.4148310             -11.2881
       119        2.0000           -0.4133673             -11.2483
       120        2.0000           -0.4127233             -11.2308
       121        2.0000           -0.4096022             -11.1458
       122        2.0000           -0.4049899             -11.0203
       123        2.0000           -0.3982342             -10.8365
       124        2.0000           -0.3918339             -10.6623
       125        2.0000           -0.3898446             -10.6082
       126        2.0000           -0.3440467              -9.3620
       127        2.0000           -0.3431499              -9.3376 (HOMO)
       128        0.0000           -0.3166329              -8.6160 (LUMO)
       129                         -0.2876655              -7.8278
       130                         -0.2569129              -6.9910
       131                         -0.2446962              -6.6585
       132                         -0.2424140              -6.5964
       133                         -0.2391967              -6.5089
       134                         -0.2384782              -6.4893
       135                         -0.2369973              -6.4490
       136                         -0.2304498              -6.2709
       137                         -0.2296269              -6.2485
       138                         -0.2164805              -5.8907
       ...                                ...                  ...
       244                          0.7175698              19.5261
      -------------------------------------------------------------
                  HL-Gap            0.0265170 Eh            0.7216 eV

     #   Z          covCN         q      C6AA      α(0)
     1   6 C        3.758    -0.096    22.391     6.746
     2   6 C        3.925    -0.023    20.926     6.501
     3   6 C        3.758    -0.096    22.391     6.746
     4   6 C        2.856     0.231    23.168     7.889
     5   8 O        0.856    -0.381    21.296     6.187
     6   6 C        3.011    -0.021    28.508     8.758
     7   6 C        2.918    -0.017    28.439     8.745
     8   6 C        2.979     0.023    27.478     8.599
     9   6 C        2.977     0.014    27.695     8.632
    10   6 C        2.923    -0.029    28.715     8.788
    11   6 C        2.920    -0.038    28.952     8.824
    12   6 C        2.921     0.067    26.509     8.443
    13   7 N        2.751    -0.074    22.676     7.073
    14   6 C        2.923     0.043    27.042     8.528
    15   6 C        2.924    -0.061    29.506     8.908
    16   6 C        2.919    -0.037    28.918     8.818
    17   6 C        2.919    -0.041    29.026     8.835
    18   6 C        2.919    -0.058    29.443     8.898
    19   6 C        2.881     0.122    25.323     8.250
    20   8 O        1.708    -0.275    18.565     5.818
    21   6 C        2.881     0.122    25.327     8.250
    22   6 C        2.919    -0.058    29.453     8.900
    23   6 C        2.919    -0.042    29.044     8.838
    24   6 C        2.919    -0.039    28.980     8.828
    25   6 C        2.923    -0.062    29.532     8.912
    26   6 C        2.922     0.043    27.040     8.527
    27   6 C        2.920    -0.038    28.944     8.822
    28   6 C        2.924    -0.030    28.758     8.794
    29   6 C        2.979     0.023    27.478     8.599
    30   6 C        2.977     0.014    27.695     8.632
    31   6 C        2.924    -0.030    28.758     8.794
    32   6 C        2.920    -0.038    28.944     8.822
    33   6 C        2.921     0.067    26.509     8.443
    34   7 N        2.751    -0.074    22.676     7.073
    35   6 C        2.922     0.043    27.040     8.527
    36   6 C        2.923    -0.062    29.532     8.912
    37   6 C        2.919    -0.039    28.980     8.828
    38   6 C        2.919    -0.042    29.044     8.838
    39   6 C        2.919    -0.058    29.453     8.900
    40   6 C        2.881     0.122    25.327     8.250
    41   8 O        1.708    -0.275    18.565     5.818
    42   6 C        2.881     0.122    25.323     8.250
    43   6 C        2.919    -0.058    29.443     8.898
    44   6 C        2.919    -0.041    29.026     8.835
    45   6 C        2.919    -0.037    28.918     8.818
    46   6 C        2.924    -0.061    29.506     8.908
    47   6 C        2.923     0.043    27.042     8.528
    48   6 C        2.920    -0.038    28.952     8.824
    49   6 C        2.923    -0.029    28.715     8.788
    50   6 C        2.918    -0.017    28.439     8.745
    51   6 C        3.011    -0.021    28.508     8.758
    52   6 C        2.856     0.231    23.168     7.889
    53   8 O        0.856    -0.381    21.296     6.187
    54   1 H        0.925     0.061     2.190     2.314
    55   1 H        0.925     0.061     2.191     2.315
    56   1 H        0.925     0.038     2.477     2.461
    57   1 H        0.925     0.061     2.190     2.314
    58   1 H        0.925     0.061     2.191     2.315
    59   1 H        0.925     0.038     2.477     2.461
    60   1 H        0.926     0.066     2.125     2.280
    61   1 H        0.926     0.047     2.358     2.401
    62   1 H        0.926     0.048     2.345     2.395
    63   1 H        0.926     0.040     2.454     2.450
    64   1 H        0.926     0.036     2.499     2.472
    65   1 H        0.926     0.040     2.454     2.450
    66   1 H        0.926     0.046     2.372     2.408
    67   1 H        0.926     0.045     2.377     2.411
    68   1 H        0.926     0.040     2.450     2.448
    69   1 H        0.926     0.040     2.449     2.447
    70   1 H        0.926     0.039     2.458     2.452
    71   1 H        0.926     0.049     2.335     2.390
    72   1 H        0.926     0.050     2.319     2.381
    73   1 H        0.926     0.050     2.319     2.381
    74   1 H        0.926     0.049     2.335     2.390
    75   1 H        0.926     0.039     2.458     2.452
    76   1 H        0.926     0.040     2.449     2.447
    77   1 H        0.926     0.040     2.450     2.448
    78   1 H        0.926     0.045     2.377     2.411
    79   1 H        0.926     0.046     2.372     2.408
    80   1 H        0.926     0.040     2.454     2.450
    81   1 H        0.926     0.036     2.499     2.472
    82   1 H        0.926     0.040     2.454     2.450
    83   1 H        0.926     0.048     2.345     2.395
    84   1 H        0.926     0.047     2.358     2.401
    85   1 H        0.926     0.066     2.125     2.280

molecular dipole:
                 x           y           z       tot (Debye)
 q only:        0.163       0.000       0.000
   full:        0.191      -0.000       0.000       0.484

 projected vibrational frequencies (cm⁻¹)
eigval :       -0.00    -0.00    -0.00    -0.00     0.00     0.00
eigval :        1.16     9.16    11.22    20.34    22.35    26.17
eigval :       30.53    39.65    43.60    46.33    55.52    63.56
eigval :       64.69    70.28    78.18   109.70   115.45   116.26
eigval :      123.23   135.96   140.30   175.19   175.53   181.52
eigval :      187.29   191.89   198.10   201.28   226.52   237.34
eigval :      238.21   250.90   251.72   253.43   272.53   273.80
eigval :      275.07   282.64   287.99   324.73   346.24   361.28
eigval :      365.73   380.14   380.91   384.74   386.81   394.24
eigval :      398.30   414.92   422.24   427.05   428.55   432.86
eigval :      441.38   444.59   450.59   493.66   504.15   509.72
eigval :      510.42   517.12   522.06   522.50   531.34   532.24
eigval :      548.77   556.21   558.84   577.31   588.87   592.31
eigval :      602.50   604.57   613.48   614.18   644.01   659.52
eigval :      659.78   661.44   661.52   668.52   680.50   686.61
eigval :      700.91   703.34   718.86   720.17   728.42   735.00
eigval :      744.13   775.38   776.16   778.39   778.59   795.91
eigval :      800.26   820.34   821.25   851.35   851.76   858.82
eigval :      862.43   862.48   864.83   869.63   873.83   875.34
eigval :      881.80   892.45   894.55   895.32   896.83   896.96
eigval :      909.57   911.23   912.99   913.10   914.84   914.90
eigval :      916.40   917.03   922.21   924.55   925.87   933.16
eigval :      933.52   960.30   975.29  1005.97  1009.52  1024.47
eigval :     1030.40  1073.30  1088.13  1088.17  1090.28  1090.47
eigval :     1105.11  1105.47  1116.38  1117.52  1118.38  1130.83
eigval :     1132.08  1160.80  1169.85  1170.21  1174.55  1174.57
eigval :     1178.91  1179.99  1182.11  1186.82  1189.72  1195.12
eigval :     1195.25  1205.10  1209.87  1216.59  1219.97  1240.86
eigval :     1240.89  1243.33  1248.85  1258.38  1258.62  1262.23
eigval :     1263.07  1295.63  1304.05  1304.70  1305.59  1308.95
eigval :     1312.28  1315.37  1335.46  1335.92  1344.50  1354.65
eigval :     1356.49  1387.30  1392.21  1401.44  1404.13  1417.03
eigval :     1422.75  1423.59  1437.42  1442.09  1442.50  1472.55
eigval :     1480.51  1480.82  1482.54  1483.55  1484.28  1487.53
eigval :     1492.21  1504.45  1505.01  1550.35  1551.39  1557.37
eigval :     1561.06  1565.77  1565.83  1579.60  1579.68  1585.38
eigval :     1586.44  1589.92  1591.50  1602.95  1603.08  1717.41
eigval :     1739.14  3023.29  3025.75  3036.15  3036.82  3037.78
eigval :     3039.98  3082.25  3082.39  3085.93  3085.94  3087.46
eigval :     3087.89  3089.32  3089.79  3093.01  3093.41  3094.84
eigval :     3094.84  3095.12  3095.53  3096.09  3096.77  3099.86
eigval :     3100.20  3102.83  3102.84  3104.07  3104.89  3107.68
eigval :     3107.70  3109.62  3110.89

   temp. (K)  partition function   enthalpy   heat capacity  entropy
                                   cal/mol     cal/K/mol   cal/K/mol   J/K/mol
 298.15  VIB  0.280E+22            25526.039    158.342    161.474
         ROT  0.603E+08              888.752      2.981     38.583
         INT  0.169E+30            26414.791    161.322    200.057
         TR   0.175E+29             1481.254      4.968     45.450
         TOT                       27896.0451   166.2906   245.5061  1027.1977

       T/K    H(0)-H(T)+PV         H(T)/Eh          T*S/Eh         G(T)/Eh
   ------------------------------------------------------------------------
    298.15    0.444552E-01    0.687809E+00    0.116648E+00    0.571162E+00
   ------------------------------------------------------------------------

         :::::::::::::::::::::::::::::::::::::::::::::::::::::
         ::                  THERMODYNAMIC                  ::
         :::::::::::::::::::::::::::::::::::::::::::::::::::::
         :: total free energy        -138.623347908255 Eh   ::
         ::.................................................::
         :: total energy             -139.194509487698 Eh   ::
         :: zero point energy           0.643354294916 Eh   ::
         :: G(RRHO) w/o ZPVE           -0.072192715474 Eh   ::
         :: G(RRHO) contrib.            0.571161579443 Eh   ::
         :::::::::::::::::::::::::::::::::::::::::::::::::::::

           -------------------------------------------------
          | TOTAL ENERGY             -139.194509487698 Eh   |
          | TOTAL ENTHALPY           -138.506700015174 Eh   |
          | TOTAL FREE ENERGY        -138.623347908255 Eh   |
          | GRADIENT NORM               0.000064071100 Eh/α |
          | HOMO-LUMO GAP               0.721565197640 eV   |
           -------------------------------------------------

 * finished run on 2025/09/04 at 00:39:31.154
