   * xtb version 6.7.1 (edcfbbe) compiled by 'albert@albert-system' on 2024-07-22

   ID    Z sym.   atoms
    1    6 C      1-4, 6-12, 14-19, 21-33, 35-40, 42-52
    2    8 O      5, 20, 41, 53
    3    7 N      13, 34
    4    1 H      54-85

          program call               : xtb data2507/toluene/5,6PXZ-PIDO/5,6PXZ-PIDO_toluene_S0_finalOpt.xtbopt.xyz --gfn 2 --uhf 2 --gbsa toluene --ohess vtight --parallel 40 --molden --ceasefiles --namespace data2507/toluene/5,6PXZ-PIDO/5,6PXZ-PIDO_toluene_T1_preOpt
      * Solvation model:               GBSA
        Solvent                        toluene
        Solvent mass                       9.2140E+01 g/mol
          :  Hamiltonian                  GFN2-xTB          :
 * total energy  :  -139.1278104 Eh     change       -0.8225385E-08 Eh
 * total energy  :  -139.1337831 Eh     change       -0.5972650E-02 Eh
 * total energy  :  -139.1354678 Eh     change       -0.1684706E-02 Eh
 * total energy  :  -139.1355736 Eh     change       -0.1057993E-03 Eh
 * total energy  :  -139.1356693 Eh     change       -0.9574122E-04 Eh
 * total energy  :  -139.1357000 Eh     change       -0.3067414E-04 Eh
 * total energy  :  -139.1357585 Eh     change       -0.5855273E-04 Eh
 * total energy  :  -139.1358015 Eh     change       -0.4296670E-04 Eh
 * total energy  :  -139.1358445 Eh     change       -0.4304047E-04 Eh
 * total energy  :  -139.1358766 Eh     change       -0.3205645E-04 Eh
 * total energy  :  -139.1408504 Eh     change       -0.3410327E-06 Eh
 * total energy  :  -139.1408508 Eh     change       -0.3949149E-06 Eh
 * total energy  :  -139.1408513 Eh     change       -0.4481626E-06 Eh
 * total energy  :  -139.1408519 Eh     change       -0.5838419E-06 Eh
 * total energy  :  -139.1408525 Eh     change       -0.6054404E-06 Eh
 * total energy  :  -139.1408531 Eh     change       -0.6308065E-06 Eh
 * total energy  :  -139.1408537 Eh     change       -0.6096112E-06 Eh
 * total energy  :  -139.1408543 Eh     change       -0.5613370E-06 Eh
 * total energy  :  -139.1408543 Eh     change       -0.3016737E-08 Eh
   *** GEOMETRY OPTIMIZATION CONVERGED AFTER 221 ITERATIONS ***

 final structure:
================
85
 xtb: 6.7.1 (edcfbbe)
C           -8.56777426457571        0.55259825999070       -1.11972542691664
C           -7.69725018901991       -0.00551417075965        0.00633837791580
C           -8.56413841876376       -0.56502830707061        1.13461674478996
C           -6.75190249652459       -1.09493366820223       -0.53306033109383
O           -7.14543105312032       -2.14620988283013       -1.05639983607479
C           -5.41708589199949       -0.64626424512825       -0.31231672044397
C           -4.20635260981858       -1.26836497199384       -0.61143956340455
C           -3.00793484339218       -0.65888874027868       -0.29348306608001
C           -1.75855885153988       -1.38974553240650       -0.50820727171682
C           -0.76165159688058       -1.41979884767420        0.47329814117405
C            0.42011749737779       -2.09750068396968        0.26448468219130
C            0.63362174457311       -2.76953932372245       -0.93573673193772
N            1.86402988972144       -3.43858914111148       -1.16819527368376
C            3.02671950185576       -2.70985128798709       -1.37119628513544
C            3.04421066986219       -1.31607607966999       -1.35263464326727
C            4.22351680889619       -0.62561683964628       -1.56390686676544
C            5.40611525049936       -1.30793495726190       -1.80129024673737
C            5.40602614507946       -2.69192219170123       -1.84142972892192
C            4.22845622926675       -3.39249687906324       -1.63391018169791
O            4.28837889328187       -4.75595775747935       -1.70733304787996
C            3.13404270163712       -5.45953022923750       -1.50619259408789
C            3.20967173588384       -6.84122918881279       -1.57551937718809
C            2.07774734463355       -7.60930671023632       -1.36059053194608
C            0.87210293429672       -6.99252222329967       -1.06486011185604
C            0.78685641283408       -5.61413499091062       -0.99584074794434
C            1.91045073925975       -4.82297692356497       -1.22934923164161
C           -0.36054401724699       -2.77829599407521       -1.90944918690768
C           -1.54151183871442       -2.09939689462905       -1.69308473865301
C           -3.00787923028272        0.64734951514353        0.30777036695410
C           -1.75868591075436        1.37871728090138        0.52163648775427
C           -1.54236547590566        2.09169394467807        1.70468500149937
C           -0.36249396504495        2.77317940029073        1.91893775428514
C            0.63156517982750        2.76335769551899        0.94513350495746
N            1.86042633980784        3.43630702259156        1.17477980483630
C            1.90375166667416        4.82105476603898        1.22955047900627
C            0.77800522877502        5.60864582848614        0.99434589023588
C            0.86021348471729        6.98750030698803        1.05733100210181
C            2.06493966048100        7.60832124813291        1.34830315610187
C            3.19895847562521        6.84375216132723        1.56472833307559
C            3.12633179432444        5.46160417748557        1.50167777168898
O            4.28255572999338        4.76157596866777        1.70444242543778
C            4.22501947007832        3.39754567898774        1.64040135103977
C            5.40374057629979        2.70037438428885        1.85276138207405
C            5.40616768201681        1.31614171798735        1.82187027861062
C            4.22485631574240        0.63023455800786        1.58844533101851
C            3.04440452165524        1.31727372599802        1.37244297714398
C            3.02449318279532        2.71109186036529        1.38216906192873
C            0.41939566999199        2.08678749042306       -0.25276410623875
C           -0.76149488008345        1.40699464323416       -0.45967861503180
C           -4.20642621365025        1.25697402513726        0.62519837477436
C           -5.41709848429597        0.63510476206860        0.32547983762634
C           -6.75198623476479        1.08450827877486        0.54462795155755
O           -7.14552388609182        2.13659587685622        1.06629669836663
H           -9.19370653385275       -0.23866179083897       -1.52845136674374
H           -9.19921437427750        1.35222277726296       -0.73661901950054
H           -7.94292329638002        0.95218275125144       -1.91784048715012
H           -9.19152809560685        0.22481382511202        1.54384393798254
H           -9.19403459374636       -1.36675146664304        0.75334831761854
H           -7.93663738677402       -0.96215400991587        1.93188767768044
H           -4.22461656393567       -2.25605323326985       -1.05104910361890
H           -0.93234421501022       -0.92186232412582        1.41525343176029
H            1.17948516008846       -2.12163913028711        1.03188930143058
H            2.12609033076622       -0.78048437705031       -1.17450882449691
H            4.21791566041835        0.45225690509525       -1.54203394605833
H            6.32512313038561       -0.76770169722836       -1.96221325340390
H            6.30645691478558       -3.25189555124266       -2.03710953947391
H            4.16429127970365       -7.29183928703504       -1.79550140504927
H            2.14150717921698       -8.68419576154688       -1.41705257234975
H           -0.01042040364069       -7.58568206991652       -0.88294807016851
H           -0.15219488252256       -5.14120392301940       -0.75671724502455
H           -0.19588025132640       -3.30538538523318       -2.83772918555726
H           -2.30007997154776       -2.08917803160685       -2.46142735064348
H           -2.30078531489558        2.08260357537494        2.47318516401203
H           -0.19869030267208        3.30343446429465        2.84557289723316
H           -0.16037260847944        5.13258175750346        0.75883630940686
H           -0.02399823315336        7.57784662019697        0.87445899850382
H            2.12631226757405        8.68358870747455        1.39998428074533
H            4.15293691040596        7.29747907233957        1.78107296721467
H            6.30317505110443        3.26315860453633        2.04492230331631
H            6.32602304581788        0.77856219850627        1.98677748601130
H            4.22113233977043       -0.44776976141963        1.57363250584674
H            2.12721489189370        0.77904507953913        1.19752989395036
H            1.17891716616895        2.10921243554163       -1.02008692129703
H           -0.93140370875003        0.90626420448537       -1.40027716486274
H           -4.22480683046224        2.24474836668216        1.06460413110345

          :  Hamiltonian                  GFN2-xTB          :
         :: gradient norm              0.000047418090 Eh/a0 ::
         :: HOMO-LUMO gap              0.787311074081 eV    ::
         :: SCC energy              -141.465189096667 Eh    ::
         :: -> dispersion             -0.124474139756 Eh    ::
         :: -> Gsolv                  -0.078592899626 Eh    ::
         :: repulsion energy           2.324334830700 Eh    ::

    * Orbital Energies and Occupations

         #    Occupation            Energy/Eh            Energy/eV
      -------------------------------------------------------------
         1        2.0000           -0.7535891             -20.5062
       ...           ...                  ...                  ...
       116        2.0000           -0.4201278             -11.4323
       117        2.0000           -0.4198909             -11.4258
       118        2.0000           -0.4149396             -11.2911
       119        2.0000           -0.4119999             -11.2111
       120        2.0000           -0.4091126             -11.1325
       121        2.0000           -0.4077306             -11.0949
       122        2.0000           -0.3985771             -10.8458
       123        2.0000           -0.3827953             -10.4164
       124        2.0000           -0.3742692             -10.1844
       125        1.8679           -0.3620599              -9.8522
       126        1.7523           -0.3613266              -9.8322
       127        1.3797           -0.3598049              -9.7908
       128        1.0000           -0.2889561              -7.8629 (HOMO)
       129        0.0000           -0.2600229              -7.0756 (LUMO)
       130                         -0.2590460              -7.0490
       131                         -0.2577201              -7.0129
       132                         -0.2481859              -6.7535
       133                         -0.2468883              -6.7182
       134                         -0.2462264              -6.7002
       135                         -0.2401482              -6.5348
       136                         -0.2347486              -6.3878
       137                         -0.2326290              -6.3302
       138                         -0.2316003              -6.3022
       139                         -0.2266582              -6.1677
       ...                                ...                  ...
       244                          0.7391895              20.1144
      -------------------------------------------------------------
                  HL-Gap            0.0289332 Eh            0.7873 eV

     #   Z          covCN         q      C6AA      α(0)
     1   6 C        3.757    -0.085    22.182     6.715
     2   6 C        3.935    -0.021    20.891     6.495
     3   6 C        3.757    -0.085    22.181     6.715
     4   6 C        2.859     0.192    23.913     8.015
     5   8 O        0.856    -0.485    23.454     6.493
     6   6 C        3.015    -0.053    29.290     8.878
     7   6 C        2.915    -0.025    28.623     8.773
     8   6 C        2.975    -0.008    28.216     8.713
     9   6 C        2.976     0.018    27.614     8.620
    10   6 C        2.924    -0.032    28.803     8.801
    11   6 C        2.918    -0.040    28.991     8.830
    12   6 C        2.924     0.049    26.903     8.506
    13   7 N        2.752    -0.026    21.755     6.927
    14   6 C        2.925     0.045    26.997     8.521
    15   6 C        2.921    -0.052    29.294     8.876
    16   6 C        2.918    -0.029    28.736     8.790
    17   6 C        2.919    -0.030    28.752     8.793
    18   6 C        2.917    -0.051    29.273     8.872
    19   6 C        2.884     0.130    25.145     8.221
    20   8 O        1.709    -0.232    17.844     5.703
    21   6 C        2.884     0.130    25.153     8.222
    22   6 C        2.917    -0.052    29.287     8.874
    23   6 C        2.919    -0.030    28.749     8.793
    24   6 C        2.918    -0.030    28.747     8.792
    25   6 C        2.921    -0.051    29.264     8.871
    26   6 C        2.925     0.045    26.984     8.519
    27   6 C        2.918    -0.038    28.942     8.822
    28   6 C        2.924    -0.033    28.829     8.805
    29   6 C        2.975    -0.008    28.217     8.713
    30   6 C        2.976     0.017    27.615     8.620
    31   6 C        2.924    -0.033    28.829     8.805
    32   6 C        2.918    -0.038    28.943     8.822
    33   6 C        2.924     0.049    26.904     8.506
    34   7 N        2.752    -0.026    21.755     6.927
    35   6 C        2.925     0.045    26.984     8.519
    36   6 C        2.921    -0.051    29.264     8.871
    37   6 C        2.918    -0.030    28.747     8.792
    38   6 C        2.919    -0.030    28.749     8.793
    39   6 C        2.917    -0.052    29.287     8.874
    40   6 C        2.884     0.130    25.153     8.222
    41   8 O        1.709    -0.232    17.844     5.703
    42   6 C        2.884     0.130    25.145     8.221
    43   6 C        2.917    -0.051    29.274     8.872
    44   6 C        2.919    -0.030    28.752     8.793
    45   6 C        2.918    -0.029    28.735     8.790
    46   6 C        2.921    -0.052    29.294     8.876
    47   6 C        2.925     0.045    26.997     8.521
    48   6 C        2.918    -0.040    28.992     8.830
    49   6 C        2.924    -0.032    28.804     8.801
    50   6 C        2.915    -0.025    28.623     8.773
    51   6 C        3.015    -0.053    29.290     8.878
    52   6 C        2.859     0.192    23.913     8.015
    53   8 O        0.856    -0.485    23.453     6.493
    54   1 H        0.925     0.045     2.383     2.414
    55   1 H        0.925     0.045     2.384     2.415
    56   1 H        0.925     0.026     2.640     2.541
    57   1 H        0.925     0.045     2.383     2.414
    58   1 H        0.925     0.045     2.384     2.415
    59   1 H        0.925     0.026     2.640     2.541
    60   1 H        0.925     0.033     2.550     2.497
    61   1 H        0.926     0.043     2.410     2.428
    62   1 H        0.926     0.049     2.338     2.391
    63   1 H        0.926     0.056     2.244     2.343
    64   1 H        0.926     0.054     2.270     2.356
    65   1 H        0.926     0.058     2.221     2.330
    66   1 H        0.926     0.063     2.162     2.299
    67   1 H        0.926     0.063     2.162     2.299
    68   1 H        0.926     0.056     2.241     2.341
    69   1 H        0.926     0.054     2.272     2.357
    70   1 H        0.926     0.053     2.280     2.361
    71   1 H        0.926     0.045     2.377     2.411
    72   1 H        0.926     0.041     2.429     2.437
    73   1 H        0.926     0.041     2.429     2.437
    74   1 H        0.926     0.045     2.377     2.411
    75   1 H        0.926     0.053     2.280     2.361
    76   1 H        0.926     0.054     2.272     2.357
    77   1 H        0.926     0.056     2.241     2.341
    78   1 H        0.926     0.063     2.162     2.299
    79   1 H        0.926     0.063     2.162     2.300
    80   1 H        0.926     0.058     2.221     2.330
    81   1 H        0.926     0.054     2.269     2.356
    82   1 H        0.926     0.056     2.244     2.343
    83   1 H        0.926     0.049     2.338     2.391
    84   1 H        0.926     0.043     2.410     2.428
    85   1 H        0.925     0.033     2.550     2.497

molecular dipole:
                 x           y           z       tot (Debye)
 q only:       10.652       0.003       0.001
   full:       10.347       0.003       0.001      26.299

 projected vibrational frequencies (cm⁻¹)
eigval :       -0.00    -0.00    -0.00    -0.00     0.00     0.00
eigval :       -3.53     6.12    17.01    23.77    27.26    29.04
eigval :       39.06    42.96    50.62    51.35    59.04    67.44
eigval :       72.36    75.06    75.38   110.83   117.44   117.66
eigval :      132.74   138.62   143.19   179.14   179.46   186.93
eigval :      191.92   199.47   200.12   204.26   232.51   237.52
eigval :      238.19   245.41   246.14   261.00   270.36   274.82
eigval :      279.83   284.38   293.55   320.64   348.82   360.42
eigval :      369.75   379.41   385.28   387.73   389.21   394.67
eigval :      396.22   413.20   419.30   428.62   430.38   431.60
eigval :      439.06   458.27   463.15   486.39   489.57   499.53
eigval :      500.06   508.12   514.02   528.34   528.74   531.77
eigval :      546.64   552.14   553.43   573.22   586.55   589.94
eigval :      603.09   603.36   611.26   613.51   641.20   652.38
eigval :      666.46   667.04   671.42   671.85   672.34   673.74
eigval :      679.99   687.77   694.80   695.31   705.26   717.94
eigval :      732.50   774.87   775.77   778.40   778.65   797.03
eigval :      801.30   813.75   814.40   855.06   855.46   859.13
eigval :      861.88   862.79   866.50   868.93   869.69   869.76
eigval :      870.72   886.09   901.03   902.33   904.80   905.00
eigval :      905.17   905.99   911.66   913.99   915.77   916.23
eigval :      917.56   917.82   920.27   920.37   921.66   926.32
eigval :      926.70   958.51   973.03  1001.08  1003.26  1013.31
eigval :     1020.47  1061.27  1082.64  1082.78  1084.08  1084.86
eigval :     1111.53  1111.89  1117.76  1119.15  1130.30  1130.43
eigval :     1152.04  1163.46  1165.73  1168.48  1170.12  1170.56
eigval :     1177.70  1178.00  1184.81  1187.44  1188.17  1199.09
eigval :     1205.12  1205.39  1211.00  1212.96  1215.75  1223.47
eigval :     1235.54  1235.65  1250.91  1251.62  1253.05  1261.31
eigval :     1262.35  1300.40  1305.93  1307.34  1311.38  1312.21
eigval :     1313.03  1319.17  1320.14  1333.28  1339.90  1344.75
eigval :     1357.42  1383.14  1398.34  1399.97  1403.92  1415.15
eigval :     1416.74  1417.46  1419.95  1438.60  1439.31  1439.42
eigval :     1439.88  1447.85  1464.21  1467.74  1476.10  1477.91
eigval :     1478.14  1485.80  1489.56  1494.01  1497.37  1536.53
eigval :     1538.24  1554.85  1555.02  1562.76  1562.96  1565.47
eigval :     1566.75  1571.92  1573.91  1582.81  1584.61  1584.83
eigval :     1633.25  3010.26  3014.51  3016.51  3018.36  3020.34
eigval :     3022.09  3067.14  3068.21  3080.14  3080.24  3083.98
eigval :     3084.36  3091.06  3091.73  3095.70  3095.79  3099.08
eigval :     3099.57  3099.92  3100.28  3103.17  3103.18  3106.05
eigval :     3106.86  3111.05  3111.10  3113.34  3113.99  3114.99
eigval :     3115.08  3117.39  3119.34

   temp. (K)  partition function   enthalpy   heat capacity  entropy
                                   cal/mol     cal/K/mol   cal/K/mol   J/K/mol
 298.15  VIB  0.233E+21            25456.470    159.695    159.406
         ROT  0.610E+08              888.752      2.981     38.605
         INT  0.142E+29            26345.222    162.676    198.011
         TR   0.175E+29             1481.254      4.968     45.450
         TOT                       27826.4764   167.6444   243.4610  1018.6407

       T/K    H(0)-H(T)+PV         H(T)/Eh          T*S/Eh         G(T)/Eh
   ------------------------------------------------------------------------
    298.15    0.443443E-01    0.685384E+00    0.115676E+00    0.569708E+00
   ------------------------------------------------------------------------

         :::::::::::::::::::::::::::::::::::::::::::::::::::::
         ::                  THERMODYNAMIC                  ::
         :::::::::::::::::::::::::::::::::::::::::::::::::::::
         :: total free energy        -138.571145988121 Eh   ::
         ::.................................................::
         :: total energy             -139.140854265793 Eh   ::
         :: zero point energy           0.641040131684 Eh   ::
         :: G(RRHO) w/o ZPVE           -0.071331854012 Eh   ::
         :: G(RRHO) contrib.            0.569708277672 Eh   ::
         :::::::::::::::::::::::::::::::::::::::::::::::::::::

           -------------------------------------------------
          | TOTAL ENERGY             -139.140854265793 Eh   |
          | TOTAL ENTHALPY           -138.455469821334 Eh   |
          | TOTAL FREE ENERGY        -138.571145988121 Eh   |
          | GRADIENT NORM               0.000047474492 Eh/α |
          | HOMO-LUMO GAP               0.787313342837 eV   |
           -------------------------------------------------

 * finished run on 2025/09/04 at 00:45:23.055
