   * xtb version 6.7.1 (edcfbbe) compiled by 'albert@albert-system' on 2024-07-22

   ID    Z sym.   atoms
    1    6 C      1-4, 6-12, 14-19, 21-33, 35-40, 42-52
    2    8 O      5, 20, 41, 53
    3    7 N      13, 34
    4    1 H      54-85

          program call               : xtb data2507/toluene/5,6PXZ-PIDO/5,6PXZ-PIDO_toluene_T1_crest.xyz --gfn 2 --uhf 2 --gbsa toluene --ohess vtight --parallel 40 --molden --ceasefiles --namespace data2507/toluene/5,6PXZ-PIDO/5,6PXZ-PIDO_toluene_T1_finalOpt
      * Solvation model:               GBSA
        Solvent                        toluene
        Solvent mass                       9.2140E+01 g/mol
          :  Hamiltonian                  GFN2-xTB          :
 * total energy  :  -139.1396316 Eh     change       -0.1373556E-07 Eh
 * total energy  :  -139.1399691 Eh     change       -0.3375271E-03 Eh
 * total energy  :  -139.1400760 Eh     change       -0.1069085E-03 Eh
 * total energy  :  -139.1400973 Eh     change       -0.2130963E-04 Eh
 * total energy  :  -139.1401228 Eh     change       -0.2551668E-04 Eh
 * total energy  :  -139.1401476 Eh     change       -0.2475204E-04 Eh
 * total energy  :  -139.1401786 Eh     change       -0.3106203E-04 Eh
 * total energy  :  -139.1402105 Eh     change       -0.3183577E-04 Eh
 * total energy  :  -139.1402364 Eh     change       -0.2593187E-04 Eh
 * total energy  :  -139.1402634 Eh     change       -0.2702488E-04 Eh
 * total energy  :  -139.1406981 Eh     change       -0.8510869E-06 Eh
 * total energy  :  -139.1406989 Eh     change       -0.8194143E-06 Eh
 * total energy  :  -139.1406998 Eh     change       -0.8247187E-06 Eh
 * total energy  :  -139.1407007 Eh     change       -0.8867506E-06 Eh
 * total energy  :  -139.1407016 Eh     change       -0.9208898E-06 Eh
 * total energy  :  -139.1407026 Eh     change       -0.9855501E-06 Eh
 * total energy  :  -139.1407036 Eh     change       -0.1061200E-05 Eh
 * total energy  :  -139.1407048 Eh     change       -0.1154908E-05 Eh
 * total energy  :  -139.1407048 Eh     change       -0.7676164E-08 Eh
   *** GEOMETRY OPTIMIZATION CONVERGED AFTER 94 ITERATIONS ***

 final structure:
================
85
 xtb: 6.7.1 (edcfbbe)
C           -8.60736018546667        0.24847907581706       -1.24111086310572
C           -7.73855734402818        0.01798900234854       -0.00439174725752
C           -8.60737133109611       -0.20875961278927        1.23305482062039
C           -6.79580962892526       -1.17963610785981       -0.22445347874569
O           -7.19212227491704       -2.33331003761639       -0.43892178525668
C           -5.45989788781286       -0.69057262614042       -0.13676915917998
C           -4.25067980801241       -1.37345838310219       -0.25725852616024
C           -3.05122798564856       -0.70283767404415       -0.11771364898346
C           -1.79980217140149       -1.46152000539712       -0.13942613175852
C           -0.79782668337330       -1.22802961287045        0.80923355693539
C            0.39538528467472       -1.91561394582698        0.76472742728838
C            0.61534334820973       -2.86393270171205       -0.23040933855469
N            1.86378832747942       -3.53552641479241       -0.30293635079096
C            3.00223649221576       -2.84225278352581       -0.68701696195596
C            2.96628883948801       -1.49622676997812       -1.04773658788873
C            4.12253265758317       -0.84063016490328       -1.42886250762661
C            5.33436867574580       -1.51178589415087       -1.46169419934424
C            5.38767963899645       -2.85342377027806       -1.12366682276913
C            4.23336345560645       -3.52032632165546       -0.74513132801389
O            4.34493811820328       -4.84914362172759       -0.44576299333931
C            3.21050137789136       -5.52283282846654       -0.08833080102931
C            3.33604421703361       -6.87122538049720        0.20430602225147
C            2.22614751402575       -7.60317903822479        0.59141355828643
C            0.99225481915856       -6.98038193731359        0.69658653408722
C            0.85751196329140       -5.63512350443640        0.40650759206889
C            1.95873862467551       -4.88618456547953       -0.00465538821787
C           -0.38660354526800       -3.14017027612770       -1.15550937644848
C           -1.57937983003217       -2.44861807352745       -1.10443995515927
C           -3.04796991510613        0.71690862355102        0.11219308071750
C           -1.79299693382241        1.46964841574759        0.13555363967602
C           -1.56945833715409        2.45603053795203        1.10059260447123
C           -0.37359738060078        3.14211684645291        1.15319406724348
C            0.62845101497891        2.86091141599983        0.22972229227694
N            1.87974129164640        3.52711004952182        0.30380077146799
C            1.98125109219606        4.87672027174993        0.00305757261091
C            0.88417927697782        5.62961418576890       -0.41196733398985
C            1.02546764822305        6.97363259516419       -0.70464881867071
C            2.26188503035262        7.59119984633846       -0.59822466423115
C            3.36770193956201        6.85525813272744       -0.20700128478505
C            3.23558922239665        5.50807520704052        0.08830570578044
O            4.36620011177712        4.83022566309826        0.44998665446539
C            4.24817056259987        3.50246267670774        0.75156577383119
C            5.39866885132404        2.83125407493506        1.13408911161338
C            5.33871463749188        1.49046490369512        1.47439099319777
C            4.12408870854739        0.82445872180414        1.43970628083965
C            2.97161406016814        1.48436965734159        1.05461894560064
C            3.01425779149925        2.82961235631692        0.69174173677768
C            0.40570685554383        1.91318012345925       -0.76533290573868
C           -0.79063804761010        1.23114701148857       -0.81145307461485
C           -4.24440794188089        1.39320713978432        0.25027894880761
C           -5.45669625348249        0.71601725936773        0.12864338824616
C           -6.79036194213730        1.21134841036793        0.21540056718071
O           -7.18137125281241        2.36694347848947        0.42924450602553
H           -9.24013768179759       -0.62012707578963       -1.41455400588377
H           -9.23209713541364        1.12773637581567       -1.09439575569839
H           -7.98138821190138        0.40635605586485       -2.11880771593555
H           -9.23615120189326        0.66261738293086        1.40716556370724
H           -9.23612570688092       -1.08521993616311        1.08674855058542
H           -7.98136198222485       -0.36955403768141        2.11019895672662
H           -4.27117244416764       -2.44298660771609       -0.41491433892635
H           -0.97149633820128       -0.51109759827659        1.59670626531565
H            1.16156751871648       -1.72953800536407        1.50254468693915
H            2.02512756231904       -0.97141256474543       -1.02962269011590
H            4.07572603184787        0.20086803460012       -1.70347603644789
H            6.23528941078397       -0.99765779173792       -1.75543265435507
H            6.31254396532550       -3.40697376902614       -1.15158571552603
H            4.31137114398105       -7.32422776624175        0.12493830324698
H            2.32881436271297       -8.65268764938028        0.81631621307824
H            0.12612633202439       -7.54225670243601        1.00954379228559
H           -0.10312792141841       -5.15468543508552        0.50092393670956
H           -0.21796132829726       -3.88211280986384       -1.92217866567387
H           -2.34390124383908       -2.64704247557092       -1.84074644140216
H           -2.33418312729272        2.65825374820597        1.83565832884201
H           -0.20269465396061        3.88365860694716        1.91974836862230
H           -0.07835664144550        5.15317061281095       -0.50732816358239
H            0.16249811615616        7.53868453716473       -1.02060598244595
H            2.36963448072378        8.63973684396227       -0.82527026367684
H            4.34482944118340        7.30414594187064       -0.12636006143474
H            6.32583809362106        3.38087621562736        1.16325379890276
H            6.23668742359578        0.97296311255299        1.77123242837169
H            4.07211575438587       -0.21634374116438        1.71602699274191
H            2.02823335484295        0.96361041370613        1.03502396898665
H            1.17218205012321        1.72321889386770       -1.50185203162857
H           -0.96643829794409        0.51478292031337       -1.59896761979614
H           -4.26004995022310        2.46282436839874        0.40786913121508

          :  Hamiltonian                  GFN2-xTB          :
         :: gradient norm              0.000082996300 Eh/a0 ::
         :: HOMO-LUMO gap              0.786461648340 eV    ::
         :: SCC energy              -141.465164605032 Eh    ::
         :: -> dispersion             -0.125620011133 Eh    ::
         :: -> Gsolv                  -0.078051165073 Eh    ::
         :: repulsion energy           2.324459819754 Eh    ::

    * Orbital Energies and Occupations

         #    Occupation            Energy/Eh            Energy/eV
      -------------------------------------------------------------
         1        2.0000           -0.7536359             -20.5075
       ...           ...                  ...                  ...
       116        2.0000           -0.4201935             -11.4340
       117        2.0000           -0.4200619             -11.4305
       118        2.0000           -0.4146026             -11.2819
       119        2.0000           -0.4121349             -11.2148
       120        2.0000           -0.4094521             -11.1418
       121        2.0000           -0.4075179             -11.0891
       122        2.0000           -0.3988041             -10.8520
       123        2.0000           -0.3829073             -10.4194
       124        2.0000           -0.3743474             -10.1865
       125        1.8661           -0.3621140              -9.8536
       126        1.7686           -0.3614811              -9.8364
       127        1.3653           -0.3598157              -9.7911
       128        1.0000           -0.2890070              -7.8643 (HOMO)
       129        0.0000           -0.2601050              -7.0778 (LUMO)
       130                         -0.2593205              -7.0565
       131                         -0.2576372              -7.0107
       132                         -0.2483813              -6.7588
       133                         -0.2471184              -6.7244
       134                         -0.2462019              -6.6995
       135                         -0.2406027              -6.5471
       136                         -0.2347394              -6.3876
       137                         -0.2326182              -6.3299
       138                         -0.2317555              -6.3064
       139                         -0.2268073              -6.1717
       ...                                ...                  ...
       244                          0.7388523              20.1052
      -------------------------------------------------------------
                  HL-Gap            0.0289020 Eh            0.7865 eV

     #   Z          covCN         q      C6AA      α(0)
     1   6 C        3.757    -0.085    22.182     6.715
     2   6 C        3.935    -0.021    20.889     6.495
     3   6 C        3.757    -0.085    22.182     6.715
     4   6 C        2.859     0.192    23.914     8.015
     5   8 O        0.856    -0.485    23.451     6.493
     6   6 C        3.015    -0.053    29.289     8.877
     7   6 C        2.914    -0.025    28.621     8.773
     8   6 C        2.975    -0.008    28.215     8.713
     9   6 C        2.976     0.018    27.613     8.620
    10   6 C        2.924    -0.032    28.800     8.801
    11   6 C        2.918    -0.040    28.993     8.830
    12   6 C        2.924     0.049    26.902     8.506
    13   7 N        2.752    -0.026    21.752     6.927
    14   6 C        2.925     0.045    27.000     8.521
    15   6 C        2.921    -0.052    29.293     8.876
    16   6 C        2.918    -0.029    28.731     8.790
    17   6 C        2.919    -0.030    28.751     8.793
    18   6 C        2.917    -0.051    29.273     8.872
    19   6 C        2.884     0.130    25.143     8.221
    20   8 O        1.709    -0.232    17.842     5.703
    21   6 C        2.884     0.130    25.155     8.223
    22   6 C        2.917    -0.052    29.286     8.874
    23   6 C        2.919    -0.030    28.750     8.793
    24   6 C        2.918    -0.030    28.746     8.792
    25   6 C        2.921    -0.051    29.268     8.872
    26   6 C        2.924     0.045    26.985     8.519
    27   6 C        2.918    -0.038    28.945     8.822
    28   6 C        2.924    -0.033    28.826     8.805
    29   6 C        2.975    -0.008    28.215     8.713
    30   6 C        2.976     0.018    27.614     8.620
    31   6 C        2.924    -0.033    28.826     8.805
    32   6 C        2.918    -0.038    28.944     8.822
    33   6 C        2.924     0.049    26.902     8.506
    34   7 N        2.752    -0.026    21.752     6.927
    35   6 C        2.924     0.045    26.985     8.519
    36   6 C        2.921    -0.051    29.268     8.872
    37   6 C        2.918    -0.030    28.746     8.792
    38   6 C        2.919    -0.030    28.750     8.793
    39   6 C        2.917    -0.052    29.286     8.874
    40   6 C        2.884     0.130    25.155     8.223
    41   8 O        1.709    -0.232    17.842     5.703
    42   6 C        2.884     0.130    25.143     8.221
    43   6 C        2.917    -0.051    29.273     8.872
    44   6 C        2.919    -0.030    28.751     8.793
    45   6 C        2.918    -0.029    28.731     8.790
    46   6 C        2.921    -0.052    29.293     8.876
    47   6 C        2.925     0.045    27.000     8.521
    48   6 C        2.918    -0.040    28.993     8.830
    49   6 C        2.924    -0.032    28.800     8.801
    50   6 C        2.914    -0.025    28.621     8.773
    51   6 C        3.015    -0.053    29.289     8.877
    52   6 C        2.859     0.192    23.914     8.015
    53   8 O        0.856    -0.485    23.451     6.493
    54   1 H        0.925     0.045     2.382     2.414
    55   1 H        0.925     0.045     2.384     2.414
    56   1 H        0.925     0.026     2.640     2.541
    57   1 H        0.925     0.045     2.382     2.414
    58   1 H        0.925     0.045     2.384     2.414
    59   1 H        0.925     0.026     2.640     2.541
    60   1 H        0.925     0.033     2.550     2.497
    61   1 H        0.926     0.043     2.412     2.429
    62   1 H        0.926     0.048     2.343     2.394
    63   1 H        0.926     0.056     2.246     2.343
    64   1 H        0.926     0.052     2.292     2.367
    65   1 H        0.926     0.058     2.222     2.331
    66   1 H        0.926     0.064     2.158     2.297
    67   1 H        0.926     0.063     2.162     2.299
    68   1 H        0.926     0.056     2.242     2.341
    69   1 H        0.926     0.054     2.272     2.357
    70   1 H        0.926     0.054     2.276     2.359
    71   1 H        0.926     0.046     2.368     2.406
    72   1 H        0.926     0.042     2.428     2.437
    73   1 H        0.926     0.042     2.428     2.437
    74   1 H        0.926     0.046     2.368     2.407
    75   1 H        0.926     0.054     2.276     2.359
    76   1 H        0.926     0.054     2.272     2.357
    77   1 H        0.926     0.056     2.242     2.341
    78   1 H        0.926     0.063     2.162     2.299
    79   1 H        0.926     0.064     2.158     2.297
    80   1 H        0.926     0.058     2.222     2.331
    81   1 H        0.926     0.052     2.292     2.367
    82   1 H        0.926     0.056     2.246     2.344
    83   1 H        0.926     0.048     2.343     2.394
    84   1 H        0.926     0.043     2.412     2.429
    85   1 H        0.925     0.033     2.550     2.497

molecular dipole:
                 x           y           z       tot (Debye)
 q only:       10.681      -0.026       0.006
   full:       10.380      -0.025       0.006      26.385

 projected vibrational frequencies (cm⁻¹)
eigval :       -0.00    -0.00     0.00     0.00     0.00     0.00
eigval :       -3.02     9.03    15.67    22.02    27.20    28.96
eigval :       40.25    43.41    50.95    51.73    63.17    68.11
eigval :       74.22    75.52    80.45   109.53   116.18   117.73
eigval :      132.14   140.94   144.10   173.06   177.59   186.08
eigval :      192.57   193.89   202.23   202.39   231.76   237.62
eigval :      238.33   245.69   246.32   261.46   271.08   275.34
eigval :      280.61   283.78   293.37   320.87   348.30   361.55
eigval :      369.99   378.67   385.45   387.41   389.54   394.92
eigval :      396.28   412.67   419.32   428.60   430.48   431.64
eigval :      438.45   458.27   462.75   487.65   488.83   498.46
eigval :      499.18   509.52   514.72   527.21   527.61   531.36
eigval :      547.27   552.21   554.21   573.73   586.67   590.49
eigval :      603.14   603.37   611.91   614.00   641.32   653.02
eigval :      666.07   666.45   670.56   671.04   671.87   675.19
eigval :      679.59   688.84   694.99   695.43   705.57   717.85
eigval :      732.74   775.16   775.91   779.24   780.01   797.36
eigval :      801.58   814.94   815.75   855.22   855.56   859.76
eigval :      862.87   864.61   866.58   868.63   869.68   871.36
eigval :      871.56   886.40   901.73   903.03   904.13   904.22
eigval :      905.40   906.26   912.51   914.29   915.24   915.73
eigval :      918.82   919.61   921.91   922.28   923.82   927.48
eigval :      928.07   958.63   972.05  1001.58  1002.03  1012.98
eigval :     1021.75  1060.99  1082.18  1082.42  1085.55  1085.79
eigval :     1112.41  1112.82  1119.09  1120.63  1133.08  1133.38
eigval :     1151.61  1165.17  1167.84  1168.22  1170.48  1171.63
eigval :     1178.42  1179.51  1184.33  1188.16  1188.84  1200.30
eigval :     1205.89  1206.30  1211.39  1212.44  1216.46  1223.43
eigval :     1236.17  1236.46  1251.60  1252.00  1253.45  1264.03
eigval :     1264.89  1300.72  1305.86  1307.48  1311.40  1312.89
eigval :     1312.97  1319.23  1320.39  1333.44  1339.96  1345.00
eigval :     1356.18  1381.89  1398.74  1398.93  1404.13  1414.87
eigval :     1416.81  1417.33  1420.31  1438.47  1439.16  1439.74
eigval :     1440.13  1448.56  1464.65  1467.94  1475.95  1476.73
eigval :     1478.81  1484.83  1488.11  1494.21  1496.68  1536.67
eigval :     1538.59  1554.84  1555.14  1562.71  1562.85  1565.45
eigval :     1566.77  1571.88  1574.19  1582.63  1584.68  1584.76
eigval :     1632.69  3009.67  3013.80  3016.14  3017.97  3019.82
eigval :     3021.59  3067.52  3068.59  3080.34  3080.46  3085.31
eigval :     3085.77  3091.34  3092.05  3095.82  3096.09  3099.00
eigval :     3099.53  3099.97  3100.33  3103.98  3104.14  3106.35
eigval :     3107.04  3112.04  3112.04  3114.11  3114.83  3115.31
eigval :     3115.42  3117.90  3119.71

   temp. (K)  partition function   enthalpy   heat capacity  entropy
                                   cal/mol     cal/K/mol   cal/K/mol   J/K/mol
 298.15  VIB  0.187E+21            25446.119    159.786    159.218
         ROT  0.597E+08              888.752      2.981     38.563
         INT  0.112E+29            26334.871    162.767    197.781
         TR   0.175E+29             1481.254      4.968     45.450
         TOT                       27816.1253   167.7350   243.2306  1017.6770

       T/K    H(0)-H(T)+PV         H(T)/Eh          T*S/Eh         G(T)/Eh
   ------------------------------------------------------------------------
    298.15    0.443278E-01    0.685514E+00    0.115567E+00    0.569947E+00
   ------------------------------------------------------------------------

         :::::::::::::::::::::::::::::::::::::::::::::::::::::
         ::                  THERMODYNAMIC                  ::
         :::::::::::::::::::::::::::::::::::::::::::::::::::::
         :: total free energy        -138.570757598528 Eh   ::
         ::.................................................::
         :: total energy             -139.140704787028 Eh   ::
         :: zero point energy           0.641186096968 Eh   ::
         :: G(RRHO) w/o ZPVE           -0.071238908468 Eh   ::
         :: G(RRHO) contrib.            0.569947188500 Eh   ::
         :::::::::::::::::::::::::::::::::::::::::::::::::::::

           -------------------------------------------------
          | TOTAL ENERGY             -139.140704787028 Eh   |
          | TOTAL ENTHALPY           -138.455190872843 Eh   |
          | TOTAL FREE ENERGY        -138.570757598528 Eh   |
          | GRADIENT NORM               0.000082097964 Eh/α |
          | HOMO-LUMO GAP               0.786462926044 eV   |
           -------------------------------------------------

 * finished run on 2025/09/04 at 00:53:23.651
