   * xtb version 6.7.1 (edcfbbe) compiled by 'albert@albert-system' on 2024-07-22

   ID    Z sym.   atoms
    1    6 C      1-12, 14, 16-18, 20-38, 40-58
    2    7 N      13, 19, 39
    3    8 O      15, 59
    4    1 H      60-108

          program call               : xtb data2507/gas/2DN/2DN_gas_S0_finalOpt.xtbopt.xyz --gfn 2 --spinpol --tblite --uhf 2 --ohess vtight --parallel 40 --molden --ceasefiles --namespace data2507/gas/2DN/2DN_gas_T1_preOpt
 * total energy  :  -157.6222810 Eh     change        0.6037112E-08 Eh
 * total energy  :  -157.6257078 Eh     change       -0.3426812E-02 Eh
 * total energy  :  -157.6266200 Eh     change       -0.9121599E-03 Eh
 * total energy  :  -157.6266827 Eh     change       -0.6274455E-04 Eh
 * total energy  :  -157.6267211 Eh     change       -0.3838051E-04 Eh
 * total energy  :  -157.6267382 Eh     change       -0.1708412E-04 Eh
 * total energy  :  -157.6267521 Eh     change       -0.1388861E-04 Eh
 * total energy  :  -157.6267751 Eh     change       -0.2306097E-04 Eh
 * total energy  :  -157.6267860 Eh     change       -0.1085949E-04 Eh
 * total energy  :  -157.6268056 Eh     change       -0.1963062E-04 Eh
 * total energy  :  -157.6269939 Eh     change       -0.5955236E-06 Eh
 * total energy  :  -157.6269942 Eh     change       -0.2999750E-06 Eh
 * total energy  :  -157.6269946 Eh     change       -0.3837725E-06 Eh
 * total energy  :  -157.6269949 Eh     change       -0.2942691E-06 Eh
 * total energy  :  -157.6269951 Eh     change       -0.2059535E-06 Eh
 * total energy  :  -157.6269953 Eh     change       -0.1700655E-06 Eh
 * total energy  :  -157.6269954 Eh     change       -0.1020043E-06 Eh
 * total energy  :  -157.6269953 Eh     change        0.5125534E-07 Eh
 * total energy  :  -157.6269954 Eh     change       -0.7764396E-07 Eh
   *** GEOMETRY OPTIMIZATION CONVERGED AFTER 53 ITERATIONS ***

 final structure:
================
108
 xtb: 6.7.1 (edcfbbe)
C           -0.67742878545904        4.60658173406988        4.20434278058387
C            0.32212866027117        4.27845946280767        3.09460649249109
C            1.76734545863736        4.40198889488760        3.58280333762534
C            0.12129923010159        5.16626646079249        1.88994586538766
C            0.11598392710882        6.54781572177766        2.02442236869685
C           -0.06117182647044        7.36514710577292        0.92508301548404
C           -0.22537864592843        6.81383063529128       -0.33064333627984
C           -0.20512020767510        5.43768210276818       -0.51085233223416
C           -0.39013409318533        4.84138090494548       -1.88587203771834
C            0.60572716203588        5.42727474711863       -2.88765684074420
C           -1.83630556279270        5.04840836329273       -2.34197120953257
C           -0.03592386559582        4.63093633658032        0.61308865536592
N           -0.02422382325563        3.20617114054117        0.44722725310997
C           -1.26165265562932        2.57910551018163        0.39792972154934
O           -2.29297939510952        3.23389770566179        0.50909741826519
C           -1.23274694267998        1.14446955806234        0.19806626520738
C           -2.44263343155481        0.43388867447504        0.12438227608003
C           -2.42513014941169       -0.93231355034349       -0.05848620339903
N           -3.64792133873707       -1.65604192884198       -0.14108407119316
C           -4.44302014945487       -1.51639577932947       -1.26053148665961
C           -4.02850519442294       -0.68056800497440       -2.30747352427810
C           -4.80542865584513       -0.51605287671433       -3.43107602783628
C           -6.01147374562337       -1.19046507071969       -3.54181040128860
C           -6.41178763449382       -2.03730361971246       -2.52536701450750
C           -5.64922031712379       -2.22338679551718       -1.38030368613013
C           -6.12594586246360       -3.18815369324662       -0.31571896449594
C           -7.49799779223284       -2.71624300329551        0.20247255328024
C           -6.24616745506080       -4.59040090728950       -0.94247477280116
C           -5.16948175434099       -3.25578569960934        0.85515098988477
C           -5.45591412006522       -4.08797527508481        1.92831598654952
C           -4.63260951714211       -4.16300828844282        3.03663408239218
C           -3.49681496107665       -3.37096590969876        3.09644992993940
C           -3.18674386169952       -2.53637032105352        2.04699097098761
C           -3.99933078853437       -2.48290866504735        0.90471997455732
C           -1.22031336262176       -1.63093851827516       -0.18441720249459
C            0.00462000026511       -0.94566902681738       -0.12259581538257
C            1.23927433651110       -1.60801733153315       -0.22730245613854
C            2.43428127837578       -0.88662631068639       -0.14528257776664
N            3.66694043121006       -1.58796587146067       -0.26834801257014
C            4.07490608928763       -2.39586865042228        0.77160612154558
C            3.30695201348551       -2.45398967212653        1.94409851950696
C            3.67441449244440       -3.26982431167503        2.98978328355383
C            4.82427120923205       -4.03786005374675        2.89539968387209
C            5.60318582450855       -3.95829804624754        1.75574048501358
C            5.25841093330186       -3.14483436475287        0.68538728712908
C            6.16746441445507       -3.07139668046694       -0.52236983307323
C            7.54796953611949       -2.56422444402013       -0.06335268681579
C            6.29365684347956       -4.47846396460737       -1.13704043714366
C            5.62940181775170       -2.13011322500470       -1.57874871082851
C            6.34227896251441       -1.94283790695544       -2.75518271508006
C            5.88473043317766       -1.11689721319142       -3.76468567623369
C            4.67055793230912       -0.46518207667211       -3.61391864294977
C            3.94220445306701       -0.63118574641126       -2.45843813412047
C            4.41458653051717       -1.44605686617911       -1.41958489091037
C            2.43287769559311        0.48021852890708        0.03325880486750
C            1.21319936548762        1.16820893752536        0.15040252039198
C           -0.00503129808946        0.46560308553109        0.07392057659947
C            1.22211452620695        2.60385266156260        0.34541449639755
O            2.24408902299654        3.27956853946744        0.40728899153374
H           -0.57645568589887        3.89202829646338        5.01922599568482
H           -0.51106426857926        5.60349130874014        4.60420582036041
H           -1.69304475615629        4.55264708156371        3.81838097592712
H            0.15455159121761        3.23756121818558        2.79910099173574
H            2.44909144340071        4.15308956163862        2.77250305387994
H            1.97633908281589        5.41769205190402        3.91066704239309
H            1.94626035330054        3.72357627107256        4.41500984665789
H            0.24920877720405        6.99124318825475        2.99953653060117
H           -0.07118962531169        8.43885544155261        1.04778311945371
H           -0.36860905190715        7.46320309513304       -1.18099092191795
H           -0.20548930273351        3.76338953192261       -1.83240546241191
H            0.51747169620740        4.91430777482332       -3.84371029089271
H            0.42414919547761        6.48616903808655       -3.05231709070444
H            1.62145433981172        5.30296092091483       -2.51856877482407
H           -2.51552093398996        4.61235469804570       -1.61272391064017
H           -2.06207053591884        6.10829326365097       -2.43367156063966
H           -2.00184084586113        4.57255128521264       -3.30694476669846
H           -3.36931935601886        0.97731261813259        0.21976462173075
H           -3.08827113648445       -0.15956283986370       -2.22857479916066
H           -4.47028913584514        0.13743384055348       -4.22165702853691
H           -6.63112582184405       -1.06450684276905       -4.41616008954601
H           -7.34571004789998       -2.56720198708866       -2.63341423823253
H           -7.87992276044545       -3.39397436516061        0.96050079668618
H           -8.22128258757356       -2.66784631271494       -0.60633327858950
H           -7.40633158273932       -1.72497460382977        0.64185208926005
H           -5.27444246073969       -4.91823401306759       -1.30697963410578
H           -6.60013874352149       -5.31171403495078       -0.21153221626240
H           -6.94088988016348       -4.58297813234392       -1.77733840473273
H           -6.34719647869891       -4.69607251770871        1.90609664685518
H           -4.88355034679578       -4.82298739293544        3.85264332688692
H           -2.85657593345858       -3.39917522977349        3.96483947218955
H           -2.31310320496892       -1.90763232647746        2.10462980642670
H           -1.23299532587815       -2.69893604862309       -0.34232595055052
H            1.26652695341605       -2.67591223718724       -0.38400261416753
H            2.42231614196469       -1.84381400826951        2.02778233347607
H            3.06794794766448       -3.30209874254008        3.88194926483226
H            5.12017110626919       -4.68286127909810        3.70831701645942
H            6.50585404555735       -4.54769557777156        1.70608270144963
H            7.97333676442336       -3.22427729837530        0.68711571025604
H            8.23826127239393       -2.51067966420024       -0.90018630633671
H            7.45199612525156       -1.56970684036846        0.36768603530783
H            5.31588935974448       -4.83124976499690       -1.45968681382305
H            6.95531824037840       -4.46674225667215       -1.99828657756906
H            6.69108171898682       -5.18302304524126       -0.41212022927518
H            7.28203746025441       -2.45495611037629       -2.89401593031910
H            6.46663328208264       -0.98944025907934       -4.66439530476425
H            4.29128462621379        0.17179618489234       -4.39800756605494
H            2.99559356471831       -0.12777817318351       -2.34769234560911
H            3.35210178593518        1.04114829225732        0.09251431270232

 projected vibrational frequencies (cm⁻¹)
eigval :       -0.00    -0.00    -0.00    -0.00     0.00     0.00
eigval :        9.50     9.87    11.93    13.66    14.34    18.04
eigval :       33.74    34.17    38.62    40.44    40.74    45.10
eigval :       54.37    71.12    78.78    90.59    93.38    93.43
eigval :      102.76   105.43   110.02   119.89   128.28   128.32
eigval :      131.81   146.01   148.12   157.64   161.17   185.53
eigval :      190.97   191.42   195.26   198.33   205.15   216.34
eigval :      216.61   224.63   231.83   235.40   236.90   237.21
eigval :      244.17   268.41   270.44   274.91   284.63   296.52
eigval :      302.56   305.15   306.83   307.87   327.22   327.40
eigval :      338.46   341.68   341.96   345.05   348.56   380.30
eigval :      380.53   385.30   394.38   409.87   411.10   415.04
eigval :      423.02   444.59   445.04   450.12   451.37   458.92
eigval :      463.33   480.02   500.79   504.74   505.76   505.92
eigval :      507.20   518.82   530.20   536.99   540.06   543.82
eigval :      543.96   549.06   551.64   583.48   584.13   586.83
eigval :      590.04   609.72   614.72   621.89   630.88   635.12
eigval :      643.99   660.56   668.06   669.57   672.61   687.44
eigval :      687.60   701.17   701.62   702.03   710.25   721.39
eigval :      726.69   746.81   759.96   773.85   774.20   775.43
eigval :      775.69   786.91   804.02   814.26   825.75   825.97
eigval :      833.19   838.63   844.80   844.88   855.33   868.26
eigval :      868.98   870.90   871.38   893.23   912.77   913.02
eigval :      915.16   915.31   916.29   916.34   921.25   922.51
eigval :      922.67   923.08   923.16   937.19   937.24   938.04
eigval :      948.10   948.95   957.99   958.01   975.69   980.61
eigval :      989.35   989.40   993.32  1013.55  1013.56  1041.34
eigval :     1064.68  1075.73  1075.77  1077.18  1086.30  1088.76
eigval :     1095.11  1101.35  1108.04  1108.39  1114.33  1114.42
eigval :     1138.83  1138.93  1140.82  1141.24  1142.75  1142.93
eigval :     1151.62  1151.66  1160.20  1161.40  1173.58  1177.45
eigval :     1179.29  1182.30  1183.07  1184.48  1184.90  1184.95
eigval :     1185.61  1198.03  1218.86  1229.17  1238.81  1243.34
eigval :     1243.59  1250.63  1251.60  1254.84  1256.54  1261.47
eigval :     1290.10  1293.96  1295.19  1295.26  1296.75  1310.47
eigval :     1313.61  1313.73  1315.52  1321.72  1329.88  1330.13
eigval :     1333.81  1335.54  1335.62  1356.59  1357.98  1366.72
eigval :     1367.03  1385.62  1400.78  1401.46  1401.75  1401.89
eigval :     1402.80  1415.13  1415.52  1419.70  1419.78  1421.01
eigval :     1421.33  1429.82  1430.87  1448.91  1455.31  1457.62
eigval :     1457.67  1465.00  1475.69  1477.20  1480.98  1484.30
eigval :     1484.36  1486.57  1486.67  1491.05  1492.13  1493.80
eigval :     1494.12  1494.40  1496.74  1496.82  1499.24  1499.34
eigval :     1502.64  1503.39  1504.57  1504.88  1532.00  1556.06
eigval :     1556.11  1569.78  1569.99  1580.37  1580.43  1588.42
eigval :     1590.29  1590.86  1590.95  1596.59  1626.06  2940.33
eigval :     2941.27  3017.58  3018.66  3022.52  3023.64  3029.40
eigval :     3029.50  3032.44  3032.83  3033.38  3033.41  3037.27
eigval :     3037.38  3041.23  3041.80  3043.30  3043.60  3044.41
eigval :     3044.43  3046.80  3046.86  3053.24  3053.26  3056.63
eigval :     3056.83  3069.47  3082.70  3085.67  3085.72  3085.93
eigval :     3086.34  3086.39  3087.10  3091.29  3091.44  3091.64
eigval :     3092.88  3092.95  3100.95  3101.37  3101.99  3102.38
eigval :     3108.25  3108.73  3114.66  3115.23  3116.09  3116.46

   temp. (K)  partition function   enthalpy   heat capacity  entropy
                                   cal/mol     cal/K/mol   cal/K/mol   J/K/mol
 298.15  VIB  0.212E+26            31815.527    194.827    199.026
         ROT  0.147E+09              888.752      2.981     40.352
         INT  0.312E+34            32704.280    197.808    239.379
         TR   0.208E+29             1481.254      4.968     45.789
         TOT                       34185.5335   202.7759   285.1679  1193.1423

       T/K    H(0)-H(T)+PV         H(T)/Eh          T*S/Eh         G(T)/Eh
   ------------------------------------------------------------------------
    298.15    0.544781E-01    0.923179E+00    0.135492E+00    0.787686E+00
   ------------------------------------------------------------------------

         :::::::::::::::::::::::::::::::::::::::::::::::::::::
         ::                  THERMODYNAMIC                  ::
         :::::::::::::::::::::::::::::::::::::::::::::::::::::
         :: total free energy        -156.839308941060 Eh   ::
         ::.................................................::
         :: total energy             -157.626995416468 Eh   ::
         :: zero point energy           0.868700813788 Eh   ::
         :: G(RRHO) w/o ZPVE           -0.081014338380 Eh   ::
         :: G(RRHO) contrib.            0.787686475408 Eh   ::
         :::::::::::::::::::::::::::::::::::::::::::::::::::::

           -------------------------------------------------
          | TOTAL ENERGY             -157.626995416468 Eh   |
          | TOTAL ENTHALPY           -156.703816487435 Eh   |
          | TOTAL FREE ENERGY        -156.839308941060 Eh   |
          | GRADIENT NORM               0.000177152362 Eh/α |
           -------------------------------------------------

 * finished run on 2025/08/24 at 14:51:12.864
