   * xtb version 6.7.1 (edcfbbe) compiled by 'albert@albert-system' on 2024-07-22

   ID    Z sym.   atoms
    1    6 C      1-12, 14, 16-18, 20-38, 40-58
    2    7 N      13, 19, 39
    3    8 O      15, 59
    4    1 H      60-108

          program call               : xtb data2507/gas/2DN/2DN_gas_T1_crest.xyz --gfn 2 --spinpol --tblite --uhf 2 --ohess vtight --parallel 40 --molden --ceasefiles --namespace data2507/gas/2DN/2DN_gas_T1_finalOpt
 * total energy  :  -157.6269478 Eh     change       -0.1118599E-07 Eh
 * total energy  :  -157.6269550 Eh     change       -0.7185176E-05 Eh
 * total energy  :  -157.6269588 Eh     change       -0.3845157E-05 Eh
 * total energy  :  -157.6269605 Eh     change       -0.1678477E-05 Eh
 * total energy  :  -157.6269631 Eh     change       -0.2535283E-05 Eh
 * total energy  :  -157.6269646 Eh     change       -0.1553610E-05 Eh
 * total energy  :  -157.6269658 Eh     change       -0.1204511E-05 Eh
 * total energy  :  -157.6269674 Eh     change       -0.1607188E-05 Eh
 * total energy  :  -157.6269691 Eh     change       -0.1658327E-05 Eh
 * total energy  :  -157.6269707 Eh     change       -0.1634345E-05 Eh
 * total energy  :  -157.6269902 Eh     change       -0.2194323E-06 Eh
 * total energy  :  -157.6269906 Eh     change       -0.3987431E-06 Eh
 * total energy  :  -157.6269909 Eh     change       -0.2982066E-06 Eh
 * total energy  :  -157.6269911 Eh     change       -0.2314816E-06 Eh
 * total energy  :  -157.6269917 Eh     change       -0.5279364E-06 Eh
 * total energy  :  -157.6269920 Eh     change       -0.3969137E-06 Eh
 * total energy  :  -157.6269925 Eh     change       -0.4266286E-06 Eh
 * total energy  :  -157.6269929 Eh     change       -0.4249540E-06 Eh
 * total energy  :  -157.6269930 Eh     change       -0.9366204E-07 Eh
   *** GEOMETRY OPTIMIZATION CONVERGED AFTER 37 ITERATIONS ***

 final structure:
================
108
 xtb: 6.7.1 (edcfbbe)
C           -0.60779552135928        5.27946088041029        3.15819228773107
C            0.39170371039890        4.73549949347114        2.13661065761148
C            1.83624146782817        4.92204630263082        2.60649278372647
C            0.21239342961905        5.38941302718141        0.78732894313835
C            0.23690524024347        6.77185403433377        0.66492036513078
C            0.07851836729731        7.37569621995962       -0.56716202998849
C           -0.09704721417533        6.60560724473062       -1.70037736975190
C           -0.10654584651906        5.21969206629949       -1.62386601254960
C           -0.30525498228849        4.38361392428511       -2.86539291912659
C            0.69688525501219        4.75724697350199       -3.95830503588537
C           -1.74927943027101        4.52889070408936       -3.35117012533314
C            0.04468752758924        4.63096765508815       -0.36988066650742
N            0.02960746293973        3.20048313893748       -0.26515214994789
C           -1.21797526702087        2.59623724476551       -0.19576577067564
O           -2.23852919765564        3.27664941313352       -0.22652566539730
C           -1.21227462345817        1.15273390237474       -0.07446343109555
C           -2.43321446403036        0.46194445745387        0.00340468712460
C           -2.43692535325974       -0.91296348192766        0.10508378243639
N           -3.67434977304608       -1.61382484207454        0.18499375905299
C           -4.10609249506444       -2.32399621404134       -0.91434114635134
C           -3.34304539276232       -2.30698102299080       -2.09126474950167
C           -3.73720274508622       -3.02227032015164       -3.19893795320197
C           -4.90870975032276       -3.76213459953698       -3.16228143829041
C           -5.68011571930877       -3.75797839727648       -2.01473684318341
C           -5.30810288771178       -3.04755551686359       -0.88201238759731
C           -6.20796981574005       -3.05343939534409        0.33493487017105
C           -7.57442106302206       -2.46546504621021       -0.06628846103752
C           -6.37503061743450       -4.50483224127755        0.82379576549047
C           -5.63586512416150       -2.22518033397032        1.46548316492586
C           -6.33174517953604       -2.12614781433235        2.66256641537201
C           -5.84443516852399       -1.40202702616126        3.73451218010008
C           -4.61838286446093       -0.76420199907398        3.62551648061038
C           -3.90653529842643       -0.84359026093424        2.45075255163467
C           -4.40748729303070       -1.55641430560328        1.35194028214819
C           -1.24478447963621       -1.64047806397131        0.14852754346236
C           -0.00834017918246       -0.97565090650655        0.08493686481910
C            1.21546483276477       -1.66556793753049        0.11357863588021
C            2.42082105791148       -0.96289984064121        0.03306992930429
N            3.64508956391895       -1.68855857780212        0.07941747846395
C            4.42364646292776       -1.62626054799564        1.21663811951229
C            3.98173079683845       -0.88199599865350        2.31998401021639
C            4.74067606149963       -0.79622281066081        3.46442483129253
C            5.95569631053575       -1.45957205463863        3.53877444964769
C            6.38407737425745       -2.21563645371043        2.46377384490534
C            5.64002674450386       -2.32131725316858        1.29656864865466
C            6.14849677072206       -3.18567032411015        0.16268402006419
C            7.51349505780025       -2.64134388767787       -0.30034786088811
C            6.29676008817630       -4.63113906454948        0.67458877490098
C            5.20446984801341       -3.17960943112431       -1.02027088074640
C            5.51733743449876       -3.91911832043194       -2.15228292739683
C            4.70515223859910       -3.92355003419931       -3.27130558207838
C            3.55264533806264       -3.15364311386753       -3.28007329888683
C            3.21667452141317       -2.40956444397058       -2.17219761368855
C            4.01998769317745       -2.42707963759604       -1.02234064602077
C            2.44184390327435        0.41149836329804       -0.07370022511498
C            1.23372786830211        1.12693122837123       -0.11535567416465
C            0.00437222397472        0.44431993228539       -0.03313341180179
C            1.26573445500787        2.56945075449547       -0.24206760902026
O            2.29854681818894        3.22748089730159       -0.31715079897084
H           -0.52193477697431        4.72832866779762        4.09297383951143
H           -0.42779999403809        6.33100863898702        3.36602106095642
H           -1.62225288050481        5.16925596703345        2.78122261974086
H            0.20670594661382        3.66088451144715        2.03690423452863
H            2.51791584134881        4.51710611474141        1.86176316440178
H            2.06214493369718        5.97689096500940        2.74433460808832
H            1.99800815833838        4.40522069782065        3.55079233903208
H            0.37910837050652        7.38465501013684        1.54215451212373
H            0.09202199734835        8.45355487755699       -0.64483248704540
H           -0.22549131240811        7.08981627324794       -2.65654323057600
H           -0.13908468772384        3.33100881111217       -2.61378466389838
H            0.59846593222942        4.07633832558544       -4.80180780012779
H            0.53084510251136        5.76945856982065       -4.31782388888904
H            1.71156219643713        4.68822085723866       -3.57228801916812
H           -2.43314422189417        4.24639787159897       -2.55377714327433
H           -1.95676642583368        5.55778842653251       -3.63605300304168
H           -1.92674019958454        3.88656131054513       -4.21183644832196
H           -3.35178694399973        1.02622693350086       -0.02515627513474
H           -2.44083802338468       -1.71823484046190       -2.12779235734496
H           -3.13464773725869       -2.99796324404863       -4.09398710648805
H           -5.22628315746103       -4.32753680939820       -4.02477492024593
H           -6.59878140594950       -4.32427534360832       -2.00906985447214
H           -8.25670142965421       -2.46151327281588        0.77884172191491
H           -8.02577921484566       -3.04544900270424       -0.86614998211567
H           -7.44927077580613       -1.44135140783014       -0.41214190816968
H           -7.03076702728190       -4.54922054862751        1.68846334718299
H           -6.79922628964940       -5.12962855007560        0.04309750530861
H           -5.40698924047795       -4.91510320699042        1.10510521143901
H           -7.28188270230860       -2.62702341903379        2.76782104032349
H           -6.41331133339655       -1.34191525515248        4.64945413612022
H           -4.21733913133660       -0.20572604384900        4.45719454803499
H           -2.95099755811376       -0.35124631390301        2.37052754914224
H           -1.27460566165977       -2.71554693477992        0.24351540977184
H            1.22590009081401       -2.74081338608336        0.21074093233511
H            3.03463008325036       -0.37005383789983        2.26772415832637
H            4.38477357909834       -0.21297890625627        4.29962761093768
H            6.56120921739155       -1.39480367274590        4.42956158445894
H            7.32579526768929       -2.73683808503423        2.54248086858971
H            8.22770158093913       -2.64185427022160        0.51797131301513
H            7.91849856195359       -3.24621690825828       -1.10653809332507
H            7.40199106507946       -1.62005266251764       -0.65898957114442
H            5.33035978687717       -5.00926869649987        1.00268212886814
H            6.67243677054945       -5.28251834053546       -0.10922859336442
H            6.98541422791466       -4.67619293033034        1.51325639243467
H            6.42113620614198       -4.50864307052644       -2.16897752753955
H            4.97696207218307       -4.51204212125606       -4.13397919564705
H            2.91959078132519       -3.12830764015138       -4.15378174905545
H            2.32960270962064       -1.79741461330773       -2.18820152041403
H            3.37029571008490        0.95685982735634       -0.13373016310640

 projected vibrational frequencies (cm⁻¹)
eigval :       -0.00    -0.00    -0.00     0.00     0.00     0.00
eigval :        8.16     8.99    12.71    13.66    14.09    18.55
eigval :       33.67    34.25    39.09    40.26    40.57    45.50
eigval :       54.17    71.17    79.03    90.70    92.81    93.32
eigval :      102.46   105.65   109.67   120.50   129.11   129.26
eigval :      131.41   146.59   147.50   156.96   161.15   185.29
eigval :      191.01   192.28   193.35   198.09   205.60   216.32
eigval :      216.74   224.99   231.86   235.68   236.67   236.97
eigval :      244.47   268.54   270.46   275.07   284.02   296.81
eigval :      303.01   305.11   306.84   307.72   327.00   327.19
eigval :      338.40   341.61   341.89   344.65   348.04   380.49
eigval :      380.85   384.99   394.56   409.75   411.01   415.36
eigval :      423.38   444.90   445.30   449.44   450.69   458.63
eigval :      462.83   480.49   500.76   504.95   505.59   505.79
eigval :      507.00   519.24   530.33   536.38   540.29   543.61
eigval :      544.00   549.08   551.50   583.47   584.05   586.87
eigval :      589.49   609.81   614.83   622.25   630.77   635.77
eigval :      644.34   660.70   667.65   669.46   672.34   687.30
eigval :      687.52   701.24   701.60   701.99   710.34   721.39
eigval :      726.65   746.79   763.41   773.54   773.90   775.16
eigval :      775.39   789.00   806.02   814.30   825.56   825.80
eigval :      833.03   838.78   844.82   845.08   855.32   867.93
eigval :      868.63   870.18   870.61   895.14   912.91   913.11
eigval :      914.98   915.10   916.06   916.10   922.27   922.41
eigval :      922.79   922.86   923.36   937.18   937.25   938.05
eigval :      948.34   949.09   958.05   958.07   975.59   980.34
eigval :      989.47   989.54   993.83  1013.45  1013.48  1041.23
eigval :     1064.50  1075.67  1075.69  1077.25  1086.42  1089.09
eigval :     1095.42  1101.21  1107.94  1108.24  1114.16  1114.28
eigval :     1138.71  1138.80  1139.76  1140.74  1141.56  1142.91
eigval :     1151.54  1151.57  1159.47  1161.04  1173.74  1176.86
eigval :     1178.92  1182.51  1182.83  1184.04  1184.35  1184.50
eigval :     1185.17  1197.73  1218.64  1229.51  1238.61  1243.05
eigval :     1243.30  1249.14  1251.24  1254.00  1256.39  1261.23
eigval :     1290.56  1293.22  1294.77  1294.83  1296.65  1310.14
eigval :     1313.42  1314.34  1315.84  1322.32  1330.05  1330.30
eigval :     1333.46  1335.55  1335.64  1356.59  1357.77  1366.53
eigval :     1368.76  1383.95  1401.06  1401.61  1401.64  1401.98
eigval :     1402.16  1415.48  1415.83  1418.64  1418.97  1420.58
eigval :     1420.91  1429.96  1430.46  1450.23  1454.84  1457.29
eigval :     1457.34  1464.67  1476.35  1479.90  1481.30  1486.62
eigval :     1486.65  1487.49  1487.51  1494.39  1494.66  1494.80
eigval :     1494.89  1495.43  1497.53  1498.19  1500.99  1501.04
eigval :     1504.72  1504.92  1505.77  1506.16  1530.91  1555.64
eigval :     1555.69  1569.62  1569.77  1580.05  1580.10  1587.62
eigval :     1589.83  1590.63  1591.22  1593.28  1624.68  2940.07
eigval :     2940.89  3017.75  3018.52  3022.74  3023.64  3029.68
eigval :     3029.78  3032.49  3032.89  3033.48  3033.62  3037.32
eigval :     3037.45  3041.31  3041.87  3043.26  3043.50  3044.43
eigval :     3044.50  3046.85  3046.91  3052.82  3052.83  3056.40
eigval :     3056.60  3069.27  3082.21  3085.39  3085.55  3085.76
eigval :     3086.00  3086.13  3087.30  3091.13  3091.32  3091.60
eigval :     3092.46  3092.63  3100.37  3101.07  3101.44  3102.19
eigval :     3108.41  3108.83  3114.35  3115.08  3115.33  3115.87

   temp. (K)  partition function   enthalpy   heat capacity  entropy
                                   cal/mol     cal/K/mol   cal/K/mol   J/K/mol
 298.15  VIB  0.249E+26            31816.696    194.832    199.199
         ROT  0.147E+09              888.752      2.981     40.352
         INT  0.366E+34            32705.448    197.813    239.551
         TR   0.208E+29             1481.254      4.968     45.789
         TOT                       34186.7022   202.7807   285.3403  1193.8638

       T/K    H(0)-H(T)+PV         H(T)/Eh          T*S/Eh         G(T)/Eh
   ------------------------------------------------------------------------
    298.15    0.544800E-01    0.923192E+00    0.135574E+00    0.787618E+00
   ------------------------------------------------------------------------

         :::::::::::::::::::::::::::::::::::::::::::::::::::::
         ::                  THERMODYNAMIC                  ::
         :::::::::::::::::::::::::::::::::::::::::::::::::::::
         :: total free energy        -156.839374969771 Eh   ::
         ::.................................................::
         :: total energy             -157.626992990290 Eh   ::
         :: zero point energy           0.868712426382 Eh   ::
         :: G(RRHO) w/o ZPVE           -0.081094405862 Eh   ::
         :: G(RRHO) contrib.            0.787618020520 Eh   ::
         :::::::::::::::::::::::::::::::::::::::::::::::::::::

           -------------------------------------------------
          | TOTAL ENERGY             -157.626992990290 Eh   |
          | TOTAL ENTHALPY           -156.703800586157 Eh   |
          | TOTAL FREE ENERGY        -156.839374969771 Eh   |
          | GRADIENT NORM               0.000066751782 Eh/α |
           -------------------------------------------------

 * finished run on 2025/08/24 at 15:05:31.160
