   * xtb version 6.7.1 (edcfbbe) compiled by 'albert@albert-system' on 2024-07-22

   ID    Z sym.   atoms
    1    6 C      1-12, 14, 16-18, 20-38, 40-58
    2    7 N      13, 19, 39
    3    8 O      15, 59
    4    1 H      60-108

          program call               : xtb data2507/gas/2DN/2DN_gas_S0_crest.xyz --gfn 2 --ohess vtight --parallel 40 --molden --ceasefiles --namespace data2507/gas/2DN/2DN_gas_S0_finalOpt
          :  Hamiltonian                  GFN2-xTB          :
 * total energy  :  -157.6823387 Eh     change       -0.3333327E-08 Eh
 * total energy  :  -157.6823403 Eh     change       -0.1612327E-05 Eh
 * total energy  :  -157.6823422 Eh     change       -0.1857985E-05 Eh
 * total energy  :  -157.6823440 Eh     change       -0.1800916E-05 Eh
 * total energy  :  -157.6823455 Eh     change       -0.1522919E-05 Eh
 * total energy  :  -157.6823472 Eh     change       -0.1721403E-05 Eh
 * total energy  :  -157.6823485 Eh     change       -0.1342789E-05 Eh
 * total energy  :  -157.6823493 Eh     change       -0.7731369E-06 Eh
 * total energy  :  -157.6823502 Eh     change       -0.8755862E-06 Eh
 * total energy  :  -157.6823513 Eh     change       -0.1123501E-05 Eh
 * total energy  :  -157.6823540 Eh     change       -0.5491001E-06 Eh
 * total energy  :  -157.6823545 Eh     change       -0.5149377E-06 Eh
 * total energy  :  -157.6823549 Eh     change       -0.4115030E-06 Eh
 * total energy  :  -157.6823553 Eh     change       -0.3554566E-06 Eh
 * total energy  :  -157.6823556 Eh     change       -0.3559288E-06 Eh
 * total energy  :  -157.6823560 Eh     change       -0.3605554E-06 Eh
 * total energy  :  -157.6823563 Eh     change       -0.3031712E-06 Eh
 * total energy  :  -157.6823565 Eh     change       -0.2155545E-06 Eh
 * total energy  :  -157.6823565 Eh     change       -0.4563589E-08 Eh
   *** GEOMETRY OPTIMIZATION CONVERGED AFTER 22 ITERATIONS ***

 final structure:
================
108
 xtb: 6.7.1 (edcfbbe)
C           -0.64697492783398        4.57786390524256        4.11464443668823
C            0.36275853343800        4.26108671694870        3.01037055343844
C            1.80271090492224        4.42340785320872        3.50318033584856
C            0.14044852577080        5.13485494859386        1.79907908481013
C            0.13138908507944        6.51789107261989        1.92138335261039
C           -0.06753683040207        7.32458221256730        0.81810025817160
C           -0.25156726250037        6.76299374362159       -0.43026131036279
C           -0.23159216723410        5.38520438686812       -0.60019418709199
C           -0.43552167586751        4.78062192339777       -1.96903468144519
C            0.57261481137187        5.33836939921700       -2.97509793871138
C           -1.87640224653244        5.01759943532547       -2.42758158155585
C           -0.03877022312964        4.59226333440341        0.52887750991476
N           -0.02565428617524        3.16052367177576        0.37460836258078
C           -1.26129648259527        2.53488275500731        0.34138449127640
O           -2.28594349812420        3.17174565928386        0.45809354377717
C           -1.23573216356867        1.07252827044763        0.15249080040862
C           -2.42037978805428        0.37392319262906        0.09341219993148
C           -2.41668471599757       -1.01993909203598       -0.08903531810995
N           -3.64582190167478       -1.71443526884682       -0.14452491627722
C           -4.49973544065658       -1.47830404230369       -1.21687129118290
C           -4.09208052798222       -0.63739955487079       -2.25664431362620
C           -4.92202562531929       -0.37359490602795       -3.32567511636997
C           -6.17349381565553       -0.95852904593445       -3.38640936734189
C           -6.56353769882319       -1.82116308645794       -2.37971849764131
C           -5.74760887460515       -2.10375958273596       -1.29220652520336
C           -6.22265647213555       -3.09158746174825       -0.24506632934110
C           -7.52483999604274       -2.56132056668826        0.38227078674542
C           -6.47237753697302       -4.44740605675519       -0.93069919912505
C           -5.20062569992695       -3.28163766151872        0.85861120602895
C           -5.48442610170635       -4.15418519823522        1.90112905550776
C           -4.61707237568959       -4.34181199281384        2.96022575237134
C           -3.43724282616748       -3.62179112395568        2.99936584473085
C           -3.12930458609421       -2.75166076897080        1.97506591189001
C           -3.98701318109084       -2.58733018259068        0.88348222947313
C           -1.22249456280279       -1.69670309240590       -0.20450309203903
C            0.00640687836114       -1.01220842110290       -0.13324946392308
C            1.24533871144576       -1.67304722122505       -0.24337989132665
C            2.42917287324156       -0.97274002721739       -0.17057517631097
N            3.66880407543777       -1.64553824987596       -0.25890145259012
C            4.06252936895352       -2.49251646189223        0.77173538262417
C            3.24672699807344       -2.65238157879109        1.89563477594352
C            3.60765264375602       -3.49642610311989        2.92447684095353
C            4.79953655721996       -4.19415278992164        2.85706966546146
C            5.62492403720696       -4.01130130554182        1.76409023801436
C            5.28747198131266       -3.16482970942955        0.71611601169908
C            6.26472780424742       -2.97885064596409       -0.42811754199977
C            7.58003222171906       -2.41552414801239        0.14021032826637
C            6.51196849604282       -4.34329498218463       -1.09735020893199
C            5.73440698348134       -2.01914773754245       -1.47496655653188
C            6.50487123937186       -1.74284447347558       -2.59668567621434
C            6.06308264867616       -0.90543166819605       -3.60334659524769
C            4.80493880785021       -0.33997046801697       -3.50656015882615
C            4.01938717514681       -0.59809684703736       -2.40313486618376
C            4.47919398892751       -1.41383570026104       -1.36518087136714
C            2.41227745213822        0.42242598599704        0.00010972694208
C            1.21685723158162        1.09795692303291        0.09958388295718
C           -0.00415018395730        0.39565263695313        0.03901248272755
C            1.21976219938011        2.56308109400409        0.26896537053317
O            2.23439558914322        3.22490358441529        0.30942454968381
H           -0.52790946556626        3.87759990067577        4.93894215127414
H           -0.50639442864140        5.58394353331839        4.50021067002488
H           -1.66112125327210        4.49310451829104        3.73017460869953
H            0.22078215159180        3.21219700706871        2.72797798300101
H            2.49742434664107        4.18622147072919        2.70033331099574
H            1.98530735133317        5.44527450986157        3.82611347764753
H            1.99281002562318        3.75537695994406        4.34077359543280
H            0.27916119885708        6.96950992852480        2.89008644325172
H           -0.07904599090732        8.39870970262088        0.93189407038169
H           -0.41055887353231        7.40435802977971       -1.28326143135061
H           -0.27569725790204        3.69832312566140       -1.91191492912785
H            0.46805392369579        4.82583090412707       -3.92927765726461
H            0.41687144720236        6.40084138394117       -3.14088398036362
H            1.58667420276663        5.19018797870876       -2.61002074797631
H           -2.56982078268159        4.60574214425354       -1.69748210927297
H           -2.07681012026114        6.08102068457446       -2.53120158596916
H           -2.05102810858518        4.53647649637154       -3.38783425445807
H           -3.35373287295593        0.90779921343096        0.19342808482835
H           -3.11114792896685       -0.18845290871797       -2.23253320550562
H           -4.58567767095237        0.28584826130141       -4.11148871000792
H           -6.83500842863841       -0.75664900699445       -4.21475159243715
H           -7.53438098153975       -2.28768753315071       -2.44893829344609
H           -7.90759561477491       -3.25305520608075        1.12741361326622
H           -8.29069116246647       -2.41960992145615       -0.37510363153772
H           -7.33901003971426       -1.60418231964265        0.86592754101803
H           -5.54819120277848       -4.81361115455460       -1.37412695113517
H           -6.82561889615869       -5.18521546570811       -0.21582168250846
H           -7.21586930284616       -4.35397190692799       -1.71719770483281
H           -6.41290684186477       -4.70441480783345        1.89284435390666
H           -4.86704098635134       -5.03161495887792        3.75153687571510
H           -2.75433247843850       -3.73178908915689        3.82842004042283
H           -2.21359467755022       -2.18356927557279        2.02957692283853
H           -1.22332025264200       -2.76803474784974       -0.34361113785135
H            1.26272705744635       -2.74489404477239       -0.37734977060576
H            2.32201401532058       -2.10151635284789        1.97135917115155
H            2.95651070095707       -3.60357763353635        3.77908542112932
H            5.09095720817285       -4.86324315218660        3.65198911975256
H            6.56287809787665       -4.54438209151243        1.73283204749074
H            8.00266805963752       -3.08723966926000        0.88211319848643
H            8.31428894878918       -2.27449078101561       -0.64794312243459
H            7.39573744658864       -1.45314715768498        0.61394891953200
H            5.57843234230527       -4.73280715798214       -1.49940872944093
H            7.22439232225072       -4.25282589041154       -1.91243842838878
H            6.90354906477669       -5.06148948421739       -0.38244817695832
H            7.48052495749286       -2.19418966697290       -2.69354106409978
H            6.69011792369280       -0.70778474671822       -4.45908109388482
H            4.42891266904211        0.29984029074829       -4.29060735952146
H            3.03267887196851       -0.16454018616940       -2.34978760578801
H            3.33796947168297        0.97535274202351        0.05943210678569

          :  Hamiltonian                  GFN2-xTB          :
         :: gradient norm              0.000041125312 Eh/a0 ::
         :: HOMO-LUMO gap              0.954336879312 eV    ::
         :: SCC energy              -160.377329063577 Eh    ::
         :: -> dispersion             -0.153356575169 Eh    ::
         :: repulsion energy           2.694972544705 Eh    ::

    * Orbital Energies and Occupations

         #    Occupation            Energy/Eh            Energy/eV
      -------------------------------------------------------------
         1        2.0000           -0.7182044             -19.5433
       ...           ...                  ...                  ...
       134        2.0000           -0.4086396             -11.1196
       135        2.0000           -0.4079855             -11.1018
       136        2.0000           -0.4071626             -11.0795
       137        2.0000           -0.4068833             -11.0719
       138        2.0000           -0.4066552             -11.0657
       139        2.0000           -0.4013767             -10.9220
       140        2.0000           -0.4011885             -10.9169
       141        2.0000           -0.3966979             -10.7947
       142        2.0000           -0.3960635             -10.7774
       143        2.0000           -0.3958856             -10.7726
       144        2.0000           -0.3893612             -10.5951
       145        2.0000           -0.3525976              -9.5947
       146        2.0000           -0.3519765              -9.5778 (HOMO)
       147                         -0.3169053              -8.6234 (LUMO)
       148                         -0.2613900              -7.1128
       149                         -0.2545533              -6.9267
       150                         -0.2358974              -6.4191
       151                         -0.2280583              -6.2058
       152                         -0.2278591              -6.2004
       153                         -0.2229266              -6.0661
       154                         -0.2227169              -6.0604
       155                         -0.2217202              -6.0333
       156                         -0.2214610              -6.0263
       157                         -0.2206773              -6.0049
       ...                                ...                  ...
       285                          0.7276281              19.7998
      -------------------------------------------------------------
                  HL-Gap            0.0350712 Eh            0.9543 eV

     #   Z          covCN         q      C6AA      α(0)
     1   6 C        3.755    -0.103    22.521     6.767
     2   6 C        3.855    -0.004    20.617     6.458
     3   6 C        3.756    -0.104    22.532     6.768
     4   6 C        2.973     0.012    27.742     8.640
     5   6 C        2.928    -0.035    28.878     8.813
     6   6 C        2.916    -0.032    28.799     8.800
     7   6 C        2.928    -0.035    28.879     8.813
     8   6 C        2.973     0.012    27.752     8.641
     9   6 C        3.855    -0.004    20.615     6.458
    10   6 C        3.755    -0.103    22.519     6.766
    11   6 C        3.756    -0.103    22.528     6.767
    12   6 C        2.947     0.067    26.507     8.444
    13   7 N        2.746    -0.097    23.142     7.145
    14   6 C        2.776     0.277    22.318     7.738
    15   8 O        0.859    -0.401    21.703     6.246
    16   6 C        2.975    -0.025    28.622     8.776
    17   6 C        2.924    -0.023    28.588     8.768
    18   6 C        2.921     0.075    26.318     8.413
    19   7 N        2.754    -0.068    22.549     7.053
    20   6 C        2.928     0.058    26.710     8.476
    21   6 C        2.924    -0.057    29.415     8.894
    22   6 C        2.920    -0.032    28.786     8.798
    23   6 C        2.917    -0.042    29.053     8.839
    24   6 C        2.928    -0.035    28.880     8.813
    25   6 C        2.980    -0.012    28.303     8.727
    26   6 C        3.909     0.022    20.155     6.381
    27   6 C        3.761    -0.104    22.528     6.766
    28   6 C        3.761    -0.104    22.527     6.766
    29   6 C        2.980    -0.012    28.306     8.727
    30   6 C        2.928    -0.035    28.883     8.814
    31   6 C        2.917    -0.043    29.072     8.842
    32   6 C        2.920    -0.032    28.807     8.802
    33   6 C        2.924    -0.059    29.460     8.901
    34   6 C        2.926     0.057    26.716     8.476
    35   6 C        2.922    -0.041    29.016     8.833
    36   6 C        2.982     0.016    27.640     8.624
    37   6 C        2.922    -0.041    29.012     8.833
    38   6 C        2.921     0.075    26.316     8.412
    39   7 N        2.754    -0.068    22.555     7.054
    40   6 C        2.926     0.057    26.715     8.476
    41   6 C        2.924    -0.059    29.461     8.901
    42   6 C        2.920    -0.032    28.808     8.802
    43   6 C        2.917    -0.043    29.074     8.842
    44   6 C        2.928    -0.035    28.883     8.814
    45   6 C        2.980    -0.012    28.307     8.727
    46   6 C        3.909     0.022    20.155     6.381
    47   6 C        3.761    -0.104    22.528     6.766
    48   6 C        3.761    -0.104    22.526     6.766
    49   6 C        2.980    -0.012    28.306     8.727
    50   6 C        2.928    -0.035    28.880     8.813
    51   6 C        2.917    -0.042    29.054     8.839
    52   6 C        2.920    -0.031    28.786     8.798
    53   6 C        2.924    -0.057    29.414     8.894
    54   6 C        2.928     0.058    26.710     8.476
    55   6 C        2.924    -0.023    28.589     8.768
    56   6 C        2.975    -0.025    28.621     8.775
    57   6 C        2.995     0.002    27.966     8.675
    58   6 C        2.775     0.277    22.319     7.738
    59   8 O        0.859    -0.401    21.703     6.246
    60   1 H        0.925     0.035     2.516     2.481
    61   1 H        0.925     0.039     2.459     2.452
    62   1 H        0.925     0.039     2.467     2.456
    63   1 H        0.924     0.018     2.765     2.600
    64   1 H        0.925     0.048     2.340     2.392
    65   1 H        0.925     0.038     2.470     2.458
    66   1 H        0.925     0.034     2.530     2.487
    67   1 H        0.926     0.041     2.438     2.442
    68   1 H        0.926     0.036     2.496     2.471
    69   1 H        0.926     0.041     2.439     2.442
    70   1 H        0.924     0.017     2.777     2.606
    71   1 H        0.925     0.035     2.518     2.482
    72   1 H        0.925     0.039     2.458     2.452
    73   1 H        0.925     0.039     2.466     2.456
    74   1 H        0.925     0.048     2.344     2.394
    75   1 H        0.925     0.039     2.468     2.457
    76   1 H        0.925     0.034     2.532     2.488
    77   1 H        0.926     0.076     2.020     2.223
    78   1 H        0.926     0.024     2.678     2.559
    79   1 H        0.926     0.030     2.584     2.514
    80   1 H        0.926     0.029     2.600     2.522
    81   1 H        0.926     0.032     2.555     2.499
    82   1 H        0.925     0.040     2.448     2.447
    83   1 H        0.925     0.040     2.443     2.444
    84   1 H        0.925     0.033     2.540     2.493
    85   1 H        0.925     0.031     2.567     2.506
    86   1 H        0.925     0.040     2.446     2.446
    87   1 H        0.925     0.040     2.444     2.445
    88   1 H        0.926     0.032     2.554     2.499
    89   1 H        0.926     0.028     2.609     2.526
    90   1 H        0.926     0.029     2.603     2.523
    91   1 H        0.926     0.022     2.701     2.570
    92   1 H        0.926     0.055     2.264     2.353
    93   1 H        0.926     0.054     2.264     2.353
    94   1 H        0.926     0.022     2.705     2.572
    95   1 H        0.926     0.029     2.604     2.524
    96   1 H        0.926     0.028     2.610     2.526
    97   1 H        0.926     0.032     2.555     2.500
    98   1 H        0.925     0.040     2.449     2.447
    99   1 H        0.925     0.040     2.443     2.444
   100   1 H        0.925     0.033     2.541     2.493
   101   1 H        0.925     0.031     2.568     2.506
   102   1 H        0.925     0.040     2.445     2.445
   103   1 H        0.925     0.040     2.447     2.446
   104   1 H        0.926     0.032     2.556     2.500
   105   1 H        0.926     0.029     2.601     2.522
   106   1 H        0.926     0.030     2.583     2.513
   107   1 H        0.926     0.024     2.680     2.560
   108   1 H        0.926     0.076     2.020     2.223

molecular dipole:
                 x           y           z       tot (Debye)
 q only:       -0.003      -1.290      -0.238
   full:       -0.002      -1.490      -0.240       3.836

 projected vibrational frequencies (cm⁻¹)
eigval :       -0.00    -0.00    -0.00     0.00     0.00     0.00
eigval :       10.25    10.90    12.10    13.03    14.02    16.72
eigval :       33.00    34.29    38.81    39.77    41.45    46.66
eigval :       52.59    66.74    78.65    91.97    94.84    96.38
eigval :       99.32   103.66   108.56   119.85   127.24   127.34
eigval :      129.89   146.53   149.86   161.49   165.51   186.43
eigval :      188.95   189.20   196.09   202.96   203.60   218.92
eigval :      219.68   225.37   228.36   230.32   237.90   238.13
eigval :      242.68   266.11   269.12   273.84   289.49   299.51
eigval :      300.41   303.83   307.44   317.02   325.19   331.88
eigval :      332.16   339.73   344.96   347.36   348.34   378.66
eigval :      379.68   389.26   389.71   410.21   411.14   415.57
eigval :      422.70   445.78   450.29   452.95   454.61   458.18
eigval :      470.54   488.28   489.54   495.74   506.52   513.80
eigval :      514.80   515.63   534.15   537.74   542.61   547.35
eigval :      547.44   549.45   559.87   584.43   586.30   588.68
eigval :      592.44   611.91   615.83   625.82   636.72   647.60
eigval :      653.90   661.53   676.96   683.26   683.38   694.22
eigval :      694.28   695.18   702.70   704.31   711.50   727.71
eigval :      748.02   749.05   776.13   776.79   777.40   777.88
eigval :      808.32   814.35   824.70   825.47   835.70   841.29
eigval :      852.26   856.17   861.73   866.59   867.27   868.94
eigval :      873.53   898.29   903.51   908.21   913.51   913.57
eigval :      914.75   915.16   916.65   917.02   921.72   921.86
eigval :      921.92   922.11   926.64   938.17   938.58   938.67
eigval :      948.47   948.77   957.63   957.64   975.03   976.85
eigval :      989.25   989.40  1000.91  1014.73  1014.74  1043.82
eigval :     1062.75  1077.15  1077.20  1077.35  1086.16  1088.62
eigval :     1096.87  1099.33  1115.80  1116.01  1120.98  1121.08
eigval :     1140.51  1141.41  1141.74  1141.89  1147.02  1152.84
eigval :     1160.35  1160.40  1165.48  1173.97  1179.36  1182.03
eigval :     1182.45  1184.12  1188.74  1189.07  1189.24  1190.42
eigval :     1197.39  1215.38  1228.64  1243.24  1244.93  1250.37
eigval :     1251.23  1251.88  1258.59  1261.83  1269.52  1270.30
eigval :     1295.16  1295.32  1296.24  1297.96  1300.64  1304.83
eigval :     1310.76  1313.74  1323.31  1324.95  1333.43  1333.56
eigval :     1334.46  1337.36  1337.82  1359.30  1360.59  1378.58
eigval :     1383.90  1403.47  1403.50  1404.19  1404.61  1418.65
eigval :     1418.84  1421.56  1421.59  1426.30  1430.96  1436.42
eigval :     1437.54  1442.11  1443.08  1455.30  1464.08  1478.66
eigval :     1479.42  1489.54  1489.56  1490.76  1490.78  1493.15
eigval :     1493.57  1494.05  1494.40  1494.51  1495.01  1495.58
eigval :     1500.38  1500.40  1503.61  1503.91  1504.93  1505.01
eigval :     1505.36  1505.64  1535.68  1576.07  1576.32  1579.76
eigval :     1581.98  1591.04  1591.42  1591.57  1593.15  1593.45
eigval :     1593.68  1601.79  1602.38  1693.12  1706.55  2931.59
eigval :     2932.53  3024.55  3025.05  3026.93  3026.98  3029.23
eigval :     3029.89  3029.91  3030.21  3035.39  3035.58  3039.23
eigval :     3039.45  3040.77  3040.82  3043.32  3043.39  3043.52
eigval :     3043.58  3047.31  3047.62  3049.82  3049.86  3054.27
eigval :     3054.36  3077.44  3080.05  3080.27  3081.16  3081.21
eigval :     3085.33  3085.48  3085.62  3085.70  3087.22  3090.41
eigval :     3092.93  3094.94  3095.16  3095.56  3096.04  3098.51
eigval :     3099.88  3100.15  3100.97  3101.31  3102.01  3102.13

   temp. (K)  partition function   enthalpy   heat capacity  entropy
                                   cal/mol     cal/K/mol   cal/K/mol   J/K/mol
 298.15  VIB  0.195E+26            31688.286    193.567    198.404
         ROT  0.147E+09              888.752      2.981     40.357
         INT  0.287E+34            32577.038    196.547    238.761
         TR   0.208E+29             1481.254      4.968     45.789
         TOT                       34058.2924   201.5156   284.5500  1190.5573

       T/K    H(0)-H(T)+PV         H(T)/Eh          T*S/Eh         G(T)/Eh
   ------------------------------------------------------------------------
    298.15    0.542753E-01    0.926347E+00    0.135199E+00    0.791148E+00
   ------------------------------------------------------------------------

         :::::::::::::::::::::::::::::::::::::::::::::::::::::
         ::                  THERMODYNAMIC                  ::
         :::::::::::::::::::::::::::::::::::::::::::::::::::::
         :: total free energy        -156.891208719084 Eh   ::
         ::.................................................::
         :: total energy             -157.682356518873 Eh   ::
         :: zero point energy           0.872071353062 Eh   ::
         :: G(RRHO) w/o ZPVE           -0.080923553273 Eh   ::
         :: G(RRHO) contrib.            0.791147799789 Eh   ::
         :::::::::::::::::::::::::::::::::::::::::::::::::::::

           -------------------------------------------------
          | TOTAL ENERGY             -157.682356518873 Eh   |
          | TOTAL ENTHALPY           -156.756009822172 Eh   |
          | TOTAL FREE ENERGY        -156.891208719084 Eh   |
          | GRADIENT NORM               0.000041142331 Eh/α |
          | HOMO-LUMO GAP               0.954336806518 eV   |
           -------------------------------------------------

 * finished run on 2025/08/24 at 14:50:51.306
