   * xtb version 6.7.1 (edcfbbe) compiled by 'albert@albert-system' on 2024-07-22

   ID    Z sym.   atoms
    1    6 C      1-12, 14, 16-18, 20-38, 40-58
    2    7 N      13, 19, 39
    3    8 O      15, 59
    4    1 H      60-108

          program call               : xtb data2507/gas/2DN/2DN.xyz --gfn 2 --ohess vtight --parallel 40 --molden --ceasefiles --namespace data2507/gas/2DN/2DN_gas_S0_preOpt
          :  Hamiltonian                  GFN2-xTB          :
 * total energy  :  -157.6466663 Eh     change       -0.3324089E-08 Eh
 * total energy  :  -157.6696736 Eh     change       -0.2300737E-01 Eh
 * total energy  :  -157.6780320 Eh     change       -0.8358401E-02 Eh
 * total energy  :  -157.6797349 Eh     change       -0.1702894E-02 Eh
 * total energy  :  -157.6806426 Eh     change       -0.9076847E-03 Eh
 * total energy  :  -157.6810410 Eh     change       -0.3983784E-03 Eh
 * total energy  :  -157.6811784 Eh     change       -0.1374034E-03 Eh
 * total energy  :  -157.6812398 Eh     change       -0.6141557E-04 Eh
 * total energy  :  -157.6812791 Eh     change       -0.3926051E-04 Eh
 * total energy  :  -157.6812934 Eh     change       -0.1431823E-04 Eh
 * total energy  :  -157.6823338 Eh     change       -0.1055556E-05 Eh
 * total energy  :  -157.6823351 Eh     change       -0.1266135E-05 Eh
 * total energy  :  -157.6823366 Eh     change       -0.1449273E-05 Eh
 * total energy  :  -157.6823378 Eh     change       -0.1269470E-05 Eh
 * total energy  :  -157.6823389 Eh     change       -0.1048523E-05 Eh
 * total energy  :  -157.6823398 Eh     change       -0.9305941E-06 Eh
 * total energy  :  -157.6823404 Eh     change       -0.6152926E-06 Eh
 * total energy  :  -157.6823408 Eh     change       -0.3474136E-06 Eh
 * total energy  :  -157.6823408 Eh     change       -0.1551379E-07 Eh
   *** GEOMETRY OPTIMIZATION CONVERGED AFTER 170 ITERATIONS ***

 final structure:
================
108
 xtb: 6.7.1 (edcfbbe)
C           -0.88090831448260        4.96704801394944        3.51311146503564
C            0.20140393430122        4.52354588281950        2.52750874691487
C            1.60389225114337        4.72157832210113        3.10760653667669
C            0.08476738248489        5.26542026480619        1.21733672540089
C            0.08901008276742        6.65359942886812        1.19202614090240
C           -0.01507373239734        7.33976475313010       -0.00212637120680
C           -0.11543469249810        6.65001689117295       -1.19452435565944
C           -0.10446830408868        5.26182856211330       -1.21624714436840
C           -0.21581376735705        4.51613811096689       -2.52469133661073
C            0.86895179377765        4.95962511526086       -3.50762014727164
C           -1.61683207375354        4.70893287928162       -3.10996536835440
C           -0.00844519380387        4.59220972336577        0.00142201325206
N           -0.00597704984337        3.15213187412730        0.00320162305087
C           -1.24484847003467        2.53477492197854       -0.05362817314087
O           -2.26554678320772        3.18720480721874       -0.09295313121364
C           -1.22756695320472        1.06006627428978       -0.06344896118301
C           -2.41483979724946        0.36660725103656       -0.13104001837794
C           -2.41835144233000       -1.03896648836062       -0.13842090321679
N           -3.65042735111685       -1.72835841544393       -0.20716524176208
C           -4.39896641440001       -1.64490088847228       -1.37610512453251
C           -3.88743273660738       -0.95630747165986       -2.47993495207414
C           -4.61093854469807       -0.84806979407546       -3.64875147461969
C           -5.85701501138146       -1.43980345217713       -3.74432967350119
C           -6.34957365415695       -2.15161302246980       -2.66700997565381
C           -5.64225988081786       -2.27567247679883       -1.47854268687097
C           -6.22585385254692       -3.10282562693497       -0.34999142873956
C           -7.57399051450275       -2.48830392709438        0.06865795603622
C           -6.42798813827715       -4.54355630532799       -0.85402184060745
C           -5.31394634303811       -3.13162581350022        0.86106183905542
C           -5.70538578464908       -3.84305974857081        1.98761734456507
C           -4.94082853371742       -3.87751121276920        3.13816134355621
C           -3.75693033879944       -3.16441990468662        3.18150660492080
C           -3.34302272597005       -2.45261494145107        2.07548918814214
C           -4.09696334865668       -2.44389051791147        0.89841615611770
C           -1.23009207921348       -1.73231757096092       -0.07520570915817
C            0.00036513332924       -1.05166785361593        0.00701070944277
C            1.23283500973188       -1.72836129747011        0.09015906556144
C            2.41959857703713       -1.03159133672222        0.14793927342025
N            3.65360781324994       -1.71699050549789        0.21260517009037
C            4.41677968527239       -1.61359503127359        1.37079920099719
C            3.91555273760435       -0.91330644503577        2.47204900807384
C            4.65432984060710       -0.78311793850117        3.62899496565255
C            5.90574580363165       -1.36486519125703        3.71582590183856
C            6.38750247789283       -2.09022895882815        2.64274570761552
C            5.66464617640347       -2.23634331265063        1.46614845112948
C            6.23677769631011       -3.07925628461367        0.34353750083154
C            7.57683748557352       -2.46658386487034       -0.10281715910855
C            6.45125522864192       -4.51083772010819        0.86817932128094
C            5.30921607349006       -3.13091585658242       -0.85470998631431
C            5.68926437361471       -3.85925231914264       -1.97441788405539
C            4.91141464257458       -3.91411879780048       -3.11513245936827
C            3.72571213581600       -3.20390947893682       -3.15594207141158
C            3.32290674098771       -2.47590447993318       -2.05639117546797
C            4.08959958408229       -2.44760719888706       -0.88783596050886
C            2.41142753356767        0.37409068691882        0.13704813391637
C            1.22197092790323        1.06380704989355        0.07057274330132
C           -0.00185816170561        0.36674417767927        0.00500138391144
C            1.23487472660931        2.53855791419499        0.05711786071024
O            2.25371784404006        3.19415039578924        0.09229471177756
H           -1.86518867179424        4.85635713144457        3.06317217750555
H           -0.83863464554551        4.35484510231479        4.41169635378782
H           -0.74805535509307        6.00577922679306        3.80293226278376
H            0.06067312486481        3.45210918161977        2.34761595963745
H            2.35184624410874        4.39268668492515        2.38934919423570
H            1.78128349754239        5.76999033232464        3.33387577751823
H            1.71871890307111        4.14476643609014        4.02309676606446
H            0.17218101298169        7.20458833108284        2.11596809561266
H           -0.01775470948017        8.41995617983235       -0.00352068329035
H           -0.20102870048093        7.19819025819542       -2.11992481026654
H           -0.07314672685924        3.44550307869471       -2.34164114903271
H            0.82982860905634        4.34664254091434       -4.40580048570435
H            0.73611724781714        5.99803884955734       -3.79853652420715
H            1.85196204257217        4.85011098632584       -3.05461928740472
H           -2.36628016650207        4.38151066382016       -2.39259602802532
H           -1.79567750354246        5.75594361158529       -3.34133895312114
H           -1.72765256452877        4.12792896127212       -4.02328160290296
H           -3.34478503100742        0.91387983398191       -0.17393523938812
H           -2.90904386806312       -0.50434566730183       -2.42587345870936
H           -4.19595260723546       -0.30449431898900       -4.48412858374250
H           -6.43546586097511       -1.35936472754912       -4.65176522004602
H           -7.31497298176399       -2.62507870230530       -2.76087811415785
H           -8.26359326745617       -2.45784174003824       -0.77023453477693
H           -7.42177417245883       -1.47126747967381        0.42507262395338
H           -8.03395141210994       -3.06545905895119        0.86587785484869
H           -6.85527449813030       -5.17070445624899       -0.07663280281327
H           -7.09410116987263       -4.56517695287363       -1.71188738621908
H           -5.47137716461420       -4.96916863283572       -1.15169873048236
H           -6.63787044036017       -4.38637892646347        1.97309262974653
H           -5.27314981854908       -4.44413505812435        3.99432319401272
H           -3.15336008440851       -3.15645965789863        4.07675452581304
H           -2.42566820961808       -1.88706986255438        2.13032144229038
H           -1.23755853441933       -2.81260082595585       -0.08027822525047
H            1.24318795097244       -2.80860141672002        0.09890376824493
H            2.93307056978307       -0.46948413734210        2.42569943522903
H            4.24709085369905       -0.23026196737288        4.46207237218608
H            6.49647217401955       -1.26665019168794        4.61354654807191
H            7.35687948558467       -2.55671604745206        2.73028366784314
H            8.27793754379949       -2.42149582123261        0.72580114080171
H            8.02768398807570       -3.05391525328531       -0.89779599233226
H            7.41612455665034       -1.45545678797476       -0.47205142918263
H            6.87214188964365       -5.14864407329485        0.09598236785499
H            7.12748638588443       -4.51581807416661        1.71835450137060
H            5.50010035389336       -4.93562401264467        1.18396573874572
H            6.62346493419267       -4.39963874121317       -1.96226621216178
H            5.23505782784620       -4.49358502478874       -3.96599294623680
H            3.11194957098527       -3.21072794277095       -4.04424133601397
H            2.40401449797882       -1.91287070820940       -2.11046825588090
H            3.33965519589462        0.92464302664127        0.17544851441156

          :  Hamiltonian                  GFN2-xTB          :
         :: gradient norm              0.000144048843 Eh/a0 ::
         :: HOMO-LUMO gap              0.940479863271 eV    ::
         :: SCC energy              -160.377393847233 Eh    ::
         :: -> dispersion             -0.153296649681 Eh    ::
         :: repulsion energy           2.695053061347 Eh    ::

    * Orbital Energies and Occupations

         #    Occupation            Energy/Eh            Energy/eV
      -------------------------------------------------------------
         1        2.0000           -0.7184167             -19.5491
       ...           ...                  ...                  ...
       134        2.0000           -0.4091325             -11.1331
       135        2.0000           -0.4081148             -11.1054
       136        2.0000           -0.4072565             -11.0820
       137        2.0000           -0.4069846             -11.0746
       138        2.0000           -0.4066813             -11.0664
       139        2.0000           -0.4013767             -10.9220
       140        2.0000           -0.4011794             -10.9166
       141        2.0000           -0.3967983             -10.7974
       142        2.0000           -0.3960628             -10.7774
       143        2.0000           -0.3958893             -10.7727
       144        2.0000           -0.3894596             -10.5977
       145        2.0000           -0.3527276              -9.5982
       146        2.0000           -0.3517399              -9.5713 (HOMO)
       147                         -0.3171779              -8.6308 (LUMO)
       148                         -0.2616390              -7.1196
       149                         -0.2547836              -6.9330
       150                         -0.2360807              -6.4241
       151                         -0.2280333              -6.2051
       152                         -0.2278035              -6.1988
       153                         -0.2228935              -6.0652
       154                         -0.2226333              -6.0582
       155                         -0.2217206              -6.0333
       156                         -0.2215131              -6.0277
       157                         -0.2207689              -6.0074
       ...                                ...                  ...
       285                          0.7274673              19.7954
      -------------------------------------------------------------
                  HL-Gap            0.0345620 Eh            0.9405 eV

     #   Z          covCN         q      C6AA      α(0)
     1   6 C        3.755    -0.103    22.520     6.767
     2   6 C        3.855    -0.004    20.617     6.458
     3   6 C        3.756    -0.103    22.529     6.767
     4   6 C        2.973     0.012    27.748     8.641
     5   6 C        2.928    -0.035    28.879     8.813
     6   6 C        2.916    -0.032    28.799     8.800
     7   6 C        2.928    -0.035    28.879     8.813
     8   6 C        2.973     0.012    27.747     8.640
     9   6 C        3.855    -0.004    20.616     6.458
    10   6 C        3.755    -0.103    22.520     6.767
    11   6 C        3.756    -0.103    22.529     6.768
    12   6 C        2.947     0.067    26.509     8.444
    13   7 N        2.746    -0.097    23.140     7.144
    14   6 C        2.775     0.277    22.318     7.737
    15   8 O        0.859    -0.401    21.698     6.245
    16   6 C        2.975    -0.025    28.618     8.775
    17   6 C        2.924    -0.023    28.585     8.768
    18   6 C        2.922     0.076    26.311     8.412
    19   7 N        2.754    -0.068    22.560     7.054
    20   6 C        2.928     0.058    26.708     8.475
    21   6 C        2.924    -0.057    29.419     8.895
    22   6 C        2.920    -0.032    28.787     8.799
    23   6 C        2.917    -0.043    29.057     8.839
    24   6 C        2.928    -0.035    28.880     8.813
    25   6 C        2.980    -0.012    28.306     8.727
    26   6 C        3.909     0.022    20.155     6.381
    27   6 C        3.761    -0.104    22.528     6.766
    28   6 C        3.761    -0.104    22.526     6.766
    29   6 C        2.980    -0.012    28.309     8.728
    30   6 C        2.928    -0.035    28.883     8.814
    31   6 C        2.917    -0.043    29.075     8.842
    32   6 C        2.920    -0.032    28.808     8.802
    33   6 C        2.924    -0.059    29.462     8.901
    34   6 C        2.926     0.057    26.714     8.476
    35   6 C        2.922    -0.040    29.006     8.832
    36   6 C        2.982     0.016    27.638     8.624
    37   6 C        2.922    -0.041    29.010     8.833
    38   6 C        2.921     0.075    26.314     8.412
    39   7 N        2.754    -0.068    22.553     7.053
    40   6 C        2.928     0.058    26.709     8.475
    41   6 C        2.924    -0.057    29.416     8.894
    42   6 C        2.920    -0.032    28.786     8.798
    43   6 C        2.917    -0.042    29.054     8.839
    44   6 C        2.928    -0.035    28.879     8.813
    45   6 C        2.980    -0.012    28.304     8.727
    46   6 C        3.909     0.022    20.155     6.381
    47   6 C        3.761    -0.104    22.528     6.766
    48   6 C        3.761    -0.104    22.526     6.766
    49   6 C        2.980    -0.012    28.307     8.727
    50   6 C        2.928    -0.035    28.883     8.814
    51   6 C        2.917    -0.043    29.073     8.842
    52   6 C        2.920    -0.032    28.808     8.802
    53   6 C        2.924    -0.059    29.462     8.901
    54   6 C        2.926     0.057    26.715     8.476
    55   6 C        2.924    -0.023    28.585     8.768
    56   6 C        2.975    -0.025    28.619     8.775
    57   6 C        2.995     0.002    27.964     8.674
    58   6 C        2.775     0.277    22.318     7.737
    59   8 O        0.859    -0.401    21.701     6.246
    60   1 H        0.925     0.039     2.467     2.456
    61   1 H        0.925     0.035     2.517     2.481
    62   1 H        0.925     0.039     2.458     2.452
    63   1 H        0.924     0.018     2.771     2.603
    64   1 H        0.925     0.048     2.341     2.393
    65   1 H        0.925     0.038     2.469     2.457
    66   1 H        0.925     0.034     2.531     2.488
    67   1 H        0.926     0.041     2.438     2.442
    68   1 H        0.926     0.037     2.496     2.470
    69   1 H        0.926     0.041     2.438     2.442
    70   1 H        0.924     0.017     2.772     2.604
    71   1 H        0.925     0.035     2.517     2.481
    72   1 H        0.925     0.039     2.458     2.452
    73   1 H        0.925     0.039     2.467     2.456
    74   1 H        0.925     0.048     2.340     2.392
    75   1 H        0.925     0.038     2.469     2.457
    76   1 H        0.925     0.034     2.531     2.488
    77   1 H        0.926     0.076     2.019     2.222
    78   1 H        0.926     0.023     2.685     2.563
    79   1 H        0.926     0.030     2.587     2.515
    80   1 H        0.926     0.029     2.602     2.523
    81   1 H        0.926     0.032     2.556     2.500
    82   1 H        0.925     0.040     2.443     2.444
    83   1 H        0.925     0.033     2.541     2.493
    84   1 H        0.925     0.040     2.449     2.447
    85   1 H        0.925     0.040     2.447     2.446
    86   1 H        0.925     0.040     2.445     2.445
    87   1 H        0.925     0.031     2.568     2.506
    88   1 H        0.926     0.032     2.556     2.500
    89   1 H        0.926     0.028     2.611     2.527
    90   1 H        0.926     0.029     2.605     2.524
    91   1 H        0.926     0.022     2.707     2.573
    92   1 H        0.926     0.055     2.263     2.352
    93   1 H        0.926     0.055     2.263     2.352
    94   1 H        0.926     0.023     2.681     2.560
    95   1 H        0.926     0.030     2.585     2.514
    96   1 H        0.926     0.029     2.601     2.522
    97   1 H        0.926     0.032     2.555     2.500
    98   1 H        0.925     0.040     2.443     2.444
    99   1 H        0.925     0.040     2.449     2.447
   100   1 H        0.925     0.033     2.541     2.493
   101   1 H        0.925     0.040     2.447     2.446
   102   1 H        0.925     0.040     2.444     2.445
   103   1 H        0.925     0.031     2.567     2.506
   104   1 H        0.926     0.032     2.554     2.499
   105   1 H        0.926     0.028     2.610     2.526
   106   1 H        0.926     0.029     2.604     2.524
   107   1 H        0.926     0.022     2.703     2.571
   108   1 H        0.926     0.076     2.019     2.222

molecular dipole:
                 x           y           z       tot (Debye)
 q only:        0.020      -1.301       0.004
   full:        0.021      -1.500       0.004       3.813

 projected vibrational frequencies (cm⁻¹)
eigval :       -0.00    -0.00    -0.00     0.00     0.00     0.00
eigval :       10.14    10.43    12.22    13.17    13.68    17.08
eigval :       33.28    33.82    38.19    39.16    42.10    46.64
eigval :       52.52    66.72    78.46    92.07    95.11    96.06
eigval :       99.45   103.30   108.72   119.87   127.28   127.48
eigval :      131.52   143.69   149.94   160.00   163.07   188.91
eigval :      189.14   191.00   198.28   198.78   203.06   219.02
eigval :      219.47   225.10   227.98   230.35   237.80   238.36
eigval :      242.78   266.08   268.76   274.98   288.89   296.75
eigval :      302.96   303.65   306.96   317.39   324.20   331.83
eigval :      332.11   339.47   345.49   346.72   348.45   378.59
eigval :      379.80   389.08   389.36   410.12   411.12   415.45
eigval :      423.08   445.78   450.82   452.32   454.93   457.99
eigval :      471.04   486.92   490.85   495.00   506.47   514.62
eigval :      514.84   517.98   528.21   534.17   547.01   547.33
eigval :      548.47   548.79   560.88   584.48   587.81   587.99
eigval :      590.64   612.06   615.85   626.62   634.47   647.62
eigval :      655.02   661.58   676.95   683.19   683.34   694.13
eigval :      694.26   695.20   702.60   704.43   711.49   727.68
eigval :      748.12   749.15   776.34   776.61   777.59   777.74
eigval :      808.25   814.38   824.65   825.36   835.60   841.57
eigval :      851.86   855.90   861.77   866.42   867.07   869.18
eigval :      872.80   898.20   903.44   908.06   913.49   913.55
eigval :      914.77   915.07   916.41   917.44   921.73   921.83
eigval :      921.94   922.13   926.63   938.18   938.59   938.66
eigval :      948.43   948.71   957.64   957.64   975.11   976.82
eigval :      989.27   989.39  1000.93  1014.72  1014.74  1043.73
eigval :     1062.73  1077.12  1077.24  1077.45  1086.30  1088.56
eigval :     1096.86  1099.29  1115.65  1115.90  1120.90  1121.02
eigval :     1140.43  1141.31  1141.79  1141.85  1146.95  1152.70
eigval :     1160.39  1160.44  1165.42  1173.91  1179.21  1182.00
eigval :     1182.43  1184.07  1188.83  1189.09  1189.49  1189.89
eigval :     1197.39  1215.31  1228.73  1243.26  1245.09  1250.49
eigval :     1251.40  1251.51  1258.77  1261.84  1269.50  1270.33
eigval :     1295.16  1295.30  1296.26  1297.96  1300.72  1304.77
eigval :     1310.66  1313.66  1323.43  1325.09  1333.50  1333.63
eigval :     1334.55  1337.30  1338.71  1359.40  1360.43  1378.41
eigval :     1383.92  1403.42  1403.47  1404.18  1404.59  1418.65
eigval :     1418.88  1421.56  1421.59  1426.47  1431.03  1436.46
eigval :     1437.53  1441.80  1443.53  1455.25  1464.12  1478.88
eigval :     1479.46  1489.51  1489.53  1490.77  1490.77  1493.26
eigval :     1493.54  1494.02  1494.41  1494.53  1495.10  1495.68
eigval :     1500.40  1500.41  1503.69  1503.94  1504.89  1505.00
eigval :     1505.37  1505.63  1535.96  1576.10  1576.39  1579.92
eigval :     1582.48  1591.04  1591.45  1591.66  1593.22  1593.39
eigval :     1593.66  1601.83  1602.35  1693.20  1706.68  2931.66
eigval :     2932.29  3024.77  3024.91  3026.94  3026.99  3029.54
eigval :     3029.95  3030.04  3030.20  3035.66  3035.72  3039.27
eigval :     3039.48  3040.79  3040.85  3043.27  3043.45  3043.53
eigval :     3043.59  3047.37  3047.67  3049.79  3049.88  3054.12
eigval :     3054.27  3077.52  3080.06  3080.17  3081.00  3081.14
eigval :     3085.29  3085.46  3085.55  3085.69  3087.30  3090.46
eigval :     3093.11  3094.92  3095.02  3095.58  3095.96  3098.66
eigval :     3099.88  3100.18  3100.89  3101.14  3101.89  3102.04

   temp. (K)  partition function   enthalpy   heat capacity  entropy
                                   cal/mol     cal/K/mol   cal/K/mol   J/K/mol
 298.15  VIB  0.210E+26            31696.222    193.564    198.500
         ROT  0.147E+09              888.752      2.981     40.358
         INT  0.310E+34            32584.974    196.545    238.858
         TR   0.208E+29             1481.254      4.968     45.789
         TOT                       34066.2280   201.5131   284.6471  1190.9635

       T/K    H(0)-H(T)+PV         H(T)/Eh          T*S/Eh         G(T)/Eh
   ------------------------------------------------------------------------
    298.15    0.542880E-01    0.926341E+00    0.135245E+00    0.791096E+00
   ------------------------------------------------------------------------

         :::::::::::::::::::::::::::::::::::::::::::::::::::::
         ::                  THERMODYNAMIC                  ::
         :::::::::::::::::::::::::::::::::::::::::::::::::::::
         :: total free energy        -156.891244378961 Eh   ::
         ::.................................................::
         :: total energy             -157.682340785882 Eh   ::
         :: zero point energy           0.872053448783 Eh   ::
         :: G(RRHO) w/o ZPVE           -0.080957041863 Eh   ::
         :: G(RRHO) contrib.            0.791096406921 Eh   ::
         :::::::::::::::::::::::::::::::::::::::::::::::::::::

           -------------------------------------------------
          | TOTAL ENERGY             -157.682340785882 Eh   |
          | TOTAL ENTHALPY           -156.755999347246 Eh   |
          | TOTAL FREE ENERGY        -156.891244378961 Eh   |
          | GRADIENT NORM               0.000144079042 Eh/α |
          | HOMO-LUMO GAP               0.940479813473 eV   |
           -------------------------------------------------

 * finished run on 2025/08/24 at 14:38:16.751
