   * xtb version 6.7.1 (edcfbbe) compiled by 'albert@albert-system' on 2024-07-22

   ID    Z sym.   atoms
    1    7 N      1, 5
    2    6 C      2-4, 6-8, 10-29
    3    9 F      9, 30
    4    1 H      31-42

          program call               : xtb data2507/gas/C-H/C-H_gas_T1_crest.xyz --gfn 2 --spinpol --tblite --uhf 2 --ohess vtight --parallel 40 --molden --ceasefiles --namespace data2507/gas/C-H/C-H_gas_T1_finalOpt
 * total energy  :   -76.9707590 Eh     change        0.1188357E-07 Eh
 * total energy  :   -76.9707805 Eh     change       -0.2151259E-04 Eh
 * total energy  :   -76.9708010 Eh     change       -0.2046842E-04 Eh
 * total energy  :   -76.9707611 Eh     change        0.3989585E-04 Eh
 * total energy  :   -76.9708015 Eh     change       -0.4043496E-04 Eh
 * total energy  :   -76.9708087 Eh     change       -0.7190402E-05 Eh
 * total energy  :   -76.9708101 Eh     change       -0.1329806E-05 Eh
 * total energy  :   -76.9708126 Eh     change       -0.2513530E-05 Eh
 * total energy  :   -76.9708146 Eh     change       -0.1981711E-05 Eh
 * total energy  :   -76.9708158 Eh     change       -0.1253211E-05 Eh
 * total energy  :   -76.9708197 Eh     change       -0.3756830E-06 Eh
 * total energy  :   -76.9708200 Eh     change       -0.3135543E-06 Eh
 * total energy  :   -76.9708203 Eh     change       -0.2860984E-06 Eh
 * total energy  :   -76.9708205 Eh     change       -0.1873371E-06 Eh
 * total energy  :   -76.9708207 Eh     change       -0.2301269E-06 Eh
 * total energy  :   -76.9708210 Eh     change       -0.2389093E-06 Eh
 * total energy  :   -76.9708212 Eh     change       -0.2361356E-06 Eh
 * total energy  :   -76.9708211 Eh     change        0.6471784E-07 Eh
 * total energy  :   -76.9708212 Eh     change       -0.6781364E-07 Eh
   *** GEOMETRY OPTIMIZATION CONVERGED AFTER 23 ITERATIONS ***

 final structure:
================
42
 xtb: 6.7.1 (edcfbbe)
N            8.10206381760474        0.73311675318173        0.16567601824812
C            6.95475450623674        0.74398392313961        0.11483132707887
C            5.54708650046987        0.75342322588756        0.06816689976998
C            4.98567058069676        2.03114368389346       -0.10456130658949
N            4.57493044298735        3.08135192947770       -0.32404337785184
C            4.85786997761512       -0.43893909220651        0.05865135998255
C            3.45415944735869       -0.62781340940904        0.08001443262382
C            2.88807787276778       -1.82218097684627       -0.43692649674895
F            3.73329687039077       -2.74435167488447       -0.94024436972944
C            1.54960457607595       -2.07209921888669       -0.49754273465432
C            0.61819612361432       -1.11272924074219       -0.03348696950775
C           -0.78843373135307       -1.34095600561755       -0.10394721726377
C           -1.29915734995371       -2.65312494646424        0.03690090835440
C           -2.62371752286760       -2.89055737709562        0.23602260773971
C           -3.57135505102863       -1.82336867510755        0.26664877103875
C           -4.92761063425924       -2.04518080633051        0.51817454267104
C           -5.83250010996214       -1.00307746717359        0.51293642595136
C           -5.41931622752664        0.30631292463304        0.21159631155029
C           -6.32893252547214        1.38778994067540        0.16590075966670
C           -5.89921970087053        2.66318481161978       -0.15408924381062
C           -4.57340702551897        2.90617731233334       -0.44867425926013
C           -3.62202328230518        1.85711590665604       -0.41320144916290
C           -2.27415452080434        2.05594071982524       -0.74405258973209
C           -1.36131367767910        1.01998157378209       -0.67235849599679
C           -1.73679655379967       -0.25624392728464       -0.23707360570881
C           -3.11298661368630       -0.50793773635392       -0.00140006833758
C           -4.04901624499769        0.55037410344006       -0.06479415086028
C            1.15071680844180        0.04991588139125        0.57159629760172
C            2.49785237289284        0.26110591144208        0.63265179220819
F            2.93113256850382        1.31888334573625        1.34072284964962
H            5.45572941520946       -1.33885287865739       -0.02682901804020
H            1.21721345337283       -2.98376458368684       -0.96677281839199
H           -0.60410174757035       -3.47743842282201        0.08052772663786
H           -2.97962171581172       -3.89608833756140        0.40488756339684
H           -5.26467114895433       -3.05192406637902        0.71837624181619
H           -6.87468823266914       -1.18740310172477        0.72758675320058
H           -7.37047283750879        1.20044684075997        0.38009957386101
H           -6.61144110395812        3.47458003720473       -0.18205161626095
H           -4.24208762900451        3.89912809443370       -0.71249510225088
H           -1.94906323089467        3.03496979401333       -1.06299672220576
H           -0.34407406434190        1.19812328054308       -0.98515356572349
H            0.49916866525971        0.74889702286502        1.07203859544021

 projected vibrational frequencies (cm⁻¹)
eigval :       -0.00    -0.00     0.00     0.00     0.00     0.00
eigval :       18.92    24.20    35.04    40.75    62.16    89.68
eigval :      100.93   117.14   121.36   148.27   178.38   180.48
eigval :      199.05   200.91   216.99   236.92   240.04   267.71
eigval :      274.48   291.01   323.93   372.69   379.00   392.41
eigval :      402.71   424.50   428.78   435.39   445.85   459.67
eigval :      485.08   491.53   500.56   503.06   514.88   529.35
eigval :      541.64   558.74   576.47   582.99   593.06   608.18
eigval :      626.94   645.86   659.06   671.38   686.32   725.15
eigval :      738.69   756.28   763.01   781.99   785.14   800.84
eigval :      807.16   817.21   827.09   849.47   857.48   859.08
eigval :      874.74   892.72   900.48   909.56   917.77   929.80
eigval :      989.85  1004.19  1032.72  1091.94  1119.37  1129.74
eigval :     1143.44  1164.50  1171.43  1191.00  1192.47  1194.21
eigval :     1207.30  1209.83  1216.41  1231.61  1253.31  1269.21
eigval :     1309.23  1319.79  1326.74  1334.69  1342.31  1359.81
eigval :     1362.16  1381.23  1396.25  1409.75  1426.64  1441.03
eigval :     1444.55  1462.68  1480.60  1488.27  1497.66  1513.33
eigval :     1516.91  1532.90  1558.98  1581.31  2311.93  2343.13
eigval :     3054.89  3077.29  3080.53  3082.75  3085.71  3088.49
eigval :     3090.62  3096.39  3097.84  3099.16  3109.43  3117.07

   temp. (K)  partition function   enthalpy   heat capacity  entropy
                                   cal/mol     cal/K/mol   cal/K/mol   J/K/mol
 298.15  VIB  0.165E+10            13186.450     84.692     79.559
         ROT  0.207E+08              888.752      2.981     36.458
         INT  0.341E+17            14075.202     87.673    116.017
         TR   0.746E+28             1481.254      4.968     43.758
         TOT                       15556.4563    92.6412   159.7744   668.4961

       T/K    H(0)-H(T)+PV         H(T)/Eh          T*S/Eh         G(T)/Eh
   ------------------------------------------------------------------------
    298.15    0.247908E-01    0.313463E+00    0.759140E-01    0.237550E+00
   ------------------------------------------------------------------------

         :::::::::::::::::::::::::::::::::::::::::::::::::::::
         ::                  THERMODYNAMIC                  ::
         :::::::::::::::::::::::::::::::::::::::::::::::::::::
         :: total free energy         -76.733271695541 Eh   ::
         ::.................................................::
         :: total energy              -76.970821200285 Eh   ::
         :: zero point energy           0.288672683357 Eh   ::
         :: G(RRHO) w/o ZPVE           -0.051123178613 Eh   ::
         :: G(RRHO) contrib.            0.237549504744 Eh   ::
         :::::::::::::::::::::::::::::::::::::::::::::::::::::

           -------------------------------------------------
          | TOTAL ENERGY              -76.970821200285 Eh   |
          | TOTAL ENTHALPY            -76.657357725841 Eh   |
          | TOTAL FREE ENERGY         -76.733271695541 Eh   |
          | GRADIENT NORM               0.000097505262 Eh/α |
           -------------------------------------------------

 * finished run on 2025/08/24 at 14:23:03.350
