   * xtb version 6.7.1 (edcfbbe) compiled by 'albert@albert-system' on 2024-07-22

   ID    Z sym.   atoms
    1    7 N      1, 5
    2    6 C      2-4, 6-8, 10-29
    3    9 F      9, 30
    4    1 H      31-42

          program call               : xtb data2507/gas/C-H/C-H_gas_S0_finalOpt.xtbopt.xyz --gfn 2 --spinpol --tblite --uhf 2 --ohess vtight --parallel 40 --molden --ceasefiles --namespace data2507/gas/C-H/C-H_gas_T1_preOpt
 * total energy  :   -76.9612302 Eh     change       -0.1778368E-07 Eh
 * total energy  :   -76.9670404 Eh     change       -0.5810172E-02 Eh
 * total energy  :   -76.9688031 Eh     change       -0.1762743E-02 Eh
 * total energy  :   -76.9691393 Eh     change       -0.3362102E-03 Eh
 * total energy  :   -76.9696153 Eh     change       -0.4759404E-03 Eh
 * total energy  :   -76.9699097 Eh     change       -0.2944148E-03 Eh
 * total energy  :   -76.9701516 Eh     change       -0.2419093E-03 Eh
 * total energy  :   -76.9702989 Eh     change       -0.1473410E-03 Eh
 * total energy  :   -76.9703851 Eh     change       -0.8613060E-04 Eh
 * total energy  :   -76.9704565 Eh     change       -0.7149383E-04 Eh
 * total energy  :   -76.9708182 Eh     change       -0.1193697E-05 Eh
 * total energy  :   -76.9708193 Eh     change       -0.1056602E-05 Eh
 * total energy  :   -76.9708202 Eh     change       -0.9660646E-06 Eh
 * total energy  :   -76.9708213 Eh     change       -0.1049565E-05 Eh
 * total energy  :   -76.9708224 Eh     change       -0.1085425E-05 Eh
 * total energy  :   -76.9708230 Eh     change       -0.6501689E-06 Eh
 * total energy  :   -76.9708233 Eh     change       -0.2737215E-06 Eh
 * total energy  :   -76.9708234 Eh     change       -0.1425192E-06 Eh
 * total energy  :   -76.9708235 Eh     change       -0.8712264E-07 Eh
   *** GEOMETRY OPTIMIZATION CONVERGED AFTER 37 ITERATIONS ***

 final structure:
================
42
 xtb: 6.7.1 (edcfbbe)
N            8.09004624028664        0.78172598527072        0.13391100511541
C            6.94212449803254        0.77855795701598        0.09979844166686
C            5.53398016991698        0.77160476065925        0.07163066412916
C            4.95501843437236        2.04228314263623       -0.09576696881046
N            4.52726514632183        3.08652503918914       -0.31125301118640
C            4.85710396191637       -0.42767795494033        0.07125827681527
C            3.45487556636246       -0.62704399478154        0.10544765434837
C            2.89111441048019       -1.82176490654334       -0.41269986892222
F            3.73742895024553       -2.73939527158689       -0.92236588908382
C            1.55294073630794       -2.07479122587106       -0.47061933323902
C            0.62084928049070       -1.11845477266786       -0.00211604147330
C           -0.78590572068834       -1.34398374228532       -0.08033971240117
C           -1.30078928696158       -2.65530525259294        0.05124017607016
C           -2.62776547821567       -2.89027281366038        0.23733589895794
C           -3.57323474110055       -1.82095128207480        0.26266891176693
C           -4.93253857028072       -2.04060373544394        0.49904505586519
C           -5.83500239341211       -0.99633326425176        0.48869270177014
C           -5.41571338148207        0.31335694032420        0.19753399988317
C           -6.32237110127447        1.39719250172488        0.14686283469750
C           -5.88638050195612        2.67303114954545       -0.16272297266120
C           -4.55694698466666        2.91427170097052       -0.44193567835334
C           -3.60841934071843        1.86274464685488       -0.40119182590519
C           -2.25683618777317        2.05997211744695       -0.71714028428391
C           -1.34737561023300        1.02129048982733       -0.64172214370465
C           -1.73020068984984       -0.25607457964964       -0.21629567628258
C           -3.10918398568052       -0.50542395566165        0.00495854842796
C           -4.04202021618077        0.55541975070866       -0.06326468486127
C            1.15191942654812        0.04068342869812        0.61086911415997
C            2.49860559406588        0.25486359241854        0.66913801704925
F            2.93230421549645        1.30806738520784        1.38382395230520
H            5.46195167679300       -1.32224967853375       -0.02014721860503
H            1.22126328222841       -2.98529461294715       -0.94260248240629
H           -0.60792569118771       -3.48134149401369        0.09782746296920
H           -2.98765975313718       -3.89554751012690        0.39914593277560
H           -5.27412078612751       -3.04737218015915        0.69129423541184
H           -6.87982349307445       -1.17922838186362        0.69142091133732
H           -7.36657678706232        1.21127967420223        0.34894151545530
H           -6.59639684138125        3.48620605881652       -0.19468539370445
H           -4.22044893287179        3.90758187668477       -0.69770117493680
H           -1.92599628647329        3.03973814226002       -1.02776354799167
H           -0.32676765862681        1.19858269015147       -0.94377003398466
H            0.49963504130075        0.73431875811449        1.11775331488453

 projected vibrational frequencies (cm⁻¹)
eigval :       -0.00    -0.00    -0.00     0.00     0.00     0.00
eigval :       18.72    24.23    35.06    40.61    62.19    89.57
eigval :      100.82   117.38   121.02   148.54   178.25   180.12
eigval :      198.82   201.38   216.68   236.99   239.63   267.59
eigval :      274.75   290.98   323.56   373.00   378.96   392.37
eigval :      402.66   424.50   428.86   435.33   445.88   459.68
eigval :      485.06   491.48   500.46   503.02   514.79   529.12
eigval :      541.82   558.59   576.51   582.99   593.07   608.14
eigval :      626.88   645.71   659.19   671.39   686.27   725.19
eigval :      738.51   756.21   762.93   782.22   785.01   800.83
eigval :      806.89   817.07   826.97   849.13   857.27   858.69
eigval :      874.58   892.54   900.59   909.55   917.61   929.72
eigval :      989.82  1004.36  1032.59  1091.89  1119.34  1129.62
eigval :     1143.54  1164.34  1171.29  1190.91  1192.45  1194.26
eigval :     1207.61  1209.72  1216.25  1231.44  1252.97  1269.19
eigval :     1309.41  1319.53  1326.75  1334.58  1341.77  1359.80
eigval :     1362.03  1381.20  1396.28  1409.74  1426.73  1440.94
eigval :     1444.61  1462.71  1480.60  1488.16  1497.64  1513.30
eigval :     1516.84  1532.62  1558.93  1581.24  2312.21  2343.47
eigval :     3055.73  3077.41  3080.61  3082.73  3085.84  3088.69
eigval :     3090.71  3096.43  3097.61  3099.30  3109.29  3117.03

   temp. (K)  partition function   enthalpy   heat capacity  entropy
                                   cal/mol     cal/K/mol   cal/K/mol   J/K/mol
 298.15  VIB  0.167E+10            13188.403     84.696     79.579
         ROT  0.207E+08              888.752      2.981     36.455
         INT  0.346E+17            14077.156     87.677    116.034
         TR   0.746E+28             1481.254      4.968     43.758
         TOT                       15558.4096    92.6448   159.7920   668.5699

       T/K    H(0)-H(T)+PV         H(T)/Eh          T*S/Eh         G(T)/Eh
   ------------------------------------------------------------------------
    298.15    0.247939E-01    0.313456E+00    0.759224E-01    0.237534E+00
   ------------------------------------------------------------------------

         :::::::::::::::::::::::::::::::::::::::::::::::::::::
         ::                  THERMODYNAMIC                  ::
         :::::::::::::::::::::::::::::::::::::::::::::::::::::
         :: total free energy         -76.733289436491 Eh   ::
         ::.................................................::
         :: total energy              -76.970823472840 Eh   ::
         :: zero point energy           0.288662487891 Eh   ::
         :: G(RRHO) w/o ZPVE           -0.051128451542 Eh   ::
         :: G(RRHO) contrib.            0.237534036349 Eh   ::
         :::::::::::::::::::::::::::::::::::::::::::::::::::::

           -------------------------------------------------
          | TOTAL ENERGY              -76.970823472840 Eh   |
          | TOTAL ENTHALPY            -76.657367081092 Eh   |
          | TOTAL FREE ENERGY         -76.733289436491 Eh   |
          | GRADIENT NORM               0.000123665194 Eh/α |
           -------------------------------------------------

 * finished run on 2025/08/24 at 14:22:03.981
