   * xtb version 6.7.1 (edcfbbe) compiled by 'albert@albert-system' on 2024-07-22

   ID    Z sym.   atoms
    1    7 N      1, 5
    2    6 C      2-4, 6-8, 10-29
    3    9 F      9, 30
    4    1 H      31-42

          program call               : xtb data2507/gas/C-H/C-H_gas_S0_crest.xyz --gfn 2 --ohess vtight --parallel 40 --molden --ceasefiles --namespace data2507/gas/C-H/C-H_gas_S0_finalOpt
          :  Hamiltonian                  GFN2-xTB          :
 * total energy  :   -77.0337974 Eh     change       -0.2276295E-08 Eh
 * total energy  :   -77.0337976 Eh     change       -0.1559012E-06 Eh
 * total energy  :   -77.0337977 Eh     change       -0.1411917E-06 Eh
 * total energy  :   -77.0337979 Eh     change       -0.2044713E-06 Eh
 * total energy  :   -77.0337980 Eh     change       -0.1184007E-06 Eh
 * total energy  :   -77.0337980 Eh     change       -0.2317985E-07 Eh
   *** GEOMETRY OPTIMIZATION CONVERGED AFTER 6 ITERATIONS ***

 final structure:
================
42
 xtb: 6.7.1 (edcfbbe)
N            8.10750654400309        0.77043979489427       -0.08600493848187
C            6.96324513621432        0.73376106655722       -0.05482545516320
C            5.54797691762635        0.68808940321293       -0.00677722542920
C            4.91768286783632        1.95550714729871       -0.05149068027407
N            4.42764188043437        2.98566561248897       -0.15413455037734
C            4.89261539149880       -0.49482020566409       -0.01203712747798
C            3.45639768488899       -0.66266102965614        0.05569341708321
C            2.83015585212759       -1.67359903737339       -0.68535316566257
F            3.60136449800582       -2.46282705341405       -1.45517377547906
C            1.46843961675612       -1.87087161424792       -0.68974180873929
C            0.64657516173579       -1.05241285906433        0.08569973608942
C           -0.80396791237100       -1.27215889909227        0.11031825976193
C           -1.27139837227661       -2.56567027934124        0.33728250927377
C           -2.61832806375263       -2.83373109093962        0.44482425749305
C           -3.55975056368960       -1.81018134631105        0.31913185730224
C           -4.95780870753832       -2.05251287656129        0.44838496365455
C           -5.85839671560332       -1.05112765239763        0.31837314043340
C           -5.44124015698252        0.28308082782511        0.03918846211797
C           -6.35350838491401        1.33019343749449       -0.10218116785358
C           -5.91991830676701        2.61377159170199       -0.37957019137969
C           -4.57174984764103        2.88343665055857       -0.52581945654864
C           -3.62414591202256        1.86748045894696       -0.38982550029879
C           -2.22911834931382        2.10153672404996       -0.55594742836947
C           -1.32301075944180        1.10723194813855       -0.40550297394646
C           -1.72257330220209       -0.21949390874742       -0.06431396204021
C           -3.11004815108185       -0.49320953004951        0.05124954682463
C           -4.05632242749673        0.55067931996399       -0.09885966713108
C            1.23907354525125       -0.07120987380079        0.88054743156956
C            2.60472833399976        0.10880867810930        0.85683866694613
F            3.13966953772605        1.00822000505472        1.69821164128363
H            5.47439653871496       -1.40236852755562       -0.12144187625945
H            1.04933531955302       -2.64746289697484       -1.30968834454700
H           -0.55502630893838       -3.36404079777908        0.46681755714400
H           -2.95523749808098       -3.84153138173403        0.63862531086058
H           -5.28020117829749       -3.06302934625421        0.65505241843278
H           -6.91699507393505       -1.24310255776236        0.41994752109695
H           -7.40887962910925        1.12649158839850        0.00814938968284
H           -6.64065198361354        3.41132920614669       -0.48549001897581
H           -4.23921778772126        3.88703887006016       -0.74805141738642
H           -1.90675265731427        3.09957399018417       -0.81574735386505
H           -0.27428448334606        1.30817267232964       -0.56449848225724
H            0.64376463557857        0.53753099320608        1.54251828639282

          :  Hamiltonian                  GFN2-xTB          :
         :: gradient norm              0.000181450102 Eh/a0 ::
         :: HOMO-LUMO gap              1.508825101435 eV    ::
         :: SCC energy               -78.417913416646 Eh    ::
         :: -> dispersion             -0.056640013508 Eh    ::
         :: repulsion energy           1.384115376375 Eh    ::

    * Orbital Energies and Occupations

         #    Occupation            Energy/Eh            Energy/eV
      -------------------------------------------------------------
         1        2.0000           -0.8465675             -23.0363
       ...           ...                  ...                  ...
        58        2.0000           -0.4546992             -12.3730
        59        2.0000           -0.4514705             -12.2851
        60        2.0000           -0.4485773             -12.2064
        61        2.0000           -0.4447976             -12.1036
        62        2.0000           -0.4390521             -11.9472
        63        2.0000           -0.4362097             -11.8699
        64        2.0000           -0.4341968             -11.8151
        65        2.0000           -0.4264444             -11.6041
        66        2.0000           -0.4240223             -11.5382
        67        2.0000           -0.4214856             -11.4692
        68        2.0000           -0.4189419             -11.4000
        69        2.0000           -0.4073654             -11.0850
        70        2.0000           -0.3808615             -10.3638 (HOMO)
        71                         -0.3254133              -8.8549 (LUMO)
        72                         -0.2943686              -8.0102
        73                         -0.2642789              -7.1914
        74                         -0.2611205              -7.1054
        75                         -0.2513950              -6.8408
        76                         -0.2394147              -6.5148
        77                         -0.2363389              -6.4311
        78                         -0.2208571              -6.0098
        79                         -0.2154116              -5.8616
        80                         -0.2051679              -5.5829
        81                         -0.1964160              -5.3448
       ...                                ...                  ...
       132                          1.1631042              31.6497
      -------------------------------------------------------------
                  HL-Gap            0.0554482 Eh            1.5088 eV

     #   Z          covCN         q      C6AA      α(0)
     1   7 N        0.911    -0.209    25.544     7.310
     2   6 C        1.926     0.121    28.109     8.562
     3   6 C        2.946     0.030    27.322     8.573
     4   6 C        1.919     0.130    27.907     8.531
     5   7 N        0.911    -0.211    25.586     7.316
     6   6 C        2.917     0.010    27.790     8.645
     7   6 C        2.966    -0.021    28.529     8.761
     8   6 C        2.793     0.167    24.396     8.091
     9   9 F        0.787    -0.209    11.328     3.976
    10   6 C        2.920    -0.060    29.495     8.906
    11   6 C        2.983     0.026    27.413     8.589
    12   6 C        2.977     0.000    28.017     8.682
    13   6 C        2.921    -0.034    28.839     8.806
    14   6 C        2.918    -0.036    28.907     8.817
    15   6 C        2.983     0.015    27.682     8.630
    16   6 C        2.913    -0.035    28.878     8.812
    17   6 C        2.914    -0.032    28.808     8.801
    18   6 C        2.982     0.013    27.708     8.634
    19   6 C        2.921    -0.034    28.836     8.806
    20   6 C        2.914    -0.028    28.700     8.785
    21   6 C        2.920    -0.033    28.831     8.805
    22   6 C        2.982     0.014    27.706     8.634
    23   6 C        2.913    -0.032    28.801     8.800
    24   6 C        2.912    -0.038    28.936     8.821
    25   6 C        2.981     0.011    27.771     8.644
    26   6 C        2.995     0.005    27.898     8.664
    27   6 C        2.997     0.005    27.907     8.666
    28   6 C        2.920    -0.058    29.436     8.897
    29   6 C        2.788     0.170    24.340     8.081
    30   9 F        0.788    -0.203    11.267     3.965
    31   1 H        0.925     0.072     2.061     2.245
    32   1 H        0.926     0.075     2.033     2.230
    33   1 H        0.926     0.035     2.510     2.478
    34   1 H        0.926     0.039     2.465     2.455
    35   1 H        0.926     0.036     2.502     2.473
    36   1 H        0.926     0.037     2.493     2.469
    37   1 H        0.926     0.036     2.503     2.474
    38   1 H        0.926     0.036     2.506     2.475
    39   1 H        0.926     0.037     2.485     2.465
    40   1 H        0.926     0.039     2.457     2.451
    41   1 H        0.926     0.035     2.512     2.479
    42   1 H        0.926     0.078     2.000     2.211

molecular dipole:
                 x           y           z       tot (Debye)
 q only:       -2.806      -0.964       0.048
   full:       -3.000      -1.403       0.089       8.420

 projected vibrational frequencies (cm⁻¹)
eigval :       -0.00    -0.00    -0.00    -0.00     0.00     0.00
eigval :       19.94    24.51    31.98    42.81    61.43    82.29
eigval :       94.37   116.10   125.62   142.03   176.92   188.23
eigval :      200.08   206.20   214.14   235.21   243.18   252.80
eigval :      278.18   301.24   324.36   370.94   387.77   396.23
eigval :      400.36   434.00   448.53   460.63   462.38   475.72
eigval :      488.32   495.69   500.64   513.19   518.85   545.93
eigval :      553.43   561.16   578.61   600.52   612.41   626.67
eigval :      646.68   654.10   671.89   680.05   692.30   731.11
eigval :      758.14   766.05   774.27   785.61   802.52   818.96
eigval :      837.46   841.78   848.77   856.99   864.00   888.26
eigval :      893.18   914.26   916.41   921.41   926.13   933.79
eigval :      996.35  1013.72  1048.92  1104.55  1113.31  1132.88
eigval :     1158.01  1161.42  1178.43  1186.51  1193.23  1198.59
eigval :     1213.46  1222.15  1228.62  1241.55  1264.79  1300.85
eigval :     1313.75  1315.27  1325.50  1346.38  1365.37  1387.22
eigval :     1391.44  1412.22  1418.02  1419.19  1450.37  1466.53
eigval :     1487.05  1500.93  1531.03  1542.01  1559.54  1573.99
eigval :     1579.62  1599.59  1604.54  1606.20  2355.34  2381.97
eigval :     3056.72  3070.33  3074.33  3076.03  3076.81  3080.63
eigval :     3083.84  3088.27  3091.10  3094.13  3114.74  3116.01

   temp. (K)  partition function   enthalpy   heat capacity  entropy
                                   cal/mol     cal/K/mol   cal/K/mol   J/K/mol
 298.15  VIB  0.157E+10            13024.435     83.338     78.869
         ROT  0.204E+08              888.752      2.981     36.430
         INT  0.320E+17            13913.188     86.319    115.299
         TR   0.746E+28             1481.254      4.968     43.758
         TOT                       15394.4415    91.2868   159.0573   665.4956

       T/K    H(0)-H(T)+PV         H(T)/Eh          T*S/Eh         G(T)/Eh
   ------------------------------------------------------------------------
    298.15    0.245326E-01    0.316437E+00    0.755732E-01    0.240863E+00
   ------------------------------------------------------------------------

         :::::::::::::::::::::::::::::::::::::::::::::::::::::
         ::                  THERMODYNAMIC                  ::
         :::::::::::::::::::::::::::::::::::::::::::::::::::::
         :: total free energy         -76.792934571213 Eh   ::
         ::.................................................::
         :: total energy              -77.033798040265 Eh   ::
         :: zero point energy           0.291904103185 Eh   ::
         :: G(RRHO) w/o ZPVE           -0.051040634133 Eh   ::
         :: G(RRHO) contrib.            0.240863469052 Eh   ::
         :::::::::::::::::::::::::::::::::::::::::::::::::::::

           -------------------------------------------------
          | TOTAL ENERGY              -77.033798040265 Eh   |
          | TOTAL ENTHALPY            -76.717361332981 Eh   |
          | TOTAL FREE ENERGY         -76.792934571213 Eh   |
          | GRADIENT NORM               0.000181672084 Eh/α |
          | HOMO-LUMO GAP               1.508821929751 eV   |
           -------------------------------------------------

 * finished run on 2025/08/24 at 14:22:00.870
