   * xtb version 6.7.1 (edcfbbe) compiled by 'albert@albert-system' on 2024-07-22

   ID    Z sym.   atoms
    1    7 N      1, 5
    2    6 C      2-4, 6-8, 10-29
    3    9 F      9, 30
    4    1 H      31-42

          program call               : xtb data2507/gas/C-H/C-H.xyz --gfn 2 --ohess vtight --parallel 40 --molden --ceasefiles --namespace data2507/gas/C-H/C-H_gas_S0_preOpt
          :  Hamiltonian                  GFN2-xTB          :
 * total energy  :   -77.0192750 Eh     change       -0.1745704E-08 Eh
 * total energy  :   -77.0271455 Eh     change       -0.7870532E-02 Eh
 * total energy  :   -77.0288387 Eh     change       -0.1693185E-02 Eh
 * total energy  :   -77.0289445 Eh     change       -0.1058187E-03 Eh
 * total energy  :   -77.0295458 Eh     change       -0.6012306E-03 Eh
 * total energy  :   -77.0297923 Eh     change       -0.2464903E-03 Eh
 * total energy  :   -77.0303952 Eh     change       -0.6029976E-03 Eh
 * total energy  :   -77.0309635 Eh     change       -0.5682018E-03 Eh
 * total energy  :   -77.0314753 Eh     change       -0.5118893E-03 Eh
 * total energy  :   -77.0318565 Eh     change       -0.3811095E-03 Eh
 * total energy  :   -77.0337969 Eh     change       -0.3143513E-06 Eh
 * total energy  :   -77.0337971 Eh     change       -0.2132576E-06 Eh
 * total energy  :   -77.0337973 Eh     change       -0.1796508E-06 Eh
 * total energy  :   -77.0337975 Eh     change       -0.1973828E-06 Eh
 * total energy  :   -77.0337977 Eh     change       -0.2184123E-06 Eh
 * total energy  :   -77.0337980 Eh     change       -0.2402555E-06 Eh
 * total energy  :   -77.0337982 Eh     change       -0.1993432E-06 Eh
 * total energy  :   -77.0337983 Eh     change       -0.1210777E-06 Eh
 * total energy  :   -77.0337983 Eh     change       -0.6409761E-07 Eh
   *** GEOMETRY OPTIMIZATION CONVERGED AFTER 59 ITERATIONS ***

 final structure:
================
42
 xtb: 6.7.1 (edcfbbe)
N            8.83674321065761        1.19724842466273        0.11760638736022
C            7.69551452021261        1.10386106134512        0.13906343078483
C            6.28404004249566        0.98674671901597        0.17483602478134
C            5.59784422164715        2.20708109408530        0.38827682243763
N            5.06118011295204        3.21307978435615        0.49717852622715
C            5.68124617141508       -0.19834452467883       -0.07232536422634
C            4.25436278911464       -0.44031297487710       -0.04303671775865
C            3.66821868093447       -1.30620123181110       -0.97582394781542
F            4.46831252077236       -1.88744546792799       -1.88809843465147
C            2.31640726670960       -1.55807109741055       -1.02414797913607
C            1.46448770086301       -0.95081445729420       -0.10106593882996
C            0.02457497081590       -1.23182221685176       -0.12773764154865
C           -0.38778608735484       -2.56271088850506       -0.16931148932733
C           -1.72208485388253       -2.90248072826086       -0.12534115479790
C           -2.70571092843933       -1.91451464188694       -0.04700535207821
C           -4.09211638248626       -2.23555797217511        0.02258305717311
C           -5.03401068383092       -1.26666627853717        0.09213499497789
C           -4.67361913465654        0.11254010143041        0.09048374406935
C           -5.62912523507837        1.12799059076048        0.15786116285505
C           -5.25015381577812        2.45795706558810        0.14777095196393
C           -3.91476863513209        2.80712469324167        0.06709212563323
C           -2.92528852725216        1.82471120806366        0.00091465603026
C           -1.54167468161407        2.14502692973215       -0.10618266600734
C           -0.59453499972101        1.17917620259523       -0.15446540515177
C           -0.93756573507987       -0.20450457596051       -0.09084621225178
C           -2.31207902191994       -0.55309609535396       -0.04080283305307
C           -3.30142993553404        0.45955347361653        0.01748500565960
C            2.01859131927706       -0.12727611552257        0.87890489004777
C            3.37499286951485        0.11341268953912        0.89634893610854
F            3.87544975790835        0.84527528176607        1.90477654321568
H            6.30151935878697       -1.03773759807493       -0.36341722407964
H            1.92757979725616       -2.20972231349719       -1.79040448894297
H            0.36163415600818       -3.34039685349717       -0.20009660534266
H           -2.01615954132371       -3.94171888983829       -0.14094478253453
H           -4.37160021087958       -3.27944273593799        0.01918309654191
H           -6.08341547140029       -1.51883670700119        0.14672183525397
H           -6.67480594629795        0.86274052433302        0.21847904280789
H           -6.00377393261246        3.22999423906155        0.20061503940721
H           -3.62491342719726        3.84779580323259        0.05396375476628
H           -1.26184112353097        3.18743063642167       -0.15692330932656
H            0.44447341965631        1.45135709473121       -0.26335274052250
H            1.40128642400373        0.30757274732098        1.64904725927980

          :  Hamiltonian                  GFN2-xTB          :
         :: gradient norm              0.000031718271 Eh/a0 ::
         :: HOMO-LUMO gap              1.508231972896 eV    ::
         :: SCC energy               -78.417923093104 Eh    ::
         :: -> dispersion             -0.056643112705 Eh    ::
         :: repulsion energy           1.384124749091 Eh    ::

    * Orbital Energies and Occupations

         #    Occupation            Energy/Eh            Energy/eV
      -------------------------------------------------------------
         1        2.0000           -0.8465809             -23.0366
       ...           ...                  ...                  ...
        58        2.0000           -0.4546822             -12.3725
        59        2.0000           -0.4514567             -12.2848
        60        2.0000           -0.4485643             -12.2061
        61        2.0000           -0.4448111             -12.1039
        62        2.0000           -0.4390573             -11.9474
        63        2.0000           -0.4361910             -11.8694
        64        2.0000           -0.4342092             -11.8154
        65        2.0000           -0.4264414             -11.6041
        66        2.0000           -0.4240064             -11.5378
        67        2.0000           -0.4214712             -11.4688
        68        2.0000           -0.4189226             -11.3995
        69        2.0000           -0.4073528             -11.0846
        70        2.0000           -0.3808471             -10.3634 (HOMO)
        71                         -0.3254205              -8.8551 (LUMO)
        72                         -0.2943473              -8.0096
        73                         -0.2642908              -7.1917
        74                         -0.2611065              -7.1051
        75                         -0.2513944              -6.8408
        76                         -0.2393940              -6.5142
        77                         -0.2363209              -6.4306
        78                         -0.2208718              -6.0102
        79                         -0.2154100              -5.8616
        80                         -0.2052213              -5.5844
        81                         -0.1964063              -5.3445
       ...                                ...                  ...
       132                          1.1631079              31.6498
      -------------------------------------------------------------
                  HL-Gap            0.0554266 Eh            1.5082 eV

     #   Z          covCN         q      C6AA      α(0)
     1   7 N        0.911    -0.209    25.544     7.310
     2   6 C        1.926     0.121    28.109     8.562
     3   6 C        2.946     0.030    27.323     8.573
     4   6 C        1.919     0.130    27.907     8.531
     5   7 N        0.911    -0.211    25.586     7.316
     6   6 C        2.917     0.010    27.790     8.645
     7   6 C        2.966    -0.021    28.529     8.761
     8   6 C        2.793     0.167    24.396     8.091
     9   9 F        0.787    -0.209    11.328     3.976
    10   6 C        2.920    -0.060    29.495     8.906
    11   6 C        2.983     0.026    27.413     8.588
    12   6 C        2.977     0.000    28.017     8.682
    13   6 C        2.921    -0.034    28.839     8.806
    14   6 C        2.918    -0.036    28.907     8.817
    15   6 C        2.983     0.015    27.682     8.631
    16   6 C        2.913    -0.035    28.878     8.812
    17   6 C        2.914    -0.032    28.809     8.801
    18   6 C        2.982     0.013    27.708     8.634
    19   6 C        2.921    -0.034    28.836     8.806
    20   6 C        2.914    -0.028    28.700     8.785
    21   6 C        2.920    -0.033    28.831     8.805
    22   6 C        2.982     0.014    27.706     8.634
    23   6 C        2.913    -0.032    28.801     8.800
    24   6 C        2.912    -0.038    28.936     8.821
    25   6 C        2.981     0.011    27.771     8.644
    26   6 C        2.995     0.005    27.898     8.664
    27   6 C        2.997     0.005    27.907     8.666
    28   6 C        2.920    -0.058    29.435     8.897
    29   6 C        2.788     0.170    24.340     8.081
    30   9 F        0.788    -0.203    11.267     3.965
    31   1 H        0.925     0.072     2.061     2.245
    32   1 H        0.926     0.075     2.033     2.230
    33   1 H        0.926     0.035     2.510     2.478
    34   1 H        0.926     0.039     2.465     2.455
    35   1 H        0.926     0.036     2.502     2.473
    36   1 H        0.926     0.037     2.493     2.469
    37   1 H        0.926     0.036     2.503     2.474
    38   1 H        0.926     0.036     2.506     2.475
    39   1 H        0.926     0.037     2.485     2.465
    40   1 H        0.926     0.039     2.457     2.451
    41   1 H        0.926     0.035     2.513     2.479
    42   1 H        0.926     0.078     2.000     2.211

molecular dipole:
                 x           y           z       tot (Debye)
 q only:       -2.759      -1.074      -0.159
   full:       -2.932      -1.519      -0.209       8.411

 projected vibrational frequencies (cm⁻¹)
eigval :       -0.00     0.00     0.00     0.00     0.00     0.00
eigval :       19.78    24.74    31.98    42.88    61.42    82.30
eigval :       94.31   116.16   125.55   142.04   176.95   188.21
eigval :      200.19   206.19   214.19   235.23   243.12   252.76
eigval :      278.29   301.28   324.32   370.97   387.74   396.22
eigval :      400.35   433.98   448.51   460.65   462.39   475.73
eigval :      488.33   495.70   500.63   513.17   518.85   545.87
eigval :      553.48   561.15   578.56   600.55   612.39   626.63
eigval :      646.70   654.12   671.92   680.04   692.30   731.11
eigval :      758.17   766.03   774.29   785.58   802.52   818.99
eigval :      837.45   841.73   848.79   856.97   863.91   888.28
eigval :      893.23   914.21   916.43   921.43   926.13   933.79
eigval :      996.33  1013.75  1048.91  1104.56  1113.28  1132.87
eigval :     1158.15  1161.45  1178.46  1186.51  1193.24  1198.59
eigval :     1213.42  1222.16  1228.58  1241.58  1264.79  1300.91
eigval :     1313.74  1315.29  1325.47  1346.40  1365.34  1387.24
eigval :     1391.43  1412.22  1418.01  1419.18  1450.36  1466.50
eigval :     1487.05  1500.92  1531.05  1542.01  1559.53  1573.96
eigval :     1579.59  1599.57  1604.52  1606.18  2355.43  2382.14
eigval :     3056.84  3070.24  3074.32  3075.99  3076.83  3080.62
eigval :     3083.76  3088.22  3091.08  3094.15  3115.14  3115.52

   temp. (K)  partition function   enthalpy   heat capacity  entropy
                                   cal/mol     cal/K/mol   cal/K/mol   J/K/mol
 298.15  VIB  0.156E+10            13024.176     83.340     78.869
         ROT  0.204E+08              888.752      2.981     36.430
         INT  0.319E+17            13912.929     86.321    115.299
         TR   0.746E+28             1481.254      4.968     43.758
         TOT                       15394.1827    91.2892   159.0568   665.4938

       T/K    H(0)-H(T)+PV         H(T)/Eh          T*S/Eh         G(T)/Eh
   ------------------------------------------------------------------------
    298.15    0.245322E-01    0.316437E+00    0.755730E-01    0.240864E+00
   ------------------------------------------------------------------------

         :::::::::::::::::::::::::::::::::::::::::::::::::::::
         ::                  THERMODYNAMIC                  ::
         :::::::::::::::::::::::::::::::::::::::::::::::::::::
         :: total free energy         -76.792934699143 Eh   ::
         ::.................................................::
         :: total energy              -77.033798344008 Eh   ::
         :: zero point energy           0.291904493173 Eh   ::
         :: G(RRHO) w/o ZPVE           -0.051040848308 Eh   ::
         :: G(RRHO) contrib.            0.240863644865 Eh   ::
         :::::::::::::::::::::::::::::::::::::::::::::::::::::

           -------------------------------------------------
          | TOTAL ENERGY              -77.033798344008 Eh   |
          | TOTAL ENTHALPY            -76.717361659113 Eh   |
          | TOTAL FREE ENERGY         -76.792934699143 Eh   |
          | GRADIENT NORM               0.000031677955 Eh/α |
          | HOMO-LUMO GAP               1.508234270534 eV   |
           -------------------------------------------------

 * finished run on 2025/08/24 at 14:21:03.664
