   * xtb version 6.7.1 (edcfbbe) compiled by 'albert@albert-system' on 2024-07-22

   ID    Z sym.   atoms
    1    6 C      1-28, 30-45, 47-63
    2    7 N      29, 46
    3    1 H      64-101

          program call               : xtb data2507/toluene/PyIAnTPh/PyIAnTPh_toluene_T1_crest.xyz --gfn 2 --uhf 2 --gbsa toluene --ohess vtight --parallel 40 --molden --ceasefiles --namespace data2507/toluene/PyIAnTPh/PyIAnTPh_toluene_T1_finalOpt
      * Solvation model:               GBSA
        Solvent                        toluene
        Solvent mass                       9.2140E+01 g/mol
          :  Hamiltonian                  GFN2-xTB          :
 * total energy  :  -155.9166875 Eh     change       -0.4640725E-08 Eh
 * total energy  :  -155.9167379 Eh     change       -0.5039850E-04 Eh
 * total energy  :  -155.9167645 Eh     change       -0.2664101E-04 Eh
 * total energy  :  -155.9167750 Eh     change       -0.1051957E-04 Eh
 * total energy  :  -155.9167830 Eh     change       -0.7966219E-05 Eh
 * total energy  :  -155.9167894 Eh     change       -0.6410358E-05 Eh
 * total energy  :  -155.9167972 Eh     change       -0.7832550E-05 Eh
 * total energy  :  -155.9168072 Eh     change       -0.1000741E-04 Eh
 * total energy  :  -155.9168160 Eh     change       -0.8766762E-05 Eh
 * total energy  :  -155.9168217 Eh     change       -0.5667956E-05 Eh
 * total energy  :  -155.9169055 Eh     change       -0.1414592E-05 Eh
 * total energy  :  -155.9169068 Eh     change       -0.1219485E-05 Eh
 * total energy  :  -155.9169071 Eh     change       -0.3991972E-06 Eh
 * total energy  :  -155.9169086 Eh     change       -0.1466498E-05 Eh
 * total energy  :  -155.9169091 Eh     change       -0.5101823E-06 Eh
 * total energy  :  -155.9169094 Eh     change       -0.2719306E-06 Eh
 * total energy  :  -155.9169098 Eh     change       -0.4085210E-06 Eh
 * total energy  :  -155.9169101 Eh     change       -0.3167574E-06 Eh
 * total energy  :  -155.9169102 Eh     change       -0.3834703E-07 Eh
   *** GEOMETRY OPTIMIZATION CONVERGED AFTER 50 ITERATIONS ***

 final structure:
================
101
 xtb: 6.7.1 (edcfbbe)
C           -9.73440485741424        3.33427005300059       -3.74250178762516
C          -10.19052810598967        2.04236145185262       -3.53820091132842
C           -9.53599309038916        1.20510854924890       -2.65339145833101
C           -8.41042133160138        1.64530593767924       -1.96032241090816
C           -7.71387998920621        0.75574596548141       -1.01635129948447
C           -8.43669721280133       -0.06573841346175       -0.15558402643377
C           -7.78783850815466       -0.91699927723797        0.73462451820987
C           -8.56175036289211       -1.77672661550817        1.64533360737047
C           -8.17189359535031       -3.09368296662757        1.87979458047111
C           -8.90315607638887       -3.90433407445662        2.72849823867870
C          -10.03266698640164       -3.41191512109310        3.36136625459721
C          -10.42713764699187       -2.10285472907781        3.13874274312176
C           -9.69963689206466       -1.29213390542983        2.28676856673941
C           -6.39828080444993       -0.94544542637421        0.75131980279010
C           -5.65221455268615       -0.12743760614182       -0.09715689192020
C           -4.18844535235001       -0.16233574288224       -0.06978199432104
C           -3.50422234226981       -1.38597168305547       -0.32237189875897
C           -4.19439201013854       -2.55814904152504       -0.65641903720359
C           -3.53592569859061       -3.77494577968674       -0.79165763423692
C           -2.17346634355243       -3.84300484039673       -0.58156921488958
C           -1.45532475964209       -2.68194566134886       -0.30811718404963
C           -2.08010880096174       -1.43338554007888       -0.23945468797366
C           -1.33730042317083       -0.22542101341488       -0.03348635083809
C            0.11001645030196       -0.25543770316875       -0.03116017500042
C            0.83210146139862       -0.87580387765469       -1.06711975235308
C            2.20383829895476       -0.87542126960341       -1.07566004319972
C            2.93684077394603       -0.27016105344438       -0.04231597593976
C            4.37622308774714       -0.31858370065836       -0.12146394933919
N            5.01321414066841       -1.25073545541920       -0.80165861113848
C            6.33319687569237       -0.99632160873796       -0.64880240955435
C            7.43140427816565       -1.73684857762803       -1.17510855985944
C            7.26908933273361       -2.87855307165343       -1.95210127166407
C            8.37600301870809       -3.56336435817861       -2.42604923845958
C            9.64882859379453       -3.11750754962526       -2.13159510779758
C            9.84940142132706       -1.96935328012975       -1.35789952857569
C           11.15824959759880       -1.49265115767299       -1.05794048300327
C           11.33927231953559       -0.36686009133433       -0.33108622400516
C           10.23184407299347        0.38188062366565        0.16556690567093
C           10.42858701061094        1.56068162490484        0.89203923884987
C            9.35148847451707        2.29095091681557        1.34835526837606
C            8.05751229267685        1.85726846289850        1.11524497675317
C            7.81206857084770        0.67401321973267        0.41774469433777
C            8.91522838145439       -0.07424752291195       -0.09218762164852
C            8.72832566596994       -1.25601918048143       -0.86468092933219
C            6.51991703413295        0.14331862757323        0.14226583266126
N            5.25383726540875        0.56192125445564        0.48027347090446
C            4.89251479312259        1.70397517755471        1.22984045663068
C            5.12104367963921        1.73982283728510        2.60245571569414
C            4.74498941551366        2.85529177968182        3.32899364504928
C            4.14041861606298        3.92926770541312        2.69448921156995
C            3.91358121521084        3.89048293925258        1.32849861588793
C            4.28856568387650        2.78081356900173        0.59147128228429
C            2.22488681359924        0.30897937076382        1.01581345281365
C            0.85068922354944        0.32840441963315        1.01027448501011
C           -2.03030526970651        1.01281584764724        0.16678295092224
C           -1.35446097238928        2.23255929546255        0.26680627800054
C           -2.02859418039870        3.42085319590702        0.53479290511613
C           -3.39816597722164        3.41103779092471        0.70543576412010
C           -4.10478538202474        2.22597112998417        0.53642481742286
C           -3.45699329577768        1.02764374570917        0.21068853741716
C           -6.32500575855372        0.72322683190282       -0.97443478490467
C           -7.95766057862906        2.94497490663435       -2.17708459466181
C           -8.61622227028780        3.78242898063213       -3.05870482723433
H          -10.24769057113824        3.98860682054409       -4.43215500179105
H          -11.05943511325775        1.68499482936817       -4.07243793482090
H           -9.88757701555020        0.19311619336001       -2.51169522487677
H           -9.51609746459120       -0.04231165220571       -0.17891474384010
H           -7.29981811104091       -3.48941918675229        1.37933045363668
H           -8.59142922995171       -4.92559155114404        2.89586944460246
H          -10.60271078959361       -4.04539046769628        4.02546872253917
H          -11.30513885562419       -1.71149096431751        3.63273768958795
H          -10.00430310740625       -0.26710501044179        2.13063936553175
H           -5.88231359691956       -1.57575085263393        1.46104954304105
H           -5.26151568458920       -2.51529147675213       -0.81301793482305
H           -4.09775227271031       -4.66256943932826       -1.04334232156134
H           -1.65497594053484       -4.78871494438103       -0.63858765561286
H           -0.39246314280024       -2.75524853239744       -0.13678339858139
H            0.29069806388478       -1.31110644973929       -1.89446723330663
H            2.75087731201431       -1.33017608533880       -1.88718174334540
H            6.26687162727060       -3.21431252666557       -2.17001778583580
H            8.24112897569059       -4.45069216108380       -3.02763898150189
H           10.51110569033715       -3.65353711090026       -2.50222327794482
H           12.00345875506174       -2.05243052024920       -1.43283387599295
H           12.33351370043677       -0.00373013002062       -0.11196321483136
H           11.43721312952397        1.89807853402954        1.08252533841066
H            9.51192232332000        3.20994840234413        1.89334860116021
H            7.23265672008175        2.45074032886031        1.47436238663647
H            5.59095272947855        0.89501702472810        3.08552074767193
H            4.92221122738335        2.88277340567518        4.39362235208932
H            3.84668968544034        4.79643647489207        3.26620947177465
H            3.44431919493961        4.72633154092158        0.83197179092257
H            4.11490925434103        2.73714704666085       -0.47380094829493
H            2.74866416408503        0.72037581984457        1.86418925770663
H            0.32319595538514        0.75195458743852        1.85278378717019
H           -0.28495181565642        2.26104722943993        0.12630341034392
H           -1.47138562990495        4.34231466799293        0.61793760750491
H           -3.92783050323305        4.31978100061854        0.95146554463475
H           -5.17705245414822        2.22822802142781        0.66041369766435
H           -5.75243328282807        1.33008450586574       -1.66087083717740
H           -7.09415749839738        3.30620181737224       -1.63722153692600
H           -8.25691592959931        4.79016689839384       -3.21178548810795

          :  Hamiltonian                  GFN2-xTB          :
         :: gradient norm              0.000090983353 Eh/a0 ::
         :: HOMO-LUMO gap              0.413051557721 eV    ::
         :: SCC energy              -158.911330359938 Eh    ::
         :: -> dispersion             -0.150071751760 Eh    ::
         :: -> Gsolv                  -0.064510594528 Eh    ::
         :: repulsion energy           2.994420198152 Eh    ::

    * Orbital Energies and Occupations

         #    Occupation            Energy/Eh            Energy/eV
      -------------------------------------------------------------
         1        2.0000           -0.6887846             -18.7428
       ...           ...                  ...                  ...
       135        2.0000           -0.4034978             -10.9797
       136        2.0000           -0.4034495             -10.9784
       137        2.0000           -0.4029054             -10.9636
       138        2.0000           -0.3998962             -10.8817
       139        2.0000           -0.3970921             -10.8054
       140        2.0000           -0.3903675             -10.6224
       141        2.0000           -0.3879559             -10.5568
       142        2.0000           -0.3861013             -10.5064
       143        2.0000           -0.3819302             -10.3928
       144        2.0000           -0.3801094             -10.3433
       145        1.9990           -0.3614221              -9.8348
       146        1.0010           -0.3482321              -9.4759
       147        0.9997           -0.2887912              -7.8584 (HOMO)
       148        0.0003           -0.2736116              -7.4453 (LUMO)
       149                         -0.2574474              -7.0055
       150                         -0.2481231              -6.7518
       151                         -0.2436799              -6.6309
       152                         -0.2410463              -6.5592
       153                         -0.2391568              -6.5078
       154                         -0.2381699              -6.4809
       155                         -0.2270011              -6.1770
       156                         -0.2243792              -6.1057
       157                         -0.2217237              -6.0334
       158                         -0.2216842              -6.0323
       ...                                ...                  ...
       290                          0.7290408              19.8382
      -------------------------------------------------------------
                  HL-Gap            0.0151797 Eh            0.4131 eV

     #   Z          covCN         q      C6AA      α(0)
     1   6 C        2.920    -0.032    28.802     8.801
     2   6 C        2.918    -0.031    28.767     8.795
     3   6 C        2.925    -0.034    28.858     8.810
     4   6 C        2.977     0.009    27.803     8.649
     5   6 C        2.972     0.008    27.834     8.654
     6   6 C        2.930    -0.042    29.043     8.838
     7   6 C        2.972     0.008    27.834     8.654
     8   6 C        2.977     0.009    27.803     8.649
     9   6 C        2.925    -0.034    28.854     8.809
    10   6 C        2.918    -0.031    28.765     8.795
    11   6 C        2.920    -0.032    28.802     8.801
    12   6 C        2.918    -0.031    28.767     8.795
    13   6 C        2.925    -0.034    28.859     8.810
    14   6 C        2.929    -0.039    28.981     8.829
    15   6 C        2.971     0.014    27.690     8.632
    16   6 C        2.974    -0.011    28.282     8.723
    17   6 C        2.978     0.008    27.829     8.653
    18   6 C        2.921    -0.038    28.948     8.823
    19   6 C        2.913    -0.032    28.790     8.798
    20   6 C        2.914    -0.032    28.806     8.801
    21   6 C        2.921    -0.038    28.951     8.823
    22   6 C        2.977     0.008    27.843     8.655
    23   6 C        2.971    -0.011    28.276     8.722
    24   6 C        2.972     0.015    27.663     8.627
    25   6 C        2.920    -0.032    28.810     8.802
    26   6 C        2.925    -0.031    28.776     8.797
    27   6 C        2.972    -0.008    28.205     8.711
    28   6 C        3.178     0.135    24.678     8.111
    29   7 N        1.894    -0.319    29.110     7.999
    30   6 C        3.195     0.064    26.075     8.325
    31   6 C        2.978    -0.004    28.120     8.698
    32   6 C        2.919    -0.033    28.820     8.804
    33   6 C        2.914    -0.031    28.776     8.796
    34   6 C        2.921    -0.038    28.955     8.824
    35   6 C        2.983     0.010    27.778     8.645
    36   6 C        2.913    -0.036    28.903     8.816
    37   6 C        2.914    -0.038    28.941     8.822
    38   6 C        2.983     0.011    27.755     8.642
    39   6 C        2.920    -0.039    28.976     8.827
    40   6 C        2.913    -0.032    28.804     8.801
    41   6 C        2.917    -0.042    29.055     8.839
    42   6 C        2.972    -0.007    28.180     8.708
    43   6 C        2.994    -0.005    28.131     8.700
    44   6 C        2.994    -0.007    28.183     8.708
    45   6 C        3.069     0.025    27.382     8.580
    46   7 N        2.837    -0.056    22.318     7.016
    47   6 C        2.912     0.067    26.491     8.440
    48   6 C        2.920    -0.037    28.916     8.818
    49   6 C        2.920    -0.026    28.651     8.778
    50   6 C        2.919    -0.028    28.705     8.786
    51   6 C        2.920    -0.025    28.616     8.772
    52   6 C        2.921    -0.037    28.922     8.819
    53   6 C        2.917    -0.039    28.974     8.827
    54   6 C        2.921    -0.034    28.836     8.806
    55   6 C        2.976     0.008    27.846     8.656
    56   6 C        2.921    -0.039    28.971     8.827
    57   6 C        2.914    -0.033    28.822     8.803
    58   6 C        2.913    -0.032    28.800     8.800
    59   6 C        2.921    -0.038    28.954     8.824
    60   6 C        2.978     0.008    27.830     8.653
    61   6 C        2.929    -0.039    28.978     8.828
    62   6 C        2.925    -0.034    28.854     8.809
    63   6 C        2.918    -0.031    28.766     8.795
    64   1 H        0.926     0.030     2.585     2.514
    65   1 H        0.926     0.030     2.580     2.512
    66   1 H        0.926     0.032     2.556     2.500
    67   1 H        0.926     0.034     2.523     2.484
    68   1 H        0.926     0.032     2.555     2.500
    69   1 H        0.926     0.030     2.579     2.511
    70   1 H        0.926     0.030     2.585     2.514
    71   1 H        0.926     0.030     2.579     2.511
    72   1 H        0.926     0.032     2.555     2.500
    73   1 H        0.926     0.034     2.537     2.491
    74   1 H        0.926     0.033     2.544     2.494
    75   1 H        0.926     0.030     2.589     2.516
    76   1 H        0.926     0.030     2.584     2.514
    77   1 H        0.926     0.035     2.522     2.484
    78   1 H        0.926     0.040     2.445     2.445
    79   1 H        0.926     0.047     2.362     2.403
    80   1 H        0.926     0.044     2.397     2.421
    81   1 H        0.926     0.035     2.522     2.483
    82   1 H        0.926     0.035     2.511     2.478
    83   1 H        0.926     0.036     2.504     2.474
    84   1 H        0.926     0.036     2.507     2.476
    85   1 H        0.926     0.035     2.519     2.482
    86   1 H        0.926     0.033     2.548     2.496
    87   1 H        0.926     0.030     2.588     2.516
    88   1 H        0.926     0.041     2.430     2.438
    89   1 H        0.926     0.048     2.349     2.397
    90   1 H        0.926     0.048     2.344     2.394
    91   1 H        0.926     0.048     2.349     2.397
    92   1 H        0.926     0.038     2.472     2.459
    93   1 H        0.926     0.029     2.603     2.523
    94   1 H        0.926     0.038     2.475     2.460
    95   1 H        0.926     0.033     2.538     2.491
    96   1 H        0.926     0.030     2.588     2.516
    97   1 H        0.926     0.030     2.593     2.518
    98   1 H        0.926     0.032     2.552     2.498
    99   1 H        0.926     0.033     2.538     2.491
   100   1 H        0.926     0.032     2.555     2.500
   101   1 H        0.926     0.031     2.579     2.511

molecular dipole:
                 x           y           z       tot (Debye)
 q only:       -0.350       1.025       0.668
   full:       -0.166       1.284       0.856       3.944

 projected vibrational frequencies (cm⁻¹)
eigval :       -0.00    -0.00     0.00     0.00     0.00     0.00
eigval :       -7.35     7.73    11.46    18.14    19.06    27.69
eigval :       33.56    40.27    42.41    44.46    47.79    49.16
eigval :       51.04    66.77    71.64    81.63    85.53    92.47
eigval :       98.72   109.69   111.27   122.16   125.22   143.41
eigval :      169.51   170.29   174.52   186.00   203.97   209.98
eigval :      219.42   227.92   229.96   233.01   248.98   262.67
eigval :      269.86   277.03   279.19   280.32   306.78   324.67
eigval :      327.95   351.41   354.98   366.36   372.91   374.04
eigval :      375.55   376.86   379.48   383.33   392.52   394.86
eigval :      410.47   423.07   424.26   425.03   433.77   441.95
eigval :      452.87   468.24   469.64   470.62   488.88   490.19
eigval :      507.88   520.19   522.17   532.04   536.14   553.79
eigval :      570.31   571.60   581.22   581.36   583.03   585.36
eigval :      588.12   595.40   596.16   598.17   605.07   611.69
eigval :      628.94   629.80   631.67   642.26   659.43   661.34
eigval :      669.01   673.22   673.92   677.72   681.27   682.15
eigval :      693.05   695.75   701.49   709.94   719.47   727.04
eigval :      748.97   749.34   757.40   757.81   761.65   763.49
eigval :      771.08   772.96   781.25   794.19   820.47   826.84
eigval :      836.22   838.86   847.04   852.43   868.27   874.97
eigval :      875.44   875.91   877.52   886.33   889.64   891.78
eigval :      892.13   893.47   899.28   901.11   901.86   903.53
eigval :      904.03   906.19   907.83   911.38   914.48   919.09
eigval :      922.82   929.17   929.38   930.03   931.31   931.73
eigval :      932.71   933.43   934.35   936.77   941.95   945.96
eigval :      954.62   985.08   988.25   994.82   996.54  1006.39
eigval :     1021.81  1076.93  1083.26  1084.86  1093.97  1101.03
eigval :     1101.94  1104.85  1108.50  1114.64  1115.94  1118.66
eigval :     1119.83  1122.19  1123.15  1135.67  1136.97  1141.11
eigval :     1156.02  1178.25  1179.33  1179.72  1180.52  1181.68
eigval :     1181.88  1182.18  1183.82  1188.73  1191.98  1200.26
eigval :     1201.73  1202.87  1205.25  1220.71  1229.66  1232.09
eigval :     1242.48  1243.12  1249.97  1254.41  1268.02  1273.28
eigval :     1275.60  1282.11  1282.55  1285.29  1295.33  1297.86
eigval :     1304.73  1307.10  1309.26  1310.69  1316.47  1317.00
eigval :     1319.56  1324.08  1330.04  1353.10  1356.52  1361.98
eigval :     1367.50  1373.28  1377.48  1384.41  1394.25  1396.00
eigval :     1409.24  1412.87  1413.79  1414.79  1418.59  1419.33
eigval :     1431.30  1434.45  1435.23  1441.94  1466.34  1472.69
eigval :     1476.68  1479.72  1480.78  1483.12  1489.56  1493.45
eigval :     1504.77  1525.20  1525.96  1526.58  1529.40  1545.43
eigval :     1555.18  1559.54  1560.50  1568.56  1571.99  1580.45
eigval :     1580.63  1581.91  1584.11  1589.93  1598.48  1598.67
eigval :     1605.27  3064.42  3065.79  3066.14  3067.33  3067.67
eigval :     3068.36  3071.49  3071.64  3072.23  3075.71  3075.94
eigval :     3076.17  3077.00  3078.65  3078.88  3079.10  3079.88
eigval :     3080.24  3080.87  3081.04  3081.57  3082.21  3082.96
eigval :     3083.14  3085.32  3087.67  3087.85  3088.51  3091.42
eigval :     3092.17  3093.17  3095.55  3097.56  3099.55  3099.73
eigval :     3101.77  3105.80  3120.32

   temp. (K)  partition function   enthalpy   heat capacity  entropy
                                   cal/mol     cal/K/mol   cal/K/mol   J/K/mol
 298.15  VIB  0.856E+23            28713.335    182.812    179.142
         ROT  0.236E+09              888.752      2.981     41.297
         INT  0.202E+32            29602.087    185.793    220.439
         TR   0.219E+29             1481.254      4.968     45.892
         TOT                       31083.3412   190.7611   266.3306  1114.3274

       T/K    H(0)-H(T)+PV         H(T)/Eh          T*S/Eh         G(T)/Eh
   ------------------------------------------------------------------------
    298.15    0.495345E-01    0.822939E+00    0.126542E+00    0.696397E+00
   ------------------------------------------------------------------------

         :::::::::::::::::::::::::::::::::::::::::::::::::::::
         ::                  THERMODYNAMIC                  ::
         :::::::::::::::::::::::::::::::::::::::::::::::::::::
         :: total free energy        -155.220513510958 Eh   ::
         ::.................................................::
         :: total energy             -155.916910159859 Eh   ::
         :: zero point energy           0.773404477533 Eh   ::
         :: G(RRHO) w/o ZPVE           -0.077007828633 Eh   ::
         :: G(RRHO) contrib.            0.696396648901 Eh   ::
         :::::::::::::::::::::::::::::::::::::::::::::::::::::

           -------------------------------------------------
          | TOTAL ENERGY             -155.916910159859 Eh   |
          | TOTAL ENTHALPY           -155.093971225109 Eh   |
          | TOTAL FREE ENERGY        -155.220513510958 Eh   |
          | GRADIENT NORM               0.000090886111 Eh/α |
          | HOMO-LUMO GAP               0.413059480714 eV   |
           -------------------------------------------------

 * finished run on 2025/07/19 at 14:05:47.105
