   * xtb version 6.7.1 (edcfbbe) compiled by 'albert@albert-system' on 2024-07-22

   ID    Z sym.   atoms
    1    6 C      1-28, 30-45, 47-63
    2    7 N      29, 46
    3    1 H      64-101

          program call               : xtb data2507/toluene/PyIAnTPh/PyIAnTPh.xyz --gfn 2 --gbsa toluene --ohess vtight --parallel 40 --molden --ceasefiles --namespace data2507/toluene/PyIAnTPh/PyIAnTPh_toluene_S0_preOpt
      * Solvation model:               GBSA
        Solvent                        toluene
        Solvent mass                       9.2140E+01 g/mol
          :  Hamiltonian                  GFN2-xTB          :
 * total energy  :  -155.9577896 Eh     change       -0.1899053E-08 Eh
 * total energy  :  -155.9752362 Eh     change       -0.1744665E-01 Eh
 * total energy  :  -155.9800039 Eh     change       -0.4767655E-02 Eh
 * total energy  :  -155.9809587 Eh     change       -0.9548452E-03 Eh
 * total energy  :  -155.9815858 Eh     change       -0.6270945E-03 Eh
 * total energy  :  -155.9818901 Eh     change       -0.3042796E-03 Eh
 * total energy  :  -155.9822069 Eh     change       -0.3167859E-03 Eh
 * total energy  :  -155.9825369 Eh     change       -0.3300842E-03 Eh
 * total energy  :  -155.9828243 Eh     change       -0.2873146E-03 Eh
 * total energy  :  -155.9830904 Eh     change       -0.2660868E-03 Eh
 * total energy  :  -155.9845398 Eh     change       -0.6748826E-06 Eh
 * total energy  :  -155.9845406 Eh     change       -0.8103427E-06 Eh
 * total energy  :  -155.9845413 Eh     change       -0.7159411E-06 Eh
 * total energy  :  -155.9845418 Eh     change       -0.4409689E-06 Eh
 * total energy  :  -155.9845421 Eh     change       -0.3300434E-06 Eh
 * total energy  :  -155.9845424 Eh     change       -0.3484490E-06 Eh
 * total energy  :  -155.9845429 Eh     change       -0.4197097E-06 Eh
 * total energy  :  -155.9845433 Eh     change       -0.4782987E-06 Eh
 * total energy  :  -155.9845433 Eh     change       -0.5646939E-08 Eh
   *** GEOMETRY OPTIMIZATION CONVERGED AFTER 68 ITERATIONS ***

 final structure:
================
101
 xtb: 6.7.1 (edcfbbe)
C           -9.64161104771240        3.80365648673752        3.09325939751028
C          -10.07224687407943        3.48057009194915        1.81692134365907
C           -9.35777739843478        2.57895666447611        1.04946180242467
C           -8.19727310170012        1.98878524145917        1.54480024488008
C           -7.43669597222282        1.02741458675060        0.72966383458871
C           -8.09642793038716        0.05046784577991       -0.00878758439181
C           -7.38944707046234       -0.87282948077913       -0.77243019322424
C           -8.10055915428323       -1.91104116287052       -1.53631110105789
C           -7.62922498260208       -3.22178943263728       -1.56106030528623
C           -8.30312349776714       -4.19882028677009       -2.27077022608201
C           -9.45520631895878       -3.88179177710757       -2.97152859147169
C           -9.93004042680436       -2.58060733408580       -2.95776080484139
C           -9.25995998002720       -1.60348999952442       -2.24469732577381
C           -5.99940850484064       -0.80576317793869       -0.79532568116526
C           -5.32530750466737        0.16763801611219       -0.06948840248111
C           -3.84485553485238        0.22813961375830       -0.10277158285543
C           -3.20146708008821        1.12231120202910       -0.96760855457003
C           -3.93559356274720        1.98181996918444       -1.82730283953376
C           -3.30355606585943        2.83176776703850       -2.68158032579722
C           -1.89522487560782        2.86336437044349       -2.73820924668087
C           -1.15505085565789        2.05522664607504       -1.93075751646229
C           -1.77275343349501        1.16970615190918       -1.00794139212278
C           -1.02377109088624        0.33285015963307       -0.16682781590331
C            0.45242846446943        0.38593618938968       -0.20047516449586
C            1.13390537310183        1.51883651844859        0.23944410344657
C            2.51290691960839        1.56063311240764        0.22022178534665
C            3.24867361485792        0.46520108372717       -0.23188663057779
C            4.70155610931882        0.54914306606716       -0.22309836551616
N            5.36681940259424        1.62982693622413       -0.55031379430220
C            6.68306374605396        1.31081180161667       -0.42377332074827
C            7.81193130613298        2.13622179718429       -0.69770371792225
C            7.70024314461633        3.43945150323781       -1.17012227607689
C            8.83668234432920        4.18402013877458       -1.43780135881637
C           10.08975802132198        3.64124764247291       -1.23288640199496
C           10.23958895906609        2.33671785866315       -0.75262543283726
C           11.52727975434286        1.76979116624775       -0.52365631034438
C           11.65969605504964        0.51733863129882       -0.03251187789668
C           10.52029239898584       -0.28663828755089        0.26733820662454
C           10.66435113603200       -1.57012439214824        0.80210634600225
C            9.55584365067330       -2.32943982927895        1.11176682218015
C            8.28108670621850       -1.84565033380637        0.86936966619213
C            8.08977973952791       -0.58392498002460        0.30880883255758
C            9.22383425415382        0.23244691375883        0.02510552266119
C            9.08756290707756        1.55786339344152       -0.47819489276439
C            6.82021286964067       -0.00728952371798        0.01312892557978
N            5.53499930229356       -0.48883482890862        0.12557883432817
C            5.10056492239327       -1.77398848601559        0.51594641923603
C            5.41399548984296       -2.88330662678074       -0.26373451323019
C            4.95491949428465       -4.13359512625520        0.10927840294329
C            4.17842590505385       -4.28006683299963        1.24795796443263
C            3.86358360149883       -3.17354343301062        2.01926014932150
C            4.32254256068716       -1.91893685743940        1.65817951045317
C            2.56857355429446       -0.65822504083566       -0.69840330476683
C            1.18838278754436       -0.69491498633303       -0.67889334490529
C           -1.66945772259584       -0.55589479433563        0.70628942469650
C           -0.94701666687401       -1.39389823299595        1.59708790107705
C           -1.58790411628454       -2.25353862551885        2.43565304376304
C           -2.99590616201749       -2.32453651447698        2.44478694268973
C           -3.72671966505870       -1.52362640784675        1.62254603979577
C           -3.09810267005783       -0.61384908686893        0.73121216990040
C           -6.04621725490107        1.07856836599697        0.69133352125973
C           -7.77098541867843        2.32398664784716        2.82796900454546
C           -8.48980056092464        3.22135811562498        3.59635916057293
H          -10.20146238458493        4.50623652519242        3.69341765243184
H          -10.96802919181087        3.93471500227198        1.41765395592241
H           -9.69045209793839        2.34260211766011        0.04882417435714
H           -9.17327267986932       -0.01751838495612        0.04369421228508
H           -6.73963911225060       -3.47887815729059       -1.00387222635910
H           -7.92952059480760       -5.21295095424445       -2.27585499211189
H           -9.98060802618492       -4.64546813566211       -3.52645922806314
H          -10.82568942160481       -2.32622189503546       -3.50658778664617
H           -9.62708654845746       -0.58720241427088       -2.25073903640483
H           -5.43454481676104       -1.50287272344636       -1.39741826474497
H           -5.01449619013384        1.94411435313840       -1.79070229106635
H           -3.87440389205380        3.48146229365654       -3.32913692764509
H           -1.40820674225012        3.53207153444071       -3.43325759952883
H           -0.07677361626027        2.07393599915360       -1.98617851282073
H            0.57240817875182        2.36575125181968        0.60681817085138
H            3.04327518925950        2.43715458894213        0.56047266388865
H            6.71330836405442        3.84779335610812       -1.32531867604507
H            8.74136233271694        5.19444802338206       -1.80871265750552
H           10.97494837958292        4.22572273542338       -1.44060030290127
H           12.39651744865623        2.37257238069974       -0.74635677472474
H           12.63793939639019        0.09465380802319        0.14905757314859
H           11.65761306693790       -1.95592057255260        0.98158906691389
H            9.67600213026165       -3.31161989993807        1.54574795054395
H            7.42955198599968       -2.45374017733649        1.12935863486302
H            6.01517286331561       -2.75627064736920       -1.15268762978655
H            5.20080142140607       -4.99351889514020       -0.49549891151140
H            3.81905335044726       -5.25712895589449        1.53314177085572
H            3.25952556035516       -3.28457858792512        2.90702055378906
H            4.08246390902934       -1.04914713188291        2.25207657216870
H            3.11600029374738       -1.49964742918167       -1.09569089100506
H            0.66944105788829       -1.56823178533872       -1.04705160853590
H            0.13115772290726       -1.33364966296113        1.60161953433397
H           -1.02262749477705       -2.88505361517453        3.10580548071647
H           -3.48773601415016       -3.01288952104538        3.11692792896085
H           -4.80613847804891       -1.56393588004943        1.63684981946992
H           -5.51848239358100        1.84224542885696        1.24435703042213
H           -6.88116503038013        1.86196564426770        3.23121566968590
H           -8.15099991933206        3.46687856672136        4.59287677602314

          :  Hamiltonian                  GFN2-xTB          :
         :: gradient norm              0.000066493761 Eh/a0 ::
         :: HOMO-LUMO gap              2.109344945966 eV    ::
         :: SCC energy              -158.998937046308 Eh    ::
         :: -> dispersion             -0.149640181748 Eh    ::
         :: -> Gsolv                  -0.065292245420 Eh    ::
         :: repulsion energy           3.014393708990 Eh    ::

    * Orbital Energies and Occupations

         #    Occupation            Energy/Eh            Energy/eV
      -------------------------------------------------------------
         1        2.0000           -0.6891516             -18.7528
       ...           ...                  ...                  ...
       134        2.0000           -0.4052925             -11.0286
       135        2.0000           -0.4037515             -10.9866
       136        2.0000           -0.4036088             -10.9828
       137        2.0000           -0.4035848             -10.9821
       138        2.0000           -0.3996183             -10.8742
       139        2.0000           -0.3988101             -10.8522
       140        2.0000           -0.3905016             -10.6261
       141        2.0000           -0.3879493             -10.5566
       142        2.0000           -0.3862512             -10.5104
       143        2.0000           -0.3829528             -10.4207
       144        2.0000           -0.3805708             -10.3559
       145        2.0000           -0.3611268              -9.8268
       146        2.0000           -0.3575075              -9.7283 (HOMO)
       147                         -0.2799905              -7.6189 (LUMO)
       148                         -0.2725013              -7.4151
       149                         -0.2551759              -6.9437
       150                         -0.2477888              -6.7427
       151                         -0.2431151              -6.6155
       152                         -0.2405511              -6.5457
       153                         -0.2392408              -6.5101
       154                         -0.2369375              -6.4474
       155                         -0.2310420              -6.2870
       156                         -0.2284616              -6.2168
       157                         -0.2219332              -6.0391
       ...                                ...                  ...
       290                          0.7299444              19.8628
      -------------------------------------------------------------
                  HL-Gap            0.0775170 Eh            2.1093 eV

     #   Z          covCN         q      C6AA      α(0)
     1   6 C        2.920    -0.032    28.802     8.801
     2   6 C        2.918    -0.031    28.768     8.795
     3   6 C        2.925    -0.034    28.853     8.809
     4   6 C        2.977     0.010    27.800     8.649
     5   6 C        2.974     0.008    27.828     8.653
     6   6 C        2.930    -0.042    29.052     8.839
     7   6 C        2.974     0.008    27.828     8.653
     8   6 C        2.977     0.009    27.801     8.649
     9   6 C        2.925    -0.034    28.852     8.809
    10   6 C        2.918    -0.031    28.765     8.795
    11   6 C        2.920    -0.032    28.803     8.801
    12   6 C        2.918    -0.031    28.768     8.795
    13   6 C        2.925    -0.034    28.853     8.809
    14   6 C        2.929    -0.040    28.990     8.830
    15   6 C        2.974     0.015    27.680     8.630
    16   6 C        2.978    -0.005    28.140     8.702
    17   6 C        2.984     0.006    27.882     8.662
    18   6 C        2.917    -0.034    28.849     8.808
    19   6 C        2.914    -0.031    28.761     8.794
    20   6 C        2.914    -0.030    28.757     8.794
    21   6 C        2.917    -0.035    28.882     8.813
    22   6 C        2.983     0.006    27.877     8.661
    23   6 C        2.976    -0.007    28.190     8.709
    24   6 C        2.976     0.018    27.592     8.616
    25   6 C        2.922    -0.031    28.767     8.796
    26   6 C        2.925    -0.029    28.733     8.791
    27   6 C        2.974    -0.004    28.110     8.697
    28   6 C        3.192     0.137    24.563     8.083
    29   7 N        1.893    -0.319    29.113     7.999
    30   6 C        3.205     0.060    26.091     8.320
    31   6 C        2.978    -0.004    28.113     8.697
    32   6 C        2.919    -0.034    28.857     8.809
    33   6 C        2.914    -0.031    28.783     8.798
    34   6 C        2.921    -0.040    28.988     8.829
    35   6 C        2.983     0.010    27.794     8.648
    36   6 C        2.913    -0.037    28.912     8.817
    37   6 C        2.914    -0.038    28.953     8.823
    38   6 C        2.983     0.011    27.770     8.644
    39   6 C        2.920    -0.040    28.996     8.830
    40   6 C        2.914    -0.033    28.812     8.802
    41   6 C        2.918    -0.043    29.075     8.842
    42   6 C        2.972    -0.006    28.164     8.705
    43   6 C        2.994    -0.005    28.139     8.702
    44   6 C        2.994    -0.007    28.193     8.710
    45   6 C        3.074     0.022    27.447     8.590
    46   7 N        2.840    -0.054    22.276     7.010
    47   6 C        2.913     0.066    26.516     8.444
    48   6 C        2.921    -0.037    28.916     8.818
    49   6 C        2.920    -0.026    28.654     8.778
    50   6 C        2.919    -0.028    28.710     8.787
    51   6 C        2.920    -0.025    28.623     8.773
    52   6 C        2.921    -0.038    28.945     8.823
    53   6 C        2.921    -0.035    28.883     8.813
    54   6 C        2.923    -0.032    28.797     8.800
    55   6 C        2.983     0.006    27.887     8.662
    56   6 C        2.917    -0.035    28.882     8.813
    57   6 C        2.914    -0.031    28.771     8.796
    58   6 C        2.914    -0.031    28.777     8.797
    59   6 C        2.917    -0.034    28.850     8.808
    60   6 C        2.984     0.006    27.888     8.662
    61   6 C        2.929    -0.040    28.989     8.830
    62   6 C        2.925    -0.034    28.851     8.809
    63   6 C        2.918    -0.031    28.763     8.795
    64   1 H        0.926     0.030     2.584     2.514
    65   1 H        0.926     0.031     2.577     2.510
    66   1 H        0.926     0.032     2.563     2.503
    67   1 H        0.926     0.034     2.532     2.488
    68   1 H        0.926     0.032     2.558     2.501
    69   1 H        0.926     0.030     2.579     2.512
    70   1 H        0.926     0.030     2.585     2.514
    71   1 H        0.926     0.031     2.578     2.511
    72   1 H        0.926     0.032     2.563     2.503
    73   1 H        0.926     0.031     2.576     2.510
    74   1 H        0.926     0.032     2.565     2.504
    75   1 H        0.926     0.031     2.577     2.510
    76   1 H        0.926     0.031     2.576     2.510
    77   1 H        0.926     0.032     2.556     2.500
    78   1 H        0.926     0.040     2.445     2.445
    79   1 H        0.926     0.043     2.406     2.425
    80   1 H        0.926     0.043     2.414     2.430
    81   1 H        0.926     0.033     2.541     2.493
    82   1 H        0.926     0.034     2.533     2.489
    83   1 H        0.926     0.035     2.519     2.482
    84   1 H        0.926     0.035     2.522     2.484
    85   1 H        0.926     0.034     2.536     2.490
    86   1 H        0.926     0.032     2.561     2.503
    87   1 H        0.926     0.029     2.599     2.521
    88   1 H        0.926     0.041     2.431     2.438
    89   1 H        0.926     0.047     2.352     2.398
    90   1 H        0.926     0.048     2.345     2.395
    91   1 H        0.926     0.047     2.354     2.399
    92   1 H        0.926     0.037     2.484     2.465
    93   1 H        0.926     0.029     2.600     2.521
    94   1 H        0.926     0.038     2.474     2.460
    95   1 H        0.926     0.031     2.572     2.508
    96   1 H        0.926     0.031     2.576     2.510
    97   1 H        0.926     0.031     2.578     2.511
    98   1 H        0.926     0.031     2.569     2.507
    99   1 H        0.926     0.031     2.574     2.509
   100   1 H        0.926     0.032     2.559     2.502
   101   1 H        0.926     0.030     2.580     2.512

molecular dipole:
                 x           y           z       tot (Debye)
 q only:       -0.787      -1.213       0.396
   full:       -0.618      -1.510       0.487       4.328

 projected vibrational frequencies (cm⁻¹)
eigval :       -0.00    -0.00    -0.00     0.00     0.00     0.00
eigval :        3.73     7.83    11.15    17.56    21.56    27.88
eigval :       30.20    41.70    45.27    46.17    48.52    51.75
eigval :       53.27    62.76    67.94    73.26    87.18    87.38
eigval :       97.87    98.63   109.52   117.87   123.05   125.10
eigval :      166.38   169.24   171.29   185.74   204.97   213.36
eigval :      216.17   226.47   228.35   232.17   243.20   257.10
eigval :      260.30   269.14   277.89   281.44   309.21   320.30
eigval :      339.23   354.38   357.36   363.40   370.37   373.35
eigval :      375.86   377.64   382.37   391.19   393.42   400.38
eigval :      414.40   422.99   430.36   440.13   441.05   448.76
eigval :      453.80   459.59   475.38   478.81   487.72   489.98
eigval :      511.24   520.90   522.82   536.02   542.50   557.13
eigval :      572.67   581.25   581.84   583.67   584.53   587.21
eigval :      588.36   597.37   600.58   603.57   610.30   624.00
eigval :      633.19   634.19   637.22   643.58   658.72   665.35
eigval :      670.77   674.99   677.61   682.53   682.87   693.22
eigval :      694.71   700.35   707.08   712.51   730.39   741.22
eigval :      752.29   752.46   762.71   763.78   772.59   774.40
eigval :      774.47   775.98   782.58   798.03   812.99   829.50
eigval :      833.82   839.04   868.04   874.01   875.38   875.95
eigval :      876.13   876.45   879.06   890.78   891.56   893.39
eigval :      893.86   899.61   901.57   903.94   904.57   905.25
eigval :      912.68   916.94   918.44   919.20   920.08   922.99
eigval :      924.80   928.36   928.95   929.20   930.19   930.50
eigval :      931.52   931.72   931.96   933.86   934.03   937.41
eigval :      957.40   985.12   989.59   995.68   999.56  1009.62
eigval :     1030.64  1076.65  1077.80  1079.39  1083.00  1083.78
eigval :     1094.52  1101.62  1111.30  1114.44  1119.01  1120.69
eigval :     1121.70  1124.01  1133.99  1134.55  1136.68  1148.14
eigval :     1159.39  1175.97  1178.27  1180.31  1180.73  1180.95
eigval :     1182.20  1185.98  1189.64  1192.31  1196.01  1199.15
eigval :     1200.18  1200.47  1216.97  1222.63  1225.12  1233.59
eigval :     1241.88  1243.49  1247.18  1255.15  1261.25  1268.34
eigval :     1273.45  1280.28  1281.54  1298.16  1300.20  1303.29
eigval :     1308.43  1310.95  1311.88  1316.95  1318.58  1322.87
eigval :     1335.25  1344.35  1348.52  1363.55  1375.26  1378.75
eigval :     1382.86  1385.70  1394.97  1398.34  1400.04  1412.62
eigval :     1419.49  1419.88  1420.47  1427.48  1431.78  1435.89
eigval :     1438.93  1449.83  1462.60  1474.09  1480.24  1483.11
eigval :     1483.13  1484.04  1488.40  1508.23  1524.83  1529.81
eigval :     1531.45  1539.99  1541.44  1556.70  1564.53  1574.12
eigval :     1575.32  1580.12  1581.59  1582.69  1583.97  1587.69
eigval :     1591.47  1595.41  1599.03  1599.15  1606.97  1609.09
eigval :     1621.33  3062.97  3065.63  3065.98  3066.87  3067.33
eigval :     3067.61  3068.44  3068.57  3069.44  3075.00  3075.20
eigval :     3075.43  3075.92  3076.01  3076.78  3077.68  3078.16
eigval :     3078.70  3079.28  3079.41  3079.76  3080.33  3081.34
eigval :     3081.70  3082.75  3086.06  3086.44  3086.62  3087.75
eigval :     3088.37  3091.36  3091.63  3092.92  3093.15  3095.85
eigval :     3100.62  3100.97  3113.69

   temp. (K)  partition function   enthalpy   heat capacity  entropy
                                   cal/mol     cal/K/mol   cal/K/mol   J/K/mol
 298.15  VIB  0.211E+24            28684.614    181.995    180.334
         ROT  0.233E+09              888.752      2.981     41.265
         INT  0.491E+32            29573.367    184.976    221.598
         TR   0.219E+29             1481.254      4.968     45.892
         TOT                       31054.6205   189.9437   267.4902  1119.1788

       T/K    H(0)-H(T)+PV         H(T)/Eh          T*S/Eh         G(T)/Eh
   ------------------------------------------------------------------------
    298.15    0.494887E-01    0.825260E+00    0.127093E+00    0.698166E+00
   ------------------------------------------------------------------------

         :::::::::::::::::::::::::::::::::::::::::::::::::::::
         ::                  THERMODYNAMIC                  ::
         :::::::::::::::::::::::::::::::::::::::::::::::::::::
         :: total free energy        -155.286376864057 Eh   ::
         ::.................................................::
         :: total energy             -155.984543345675 Eh   ::
         :: zero point energy           0.775770997866 Eh   ::
         :: G(RRHO) w/o ZPVE           -0.077604516248 Eh   ::
         :: G(RRHO) contrib.            0.698166481618 Eh   ::
         :::::::::::::::::::::::::::::::::::::::::::::::::::::

           -------------------------------------------------
          | TOTAL ENERGY             -155.984543345675 Eh   |
          | TOTAL ENTHALPY           -155.159283659960 Eh   |
          | TOTAL FREE ENERGY        -155.286376864057 Eh   |
          | GRADIENT NORM               0.000066490114 Eh/α |
          | HOMO-LUMO GAP               2.109344942377 eV   |
           -------------------------------------------------

 * finished run on 2025/07/19 at 13:50:04.987
