   * xtb version 6.7.1 (edcfbbe) compiled by 'albert@albert-system' on 2024-07-22

   ID    Z sym.   atoms
    1    6 C      1-28, 30-45, 47-63
    2    7 N      29, 46
    3    1 H      64-101

          program call               : xtb data2507/toluene/PyIAnTPh/PyIAnTPh_toluene_S0_crest.xyz --gfn 2 --gbsa toluene --ohess vtight --parallel 40 --molden --ceasefiles --namespace data2507/toluene/PyIAnTPh/PyIAnTPh_toluene_S0_finalOpt
      * Solvation model:               GBSA
        Solvent                        toluene
        Solvent mass                       9.2140E+01 g/mol
          :  Hamiltonian                  GFN2-xTB          :
 * total energy  :  -155.9844234 Eh     change       -0.1886832E-08 Eh
 * total energy  :  -155.9844754 Eh     change       -0.5199613E-04 Eh
 * total energy  :  -155.9845151 Eh     change       -0.3973836E-04 Eh
 * total energy  :  -155.9845440 Eh     change       -0.2887343E-04 Eh
 * total energy  :  -155.9845691 Eh     change       -0.2508635E-04 Eh
 * total energy  :  -155.9846051 Eh     change       -0.3601833E-04 Eh
 * total energy  :  -155.9846311 Eh     change       -0.2597662E-04 Eh
 * total energy  :  -155.9846477 Eh     change       -0.1659058E-04 Eh
 * total energy  :  -155.9846672 Eh     change       -0.1951049E-04 Eh
 * total energy  :  -155.9846774 Eh     change       -0.1018981E-04 Eh
 * total energy  :  -155.9847806 Eh     change       -0.3672280E-06 Eh
 * total energy  :  -155.9847809 Eh     change       -0.2345090E-06 Eh
 * total energy  :  -155.9847811 Eh     change       -0.2391236E-06 Eh
 * total energy  :  -155.9847813 Eh     change       -0.2250919E-06 Eh
 * total energy  :  -155.9847815 Eh     change       -0.2021852E-06 Eh
 * total energy  :  -155.9847817 Eh     change       -0.1729755E-06 Eh
 * total energy  :  -155.9847819 Eh     change       -0.1345138E-06 Eh
 * total energy  :  -155.9847820 Eh     change       -0.1086362E-06 Eh
 * total energy  :  -155.9847820 Eh     change       -0.1941402E-08 Eh
   *** GEOMETRY OPTIMIZATION CONVERGED AFTER 44 ITERATIONS ***

 final structure:
================
101
 xtb: 6.7.1 (edcfbbe)
C           -9.84974076724168        4.37196528231302       -1.94913151540182
C          -10.27904443680546        3.09391408220628       -2.26721732489204
C           -9.59165443476593        1.99114186037063       -1.79398491554417
C           -8.45861174152861        2.14942869014749       -0.99929896088224
C           -7.72735019864639        0.97711100327786       -0.49068363292691
C           -8.41718875501946       -0.11696408592957        0.02124179530654
C           -7.73874006627272       -1.22930902655734        0.50881354924065
C           -8.48115009844301       -2.38161870233087        1.04582172280648
C           -8.09183815624056       -3.68270097094801        0.73512977381182
C           -8.79442402575326       -4.76530359658755        1.23185137247875
C           -9.89284719049072       -4.56650537953351        2.05207394593013
C          -10.28569564727585       -3.27704687422363        2.37121452228599
C           -9.58804439955854       -2.19310716780241        1.87038548517807
C           -6.34748651587370       -1.23859795448004        0.47633099941121
C           -5.64143366203043       -0.15452093393588       -0.03112670997122
C           -4.16251848750590       -0.17718593483547       -0.05943332359039
C           -3.49511289056790       -1.04772628578010       -0.93339966835552
C           -4.20006582405527       -1.89200247717382       -1.83195245845399
C           -3.54200241231421       -2.73296729869806       -2.67583497950434
C           -2.13290291910933       -2.77334041488403       -2.68402325460160
C           -1.41857527843304       -1.96621530187571       -1.85306994548415
C           -2.06551999705021       -1.08107178604236       -0.95006436853292
C           -1.33890644614267       -0.23212062784571       -0.10365771134247
C            0.14000344144571       -0.26783451345754       -0.11920916055819
C            0.86744176296476        0.75702501763478       -0.71659314533824
C            2.24843256127731        0.73254656011799       -0.72490375587252
C            2.93685247392964       -0.31871292253204       -0.12202340233140
C            4.38904352463674       -0.39912134498497       -0.09925938691730
N            5.04621114655351       -1.52715108673582       -0.22320185778498
C            6.36437629664290       -1.20111440280194       -0.16141265415975
C            7.48483518404137       -2.07453254564006       -0.27186806517779
C            7.35905056201432       -3.44412179107232       -0.47738185119073
C            8.48752345185817       -4.23861094391191       -0.59110440405866
C            9.74630478432817       -3.67810809006804       -0.50074666227362
C            9.90998618655609       -2.30573721818306       -0.28917061486227
C           11.20374643073926       -1.71690832677410       -0.18266231644648
C           11.34939498729766       -0.39246942701874        0.04534345426641
C           10.21847431428733        0.46613655909822        0.18191039665975
C           10.37713299259387        1.83011813933855        0.44341637615305
C            9.27731847098278        2.64676244730583        0.60015688907871
C            7.99657630640412        2.13481179563369        0.47526797910174
C            7.79009483914922        0.78730649128008        0.18441621056845
C            8.91589845631623       -0.07922109182254        0.05926562559071
C            8.76623470288385       -1.47665840124332       -0.17204907829019
C            6.51345195578075        0.17439493463502        0.02095939928256
N            5.23216364382867        0.67834214017423        0.04836178585347
C            4.81201872595502        2.01514781892517        0.22457531794334
C            4.09352884600525        2.36362320547650        1.36182146442746
C            3.65060435647601        3.66519283628243        1.51973122547998
C            3.92211613445225        4.61634610668940        0.55017144270036
C            4.63677718503416        4.26625511964394       -0.58472803677312
C            5.08150268046952        2.96747036626655       -0.75379298009910
C            2.20763597566347       -1.35893972051501        0.45581310946176
C            0.82839275791405       -1.33218923724548        0.45832678152171
C           -2.00503992118473        0.64785746672371        0.76065389976384
C           -1.29678703484475        1.51097525630661        1.63874521221431
C           -1.95316419116814        2.34658851538783        2.48905892462489
C           -3.36234874117149        2.35882102272511        2.52695838098170
C           -4.07807841649666        1.54139369499379        1.70735982178166
C           -3.43469922610576        0.66947902918511        0.78921920650705
C           -6.33614244585867        0.94930402133938       -0.51088523536162
C           -8.03219135691821        3.43908796401667       -0.69024768281997
C           -8.72496052091135        4.54059087219907       -1.15843233625806
H          -10.38961023950614        5.23284056372387       -2.31601110281784
H          -11.15330010739931        2.95627763815552       -2.88754495958061
H           -9.92348207463349        0.99680551559081       -2.05679800032579
H           -9.49710409585444       -0.10233230139025        0.04027500782934
H           -7.24391661487582       -3.84514221831736        0.08521463031475
H           -8.48475108973621       -5.76891259974950        0.97701133298572
H          -10.44035512838407       -5.41268464978979        2.44112163107420
H          -11.13900936658868       -3.11571949125128        3.01456056200425
H           -9.89089506423302       -1.19001893057489        2.13487541748297
H           -5.80454638024568       -2.08543984786512        0.87092473390802
H           -5.27909517588745       -1.84838975027719       -1.84000383910559
H           -4.09368592695281       -3.36953812046931       -3.35255857087564
H           -1.62564250499380       -3.44258118104309       -3.36389616388391
H           -0.33882030914309       -1.98382294152947       -1.87252580215114
H            0.34203585612100        1.57587687444878       -1.18674213304508
H            2.78799538321242        1.52573901196832       -1.21936058687310
H            6.36764357450602       -3.86487101163783       -0.54765929370139
H            8.38128182995454       -5.30171176045506       -0.75288435471227
H           10.62529299440068       -4.30091355025927       -0.58922325836645
H           12.06651124941829       -2.36038122565339       -0.28275854630377
H           12.33224590826358        0.04897872499861        0.13319795793963
H           11.37483396984703        2.23535005157573        0.53275350619917
H            9.40916075433664        3.69583967437526        0.82265851313005
H            7.15264978206078        2.79146623835774        0.61284597824475
H            3.88664398306953        1.61299126630898        2.11065483782965
H            3.09351138986520        3.93506909028862        2.40414293848588
H            3.57564985575286        5.63075266561615        0.67681251393306
H            4.84699322492789        5.00458852583860       -1.34390974665026
H            5.63694454931591        2.68185473172205       -1.63577668555154
H            2.74527567073529       -2.18135754632418        0.90256672633964
H            0.27188379482630       -2.13743252655531        0.91594212388165
H           -0.21703079561169        1.48854839102960        1.62128135954554
H           -1.40034007567941        2.99881011891505        3.14967688697703
H           -3.86791050566292        3.01691621572156        3.21898815481331
H           -5.15715515742444        1.53831028947119        1.74892557527176
H           -5.78613403447367        1.78177071060875       -0.92585458409741
H           -7.16242592645100        3.57724466323955       -0.06400417310665
H           -8.38679169888923        5.53521567697717       -0.90462766437917

          :  Hamiltonian                  GFN2-xTB          :
         :: gradient norm              0.000022946436 Eh/a0 ::
         :: HOMO-LUMO gap              2.116234236056 eV    ::
         :: SCC energy              -158.998679927779 Eh    ::
         :: -> dispersion             -0.149691101684 Eh    ::
         :: -> Gsolv                  -0.065178750414 Eh    ::
         :: repulsion energy           3.013897961063 Eh    ::

    * Orbital Energies and Occupations

         #    Occupation            Energy/Eh            Energy/eV
      -------------------------------------------------------------
         1        2.0000           -0.6889865             -18.7483
       ...           ...                  ...                  ...
       134        2.0000           -0.4049126             -11.0182
       135        2.0000           -0.4036526             -10.9839
       136        2.0000           -0.4035464             -10.9811
       137        2.0000           -0.4031745             -10.9709
       138        2.0000           -0.4012574             -10.9188
       139        2.0000           -0.3988050             -10.8520
       140        2.0000           -0.3902044             -10.6180
       141        2.0000           -0.3880276             -10.5588
       142        2.0000           -0.3861171             -10.5068
       143        2.0000           -0.3827663             -10.4156
       144        2.0000           -0.3804067             -10.3514
       145        2.0000           -0.3606375              -9.8134
       146        2.0000           -0.3575588              -9.7297 (HOMO)
       147                         -0.2797886              -7.6134 (LUMO)
       148                         -0.2725292              -7.4159
       149                         -0.2561231              -6.9695
       150                         -0.2479271              -6.7464
       151                         -0.2432394              -6.6189
       152                         -0.2407595              -6.5514
       153                         -0.2383644              -6.4862
       154                         -0.2372272              -6.4553
       155                         -0.2310435              -6.2870
       156                         -0.2283135              -6.2127
       157                         -0.2218646              -6.0372
       ...                                ...                  ...
       290                          0.7299336              19.8625
      -------------------------------------------------------------
                  HL-Gap            0.0777702 Eh            2.1162 eV

     #   Z          covCN         q      C6AA      α(0)
     1   6 C        2.920    -0.032    28.804     8.801
     2   6 C        2.918    -0.031    28.767     8.795
     3   6 C        2.925    -0.034    28.857     8.809
     4   6 C        2.977     0.009    27.801     8.649
     5   6 C        2.974     0.008    27.834     8.654
     6   6 C        2.930    -0.042    29.047     8.839
     7   6 C        2.974     0.008    27.832     8.654
     8   6 C        2.977     0.009    27.802     8.649
     9   6 C        2.925    -0.034    28.853     8.809
    10   6 C        2.918    -0.031    28.766     8.795
    11   6 C        2.920    -0.032    28.803     8.801
    12   6 C        2.918    -0.031    28.767     8.795
    13   6 C        2.925    -0.034    28.858     8.810
    14   6 C        2.929    -0.040    28.986     8.829
    15   6 C        2.974     0.014    27.693     8.632
    16   6 C        2.977    -0.005    28.149     8.703
    17   6 C        2.983     0.006    27.882     8.662
    18   6 C        2.917    -0.035    28.861     8.810
    19   6 C        2.914    -0.031    28.769     8.795
    20   6 C        2.914    -0.030    28.760     8.794
    21   6 C        2.917    -0.035    28.873     8.811
    22   6 C        2.983     0.006    27.880     8.661
    23   6 C        2.977    -0.007    28.183     8.708
    24   6 C        2.977     0.019    27.585     8.615
    25   6 C        2.923    -0.032    28.803     8.801
    26   6 C        2.921    -0.036    28.899     8.816
    27   6 C        2.974    -0.004    28.118     8.698
    28   6 C        3.191     0.136    24.581     8.087
    29   7 N        1.894    -0.319    29.113     7.999
    30   6 C        3.204     0.060    26.093     8.321
    31   6 C        2.979    -0.004    28.114     8.698
    32   6 C        2.919    -0.034    28.857     8.809
    33   6 C        2.914    -0.031    28.783     8.798
    34   6 C        2.921    -0.040    28.988     8.829
    35   6 C        2.983     0.010    27.794     8.648
    36   6 C        2.913    -0.037    28.912     8.817
    37   6 C        2.914    -0.038    28.953     8.823
    38   6 C        2.983     0.011    27.770     8.644
    39   6 C        2.920    -0.040    28.996     8.830
    40   6 C        2.914    -0.033    28.813     8.802
    41   6 C        2.917    -0.043    29.077     8.843
    42   6 C        2.972    -0.006    28.166     8.705
    43   6 C        2.994    -0.005    28.138     8.701
    44   6 C        2.994    -0.007    28.193     8.710
    45   6 C        3.074     0.022    27.444     8.589
    46   7 N        2.840    -0.054    22.282     7.011
    47   6 C        2.913     0.067    26.510     8.443
    48   6 C        2.921    -0.038    28.937     8.822
    49   6 C        2.920    -0.025    28.620     8.773
    50   6 C        2.919    -0.028    28.707     8.786
    51   6 C        2.920    -0.026    28.653     8.778
    52   6 C        2.921    -0.037    28.914     8.818
    53   6 C        2.926    -0.029    28.732     8.790
    54   6 C        2.922    -0.031    28.767     8.796
    55   6 C        2.983     0.006    27.887     8.662
    56   6 C        2.917    -0.035    28.878     8.812
    57   6 C        2.914    -0.031    28.769     8.795
    58   6 C        2.914    -0.031    28.778     8.797
    59   6 C        2.917    -0.034    28.858     8.809
    60   6 C        2.983     0.006    27.885     8.662
    61   6 C        2.929    -0.040    28.987     8.830
    62   6 C        2.925    -0.034    28.854     8.809
    63   6 C        2.918    -0.031    28.767     8.795
    64   1 H        0.926     0.030     2.586     2.515
    65   1 H        0.926     0.030     2.581     2.512
    66   1 H        0.926     0.032     2.560     2.502
    67   1 H        0.926     0.034     2.531     2.488
    68   1 H        0.926     0.032     2.557     2.500
    69   1 H        0.926     0.030     2.580     2.512
    70   1 H        0.926     0.030     2.586     2.515
    71   1 H        0.926     0.030     2.580     2.512
    72   1 H        0.926     0.032     2.558     2.501
    73   1 H        0.926     0.032     2.561     2.503
    74   1 H        0.926     0.033     2.549     2.497
    75   1 H        0.926     0.031     2.579     2.511
    76   1 H        0.926     0.030     2.581     2.512
    77   1 H        0.926     0.031     2.577     2.510
    78   1 H        0.926     0.037     2.485     2.465
    79   1 H        0.926     0.030     2.591     2.517
    80   1 H        0.926     0.043     2.413     2.429
    81   1 H        0.926     0.033     2.541     2.493
    82   1 H        0.926     0.034     2.533     2.489
    83   1 H        0.926     0.035     2.519     2.482
    84   1 H        0.926     0.035     2.522     2.484
    85   1 H        0.926     0.034     2.536     2.490
    86   1 H        0.926     0.032     2.561     2.503
    87   1 H        0.926     0.029     2.599     2.521
    88   1 H        0.926     0.038     2.482     2.463
    89   1 H        0.926     0.048     2.351     2.398
    90   1 H        0.926     0.048     2.343     2.394
    91   1 H        0.926     0.048     2.350     2.397
    92   1 H        0.926     0.041     2.429     2.437
    93   1 H        0.926     0.045     2.387     2.416
    94   1 H        0.926     0.039     2.458     2.452
    95   1 H        0.926     0.030     2.587     2.515
    96   1 H        0.926     0.031     2.579     2.511
    97   1 H        0.926     0.030     2.579     2.512
    98   1 H        0.926     0.033     2.550     2.497
    99   1 H        0.926     0.032     2.561     2.502
   100   1 H        0.926     0.032     2.557     2.501
   101   1 H        0.926     0.031     2.579     2.511

molecular dipole:
                 x           y           z       tot (Debye)
 q only:       -0.779       1.269       0.184
   full:       -0.597       1.580       0.216       4.328

 projected vibrational frequencies (cm⁻¹)
eigval :       -0.00     0.00     0.00     0.00     0.00     0.00
eigval :        6.39     7.73     8.98    20.25    23.72    26.69
eigval :       31.33    41.13    43.67    46.50    51.87    52.76
eigval :       57.39    63.13    68.41    74.29    88.27    88.86
eigval :       97.75   103.33   113.21   113.54   122.76   126.15
eigval :      164.42   171.41   171.81   186.74   203.83   213.49
eigval :      216.83   226.34   226.72   231.51   243.10   257.02
eigval :      267.07   273.05   277.83   281.76   309.92   324.28
eigval :      325.60   351.85   355.97   371.20   373.17   374.99
eigval :      375.57   376.43   379.98   392.12   398.91   402.45
eigval :      415.11   424.69   429.92   441.21   444.50   449.85
eigval :      454.44   459.83   471.79   474.19   487.56   489.82
eigval :      509.44   521.90   526.99   536.19   542.17   557.45
eigval :      572.93   581.24   581.44   583.51   584.38   587.27
eigval :      589.27   597.99   600.12   606.37   608.04   622.67
eigval :      633.11   635.14   637.51   643.66   658.74   665.40
eigval :      671.87   674.11   677.06   683.10   683.87   693.55
eigval :      694.63   700.62   708.20   712.72   730.23   740.92
eigval :      754.86   757.00   757.92   761.91   773.02   774.73
eigval :      774.76   776.97   783.06   798.85   819.95   828.27
eigval :      837.81   838.90   874.31   875.20   875.36   876.67
eigval :      877.68   878.15   879.05   889.55   893.24   893.71
eigval :      895.84   899.37   900.72   903.95   904.71   905.49
eigval :      916.81   918.59   920.50   921.69   921.79   925.06
eigval :      928.10   928.79   929.63   930.29   930.74   931.01
eigval :      931.71   932.08   932.30   932.93   934.00   937.43
eigval :      957.37   985.18   989.27   995.61   999.55  1009.77
eigval :     1030.59  1076.06  1080.16  1081.59  1082.52  1083.76
eigval :     1093.96  1101.58  1110.31  1112.12  1119.20  1120.61
eigval :     1121.72  1123.46  1134.63  1136.11  1136.82  1149.16
eigval :     1158.93  1176.88  1179.44  1180.03  1180.43  1180.56
eigval :     1183.90  1184.33  1188.02  1194.17  1197.47  1200.04
eigval :     1200.22  1201.00  1218.27  1222.00  1228.92  1233.00
eigval :     1242.30  1243.75  1248.12  1257.95  1262.45  1269.62
eigval :     1272.33  1279.90  1280.23  1298.70  1300.20  1302.83
eigval :     1309.80  1310.87  1311.36  1316.74  1318.53  1323.13
eigval :     1335.71  1344.69  1349.24  1363.84  1375.13  1378.71
eigval :     1383.39  1385.44  1394.89  1397.83  1400.55  1412.39
eigval :     1418.98  1419.75  1420.28  1427.82  1431.69  1435.27
eigval :     1438.82  1449.83  1462.20  1473.42  1480.06  1482.53
eigval :     1482.71  1483.55  1489.08  1507.84  1525.37  1529.03
eigval :     1531.01  1537.74  1541.30  1557.05  1564.55  1573.73
eigval :     1573.89  1579.96  1581.23  1582.32  1583.52  1587.81
eigval :     1591.32  1596.14  1598.71  1598.82  1607.15  1609.08
eigval :     1621.39  3063.27  3066.16  3066.31  3067.34  3067.43
eigval :     3067.65  3068.89  3069.41  3070.26  3075.32  3075.49
eigval :     3075.70  3076.13  3076.18  3076.96  3077.80  3078.45
eigval :     3078.56  3079.00  3079.25  3079.43  3080.56  3081.01
eigval :     3082.45  3083.22  3085.82  3086.64  3086.73  3087.99
eigval :     3088.57  3090.63  3091.91  3092.38  3096.04  3097.94
eigval :     3099.34  3101.09  3114.93

   temp. (K)  partition function   enthalpy   heat capacity  entropy
                                   cal/mol     cal/K/mol   cal/K/mol   J/K/mol
 298.15  VIB  0.101E+24            28637.386    182.050    179.512
         ROT  0.234E+09              888.752      2.981     41.274
         INT  0.235E+32            29526.138    185.031    220.786
         TR   0.219E+29             1481.254      4.968     45.892
         TOT                       31007.3923   189.9995   266.6780  1115.7809

       T/K    H(0)-H(T)+PV         H(T)/Eh          T*S/Eh         G(T)/Eh
   ------------------------------------------------------------------------
    298.15    0.494134E-01    0.825428E+00    0.126707E+00    0.698721E+00
   ------------------------------------------------------------------------

         :::::::::::::::::::::::::::::::::::::::::::::::::::::
         ::                  THERMODYNAMIC                  ::
         :::::::::::::::::::::::::::::::::::::::::::::::::::::
         :: total free energy        -155.286060866983 Eh   ::
         ::.................................................::
         :: total energy             -155.984781964939 Eh   ::
         :: zero point energy           0.776015013660 Eh   ::
         :: G(RRHO) w/o ZPVE           -0.077293915704 Eh   ::
         :: G(RRHO) contrib.            0.698721097956 Eh   ::
         :::::::::::::::::::::::::::::::::::::::::::::::::::::

           -------------------------------------------------
          | TOTAL ENERGY             -155.984781964939 Eh   |
          | TOTAL ENTHALPY           -155.159353526348 Eh   |
          | TOTAL FREE ENERGY        -155.286060866983 Eh   |
          | GRADIENT NORM               0.000022950382 Eh/α |
          | HOMO-LUMO GAP               2.116234216514 eV   |
           -------------------------------------------------

 * finished run on 2025/07/19 at 13:58:53.195
