   * xtb version 6.7.1 (edcfbbe) compiled by 'albert@albert-system' on 2024-07-22

   ID    Z sym.   atoms
    1    6 C      1-28, 30-45, 47-63
    2    7 N      29, 46
    3    1 H      64-101

          program call               : xtb data2507/toluene/PyIAnTPh/PyIAnTPh_toluene_S0_finalOpt.xtbopt.xyz --gfn 2 --uhf 2 --gbsa toluene --ohess vtight --parallel 40 --molden --ceasefiles --namespace data2507/toluene/PyIAnTPh/PyIAnTPh_toluene_T1_preOpt
      * Solvation model:               GBSA
        Solvent                        toluene
        Solvent mass                       9.2140E+01 g/mol
          :  Hamiltonian                  GFN2-xTB          :
 * total energy  :  -155.9069138 Eh     change       -0.8388952E-09 Eh
 * total energy  :  -155.9123569 Eh     change       -0.5443079E-02 Eh
 * total energy  :  -155.9140802 Eh     change       -0.1723381E-02 Eh
 * total energy  :  -155.9142511 Eh     change       -0.1708462E-03 Eh
 * total energy  :  -155.9145807 Eh     change       -0.3296383E-03 Eh
 * total energy  :  -155.9147700 Eh     change       -0.1892749E-03 Eh
 * total energy  :  -155.9150444 Eh     change       -0.2743714E-03 Eh
 * total energy  :  -155.9154295 Eh     change       -0.3851186E-03 Eh
 * total energy  :  -155.9156898 Eh     change       -0.2603115E-03 Eh
 * total energy  :  -155.9158313 Eh     change       -0.1414574E-03 Eh
 * total energy  :  -155.9164820 Eh     change       -0.3813328E-06 Eh
 * total energy  :  -155.9164823 Eh     change       -0.3096708E-06 Eh
 * total energy  :  -155.9164827 Eh     change       -0.4254515E-06 Eh
 * total energy  :  -155.9164832 Eh     change       -0.4809068E-06 Eh
 * total energy  :  -155.9164836 Eh     change       -0.4410661E-06 Eh
 * total energy  :  -155.9164840 Eh     change       -0.4031116E-06 Eh
 * total energy  :  -155.9164844 Eh     change       -0.3949083E-06 Eh
 * total energy  :  -155.9164849 Eh     change       -0.5011413E-06 Eh
 * total energy  :  -155.9164849 Eh     change       -0.1229822E-07 Eh
   *** GEOMETRY OPTIMIZATION CONVERGED AFTER 44 ITERATIONS ***

 final structure:
================
101
 xtb: 6.7.1 (edcfbbe)
C           -9.83817212117063        4.40045647286892       -1.84477442649998
C          -10.27769818731096        3.13247231292069       -2.18815882558083
C           -9.59888899726278        2.01496385301104       -1.73769546120625
C           -8.46439745224688        2.14808470754944       -0.94045758413294
C           -7.74034954558468        0.96018318091883       -0.45801294951289
C           -8.43695034369325       -0.14570567842817        0.02124197666755
C           -7.76114376350565       -1.27417641574868        0.47753522232267
C           -8.50769594608060       -2.43489134107968        0.99057907173690
C           -8.12008007912965       -3.73115596093496        0.65816051063091
C           -8.82606478196423       -4.82108398758054        1.13353033627233
C           -9.92661085947044       -4.63482569155127        1.95381645229713
C          -10.31799356196888       -3.35043603024635        2.29446294094266
C           -9.61658355739245       -2.25914105704197        1.81542346687740
C           -6.37173343871668       -1.29060267692311        0.44223743765198
C           -5.65173599931793       -0.19301266470230       -0.02983114528193
C           -4.18786731456562       -0.21501460946059       -0.05996545921642
C           -3.50827305650221       -1.20793344255214       -0.82475608421276
C           -4.21102819310562       -2.12820716948922       -1.61280477716026
C           -3.55413140410657       -3.05689701835992       -2.41166885611266
C           -2.17600542290124       -3.04921245340275       -2.47726522211404
C           -1.45250075478458       -2.12119735897703       -1.73362780313756
C           -2.08187797851393       -1.21649387925524       -0.87307270217241
C           -1.33667487564652       -0.23894877674018       -0.13664878017270
C            0.11161542344530       -0.25059894338076       -0.17017354847797
C            0.83956469670156        0.90322144312135       -0.50348174863241
C            2.21391346651247        0.90654534127955       -0.52506907670948
C            2.93706874637423       -0.24151987264209       -0.17759929420349
C            4.37713265742261       -0.31705266241991       -0.14577857549867
N            5.02467611755752       -1.45635839365619       -0.28859007629891
C            6.34146848164323       -1.15699377256455       -0.20920799954519
C            7.44763363204740       -2.04848579282934       -0.32274502689738
C            7.29774473900941       -3.41167445482743       -0.55220186260815
C            8.41205676705498       -4.22701882845570       -0.66377071749370
C            9.67974253171558       -3.69271718708291       -0.54881439924300
C            9.86763446640412       -2.32663748594721       -0.31289158607883
C           11.17092270067610       -1.76569422642706       -0.18179330852719
C           11.33914985552728       -0.44728156391610        0.06730156514666
C           10.22357601372910        0.43071838077927        0.20285651677211
C           10.40687318588136        1.78858588497979        0.48322712569209
C            9.32170548607653        2.62577970145327        0.63537674730969
C            8.03290442618389        2.14123761333781        0.49063515568897
C            7.80109758924723        0.79963207074976        0.18532324117133
C            8.91235945378181       -0.08695985875592        0.05885106695086
C            8.73889502551050       -1.47730114336964       -0.19641825939738
C            6.51545576149753        0.21525198413673        0.00456137622361
N            5.24510013292076        0.74212705527282        0.03368591418746
C            4.87589349992637        2.08652032060968        0.26417125640288
C            4.26860964402379        2.43675443760622        1.46433626831092
C            3.88830073607435        3.74972572793967        1.68050912685009
C            4.11390904430736        4.71019942398843        0.70807428582646
C            4.72230517874687        4.35932733270982       -0.48704013486910
C            5.10286185639680        3.04918358345783       -0.71530844430227
C            2.21580469200425       -1.40578045963613        0.13207920577889
C            0.84379632554861       -1.41372402015774        0.12703951207313
C           -2.02448711329192        0.75045770256963        0.63956499368423
C           -1.33582655992454        1.64688153476507        1.46270791176794
C           -2.00358918990568        2.58214275670507        2.24803724500970
C           -3.38297410151245        2.60694845909399        2.26243053240826
C           -4.09605836606896        1.68974887310997        1.49943677737072
C           -3.45114605976669        0.76305411512551        0.67035517604514
C           -6.35115467307933        0.92945555252115       -0.47404218644476
C           -8.02808262083487        3.42799703321345       -0.60536156712349
C           -8.71215280469930        4.54416472518968       -1.05092408575757
H          -10.37096683395035        5.27285735871117       -2.19433496344678
H          -11.15297574284478        3.01418436087033       -2.81101379934848
H           -9.93835431099973        1.02894105054275       -2.02117592558523
H           -9.51660262960925       -0.12742803735074        0.03974745156675
H           -7.27045463717518       -3.88428330898793        0.00831260046731
H           -8.51722591953913       -5.82054678127882        0.86197095193839
H          -10.47688679654028       -5.48670223553875        2.32615026964347
H          -11.17294578073941       -3.19883643085509        2.93799508447564
H           -9.91812968889098       -1.26054865714543        2.09774586990967
H           -5.83504141268483       -2.14561952385979        0.82732404690487
H           -5.28985430942191       -2.10350914896581       -1.61556803283298
H           -4.12822107280260       -3.76285820550251       -2.99385901613779
H           -1.65162368639926       -3.74594598879409       -3.11456986354405
H           -0.37956690591639       -2.09156324224216       -1.84353063058476
H            0.30226800447092        1.79236849489496       -0.80054108951948
H            2.72812461117154        1.80030857417196       -0.84100346762419
H            6.29933893386725       -3.81144437808149       -0.64208357183256
H            8.28695790554202       -5.28508773069297       -0.84338312686162
H           10.54764002315911       -4.33090871613924       -0.63629600529946
H           12.02233672038076       -2.42417283417780       -0.28082062330063
H           12.32909005277573       -0.02620950620565        0.17288848308139
H           11.41139324112040        2.17217007778103        0.58917734071677
H            9.47179992955438        3.66985453608222        0.86934318751290
H            7.20158860873517        2.81423260264441        0.62318444362947
H            4.09650196243108        1.67789505992083        2.21363382512991
H            3.41593427416866        4.02139939221828        2.61241965128713
H            3.81610878979868        5.73329976372744        0.88035532836665
H            4.89854643113996        5.10575989613944       -1.24689047734372
H            5.57514321463927        2.76174686661868       -1.64378845807866
H            2.77225951969921       -2.29375287033064        0.38981510777421
H            0.31154901926188       -2.31045344646260        0.40939027882687
H           -0.25867651364833        1.60521491166207        1.50928452655345
H           -1.43502947462338        3.27074485899922        2.85561600346862
H           -3.91386974604640        3.31765699649446        2.87887241655980
H           -5.17325801845556        1.67861330298760        1.56308279464004
H           -5.80028399514036        1.76725274275446       -0.87664490654676
H           -7.15703451685343        3.54716540013488        0.02293218340844
H           -8.36597176969433        5.53068337759821       -0.77710156334975

          :  Hamiltonian                  GFN2-xTB          :
         :: gradient norm              0.000060886508 Eh/a0 ::
         :: HOMO-LUMO gap              0.396786868249 eV    ::
         :: SCC energy              -158.910971870184 Eh    ::
         :: -> dispersion             -0.149893682844 Eh    ::
         :: -> Gsolv                  -0.064476044446 Eh    ::
         :: repulsion energy           2.994486938068 Eh    ::

    * Orbital Energies and Occupations

         #    Occupation            Energy/Eh            Energy/eV
      -------------------------------------------------------------
         1        2.0000           -0.6888845             -18.7455
       ...           ...                  ...                  ...
       135        2.0000           -0.4036019             -10.9826
       136        2.0000           -0.4032854             -10.9740
       137        2.0000           -0.4020421             -10.9401
       138        2.0000           -0.4005477             -10.8995
       139        2.0000           -0.3990722             -10.8593
       140        2.0000           -0.3902763             -10.6200
       141        2.0000           -0.3884434             -10.5701
       142        2.0000           -0.3864073             -10.5147
       143        2.0000           -0.3823747             -10.4049
       144        2.0000           -0.3801562             -10.3446
       145        1.9992           -0.3614682              -9.8360
       146        1.0008           -0.3479614              -9.4685
       147        0.9995           -0.2882215              -7.8429 (HOMO)
       148        0.0005           -0.2736397              -7.4461 (LUMO)
       149                         -0.2577368              -7.0134
       150                         -0.2479367              -6.7467
       151                         -0.2437477              -6.6327
       152                         -0.2411618              -6.5623
       153                         -0.2389916              -6.5033
       154                         -0.2383454              -6.4857
       155                         -0.2263889              -6.1604
       156                         -0.2244586              -6.1078
       157                         -0.2219226              -6.0388
       158                         -0.2217213              -6.0333
       ...                                ...                  ...
       290                          0.7290506              19.8385
      -------------------------------------------------------------
                  HL-Gap            0.0145817 Eh            0.3968 eV

     #   Z          covCN         q      C6AA      α(0)
     1   6 C        2.920    -0.032    28.802     8.801
     2   6 C        2.918    -0.031    28.765     8.795
     3   6 C        2.925    -0.034    28.856     8.809
     4   6 C        2.977     0.009    27.802     8.649
     5   6 C        2.972     0.008    27.832     8.654
     6   6 C        2.930    -0.042    29.033     8.837
     7   6 C        2.972     0.008    27.831     8.653
     8   6 C        2.977     0.009    27.803     8.649
     9   6 C        2.925    -0.034    28.852     8.809
    10   6 C        2.918    -0.031    28.765     8.795
    11   6 C        2.920    -0.032    28.801     8.801
    12   6 C        2.918    -0.031    28.766     8.795
    13   6 C        2.925    -0.034    28.857     8.809
    14   6 C        2.929    -0.039    28.980     8.828
    15   6 C        2.971     0.015    27.682     8.630
    16   6 C        2.974    -0.011    28.291     8.725
    17   6 C        2.977     0.008    27.831     8.654
    18   6 C        2.921    -0.039    28.967     8.826
    19   6 C        2.913    -0.032    28.792     8.799
    20   6 C        2.914    -0.032    28.807     8.801
    21   6 C        2.921    -0.039    28.967     8.826
    22   6 C        2.976     0.008    27.844     8.656
    23   6 C        2.971    -0.011    28.279     8.723
    24   6 C        2.972     0.016    27.656     8.626
    25   6 C        2.922    -0.033    28.829     8.805
    26   6 C        2.917    -0.039    28.978     8.827
    27   6 C        2.972    -0.007    28.197     8.710
    28   6 C        3.178     0.135    24.685     8.112
    29   7 N        1.895    -0.318    29.105     7.998
    30   6 C        3.195     0.064    26.077     8.326
    31   6 C        2.978    -0.004    28.120     8.698
    32   6 C        2.919    -0.033    28.821     8.804
    33   6 C        2.914    -0.031    28.776     8.796
    34   6 C        2.920    -0.038    28.956     8.824
    35   6 C        2.983     0.010    27.778     8.645
    36   6 C        2.913    -0.036    28.903     8.816
    37   6 C        2.914    -0.038    28.941     8.822
    38   6 C        2.983     0.011    27.755     8.642
    39   6 C        2.920    -0.039    28.976     8.827
    40   6 C        2.913    -0.032    28.804     8.801
    41   6 C        2.917    -0.043    29.056     8.839
    42   6 C        2.972    -0.007    28.181     8.708
    43   6 C        2.994    -0.005    28.130     8.700
    44   6 C        2.994    -0.007    28.183     8.708
    45   6 C        3.069     0.025    27.381     8.580
    46   7 N        2.837    -0.056    22.315     7.016
    47   6 C        2.912     0.067    26.491     8.440
    48   6 C        2.921    -0.037    28.920     8.819
    49   6 C        2.920    -0.024    28.615     8.772
    50   6 C        2.919    -0.028    28.704     8.786
    51   6 C        2.920    -0.026    28.650     8.778
    52   6 C        2.921    -0.037    28.916     8.818
    53   6 C        2.925    -0.031    28.777     8.797
    54   6 C        2.920    -0.032    28.806     8.801
    55   6 C        2.976     0.007    27.848     8.656
    56   6 C        2.921    -0.040    28.984     8.829
    57   6 C        2.914    -0.033    28.822     8.803
    58   6 C        2.913    -0.032    28.800     8.800
    59   6 C        2.922    -0.039    28.972     8.827
    60   6 C        2.977     0.008    27.832     8.654
    61   6 C        2.930    -0.039    28.977     8.828
    62   6 C        2.925    -0.034    28.853     8.809
    63   6 C        2.918    -0.031    28.766     8.795
    64   1 H        0.926     0.030     2.584     2.514
    65   1 H        0.926     0.031     2.579     2.511
    66   1 H        0.926     0.032     2.558     2.501
    67   1 H        0.926     0.035     2.523     2.484
    68   1 H        0.926     0.032     2.556     2.500
    69   1 H        0.926     0.031     2.577     2.510
    70   1 H        0.926     0.030     2.584     2.514
    71   1 H        0.926     0.031     2.579     2.511
    72   1 H        0.926     0.032     2.556     2.500
    73   1 H        0.926     0.034     2.528     2.486
    74   1 H        0.926     0.033     2.544     2.494
    75   1 H        0.926     0.030     2.592     2.518
    76   1 H        0.926     0.030     2.589     2.516
    77   1 H        0.926     0.034     2.525     2.485
    78   1 H        0.926     0.038     2.475     2.460
    79   1 H        0.926     0.029     2.598     2.521
    80   1 H        0.926     0.044     2.397     2.421
    81   1 H        0.926     0.035     2.522     2.483
    82   1 H        0.926     0.035     2.511     2.478
    83   1 H        0.926     0.036     2.504     2.475
    84   1 H        0.926     0.036     2.508     2.476
    85   1 H        0.926     0.035     2.520     2.482
    86   1 H        0.926     0.033     2.548     2.496
    87   1 H        0.926     0.030     2.588     2.516
    88   1 H        0.926     0.038     2.469     2.457
    89   1 H        0.926     0.048     2.348     2.396
    90   1 H        0.926     0.048     2.343     2.394
    91   1 H        0.926     0.048     2.349     2.397
    92   1 H        0.926     0.041     2.431     2.438
    93   1 H        0.926     0.047     2.353     2.399
    94   1 H        0.926     0.040     2.442     2.444
    95   1 H        0.926     0.033     2.545     2.495
    96   1 H        0.926     0.029     2.593     2.518
    97   1 H        0.926     0.029     2.596     2.520
    98   1 H        0.926     0.032     2.552     2.498
    99   1 H        0.926     0.034     2.533     2.489
   100   1 H        0.926     0.032     2.557     2.500
   101   1 H        0.926     0.031     2.577     2.510

molecular dipole:
                 x           y           z       tot (Debye)
 q only:       -0.361       1.205       0.215
   full:       -0.182       1.527       0.258       3.963

 projected vibrational frequencies (cm⁻¹)
eigval :       -0.00     0.00     0.00     0.00     0.00     0.00
eigval :       -5.16     6.46     9.77    13.10    21.31    28.43
eigval :       30.15    35.24    42.53    46.66    49.84    52.60
eigval :       58.53    63.83    67.76    75.47    83.05    90.55
eigval :       96.97   108.21   112.98   119.00   125.10   127.80
eigval :      163.77   172.68   178.71   189.69   203.11   211.65
eigval :      218.95   228.26   231.35   232.23   246.00   258.53
eigval :      269.93   276.51   279.53   283.15   308.96   321.10
eigval :      327.79   350.91   354.23   368.67   372.08   372.77
eigval :      374.92   376.89   377.62   381.45   384.26   396.69
eigval :      406.56   422.09   425.10   428.14   435.32   442.06
eigval :      450.81   467.77   468.47   471.18   488.58   489.82
eigval :      506.74   521.21   522.12   532.73   533.04   554.98
eigval :      570.00   571.20   581.13   581.32   582.59   585.54
eigval :      588.26   595.32   598.22   599.33   605.39   605.65
eigval :      629.11   630.62   631.72   641.94   656.75   659.57
eigval :      669.80   672.63   673.78   677.72   681.63   681.91
eigval :      693.22   695.63   702.30   709.91   718.49   726.68
eigval :      747.87   753.05   755.28   757.37   759.69   763.38
eigval :      772.30   773.37   781.00   797.19   822.25   826.69
eigval :      837.61   838.85   844.32   850.90   866.32   872.36
eigval :      874.36   876.85   878.54   887.13   889.21   889.25
eigval :      891.85   892.82   898.43   900.76   900.93   902.78
eigval :      903.30   904.32   905.50   908.91   917.24   921.19
eigval :      924.72   927.49   929.04   930.71   931.12   931.42
eigval :      933.24   934.60   935.52   936.69   940.09   944.93
eigval :      954.48   985.26   988.13   994.69   996.61  1006.17
eigval :     1021.31  1076.13  1082.77  1084.32  1094.14  1100.76
eigval :     1103.70  1106.96  1108.18  1112.69  1116.53  1118.22
eigval :     1119.50  1121.52  1122.73  1135.18  1136.30  1139.68
eigval :     1154.97  1177.98  1179.16  1179.65  1180.17  1180.28
eigval :     1182.05  1182.12  1183.17  1186.56  1190.47  1199.72
eigval :     1200.73  1201.79  1204.48  1220.61  1230.29  1232.21
eigval :     1242.42  1243.44  1249.47  1254.64  1267.22  1272.41
eigval :     1273.81  1280.74  1281.60  1286.60  1295.34  1297.94
eigval :     1304.26  1304.87  1308.99  1310.58  1316.28  1316.85
eigval :     1319.18  1323.69  1330.01  1353.35  1356.54  1360.60
eigval :     1367.56  1373.25  1375.95  1384.61  1394.26  1395.98
eigval :     1408.55  1412.71  1413.57  1414.50  1418.99  1419.75
eigval :     1431.35  1433.89  1435.30  1441.35  1466.32  1472.21
eigval :     1476.94  1479.44  1480.34  1482.81  1489.75  1494.70
eigval :     1505.86  1525.63  1526.63  1527.06  1529.78  1546.82
eigval :     1555.17  1558.99  1560.31  1568.79  1572.15  1580.34
eigval :     1580.58  1581.83  1584.41  1589.74  1598.40  1598.60
eigval :     1605.06  3063.86  3066.44  3066.81  3067.99  3068.03
eigval :     3068.36  3070.75  3070.80  3071.23  3076.06  3076.19
eigval :     3076.72  3076.89  3078.75  3079.17  3079.40  3080.00
eigval :     3080.15  3080.26  3080.43  3081.11  3081.62  3082.14
eigval :     3082.78  3085.19  3087.76  3088.33  3088.82  3092.75
eigval :     3094.41  3094.92  3097.64  3098.58  3099.87  3100.90
eigval :     3101.56  3107.73  3119.50

   temp. (K)  partition function   enthalpy   heat capacity  entropy
                                   cal/mol     cal/K/mol   cal/K/mol   J/K/mol
 298.15  VIB  0.267E+24            28773.746    182.925    180.640
         ROT  0.236E+09              888.752      2.981     41.294
         INT  0.630E+32            29662.498    185.906    221.934
         TR   0.219E+29             1481.254      4.968     45.892
         TOT                       31143.7522   190.8741   267.8257  1120.5829

       T/K    H(0)-H(T)+PV         H(T)/Eh          T*S/Eh         G(T)/Eh
   ------------------------------------------------------------------------
    298.15    0.496307E-01    0.822834E+00    0.127253E+00    0.695581E+00
   ------------------------------------------------------------------------

         :::::::::::::::::::::::::::::::::::::::::::::::::::::
         ::                  THERMODYNAMIC                  ::
         :::::::::::::::::::::::::::::::::::::::::::::::::::::
         :: total free energy        -155.220903534354 Eh   ::
         ::.................................................::
         :: total energy             -155.916484929569 Eh   ::
         :: zero point energy           0.773203315843 Eh   ::
         :: G(RRHO) w/o ZPVE           -0.077621920628 Eh   ::
         :: G(RRHO) contrib.            0.695581395215 Eh   ::
         :::::::::::::::::::::::::::::::::::::::::::::::::::::

           -------------------------------------------------
          | TOTAL ENERGY             -155.916484929569 Eh   |
          | TOTAL ENTHALPY           -155.093650885422 Eh   |
          | TOTAL FREE ENERGY        -155.220903534354 Eh   |
          | GRADIENT NORM               0.000060864992 Eh/α |
          | HOMO-LUMO GAP               0.396788743035 eV   |
           -------------------------------------------------

 * finished run on 2025/07/19 at 13:59:05.508
