   * xtb version 6.7.1 (edcfbbe) compiled by 'albert@albert-system' on 2024-07-22

   ID    Z sym.   atoms
    1    6 C      1-5, 8-17, 19-32, 34-43, 45-52
    2    7 N      6, 7, 18, 33, 44
    3    1 H      53-83

          program call               : xtb data2507/gas/TAZ-PPI/TAZ-PPI_gas_S0_crest.xyz --gfn 2 --ohess vtight --parallel 40 --molden --ceasefiles --namespace data2507/gas/TAZ-PPI/TAZ-PPI_gas_S0_finalOpt
          :  Hamiltonian                  GFN2-xTB          :
 * total energy  :  -131.1177219 Eh     change       -0.2334133E-08 Eh
 * total energy  :  -131.1177225 Eh     change       -0.6200768E-06 Eh
 * total energy  :  -131.1177229 Eh     change       -0.4422608E-06 Eh
 * total energy  :  -131.1177237 Eh     change       -0.7851941E-06 Eh
 * total energy  :  -131.1177242 Eh     change       -0.4743445E-06 Eh
 * total energy  :  -131.1177245 Eh     change       -0.3658571E-06 Eh
 * total energy  :  -131.1177249 Eh     change       -0.3373953E-06 Eh
 * total energy  :  -131.1177252 Eh     change       -0.3571133E-06 Eh
 * total energy  :  -131.1177256 Eh     change       -0.3962664E-06 Eh
 * total energy  :  -131.1177260 Eh     change       -0.3630824E-06 Eh
 * total energy  :  -131.1177268 Eh     change       -0.2216873E-06 Eh
 * total energy  :  -131.1177270 Eh     change       -0.2035650E-06 Eh
 * total energy  :  -131.1177272 Eh     change       -0.1547068E-06 Eh
 * total energy  :  -131.1177273 Eh     change       -0.1399999E-06 Eh
 * total energy  :  -131.1177275 Eh     change       -0.1868365E-06 Eh
 * total energy  :  -131.1177277 Eh     change       -0.2452605E-06 Eh
 * total energy  :  -131.1177280 Eh     change       -0.2772520E-06 Eh
 * total energy  :  -131.1177283 Eh     change       -0.2475115E-06 Eh
 * total energy  :  -131.1177283 Eh     change       -0.2683748E-08 Eh
   *** GEOMETRY OPTIMIZATION CONVERGED AFTER 22 ITERATIONS ***

 final structure:
================
83
 xtb: 6.7.1 (edcfbbe)
C           11.99778197590839       -0.40069281528033       -0.28130992655609
C           11.70020164180933        0.51578316140814        0.71486166561082
C           10.39948690853642        0.94132429900882        0.90000733078086
C            9.37766383296853        0.44733480159394        0.08984685686876
C            8.02773636233983        0.93401455042996        0.31327830856148
N            7.73691392385902        2.14701985558917        0.70937965468465
N            6.41256444604187        2.26612299308035        0.77752406950039
C            5.87172993404349        1.12605645548786        0.42878622529330
C            4.44390352093861        0.87054783846432        0.41349594076724
C            3.89917131344845       -0.37358051031527        0.72604312582219
C            2.53176946363883       -0.55829618401610        0.70331897599970
C            1.67094702313322        0.48985090869138        0.38261661406796
C            0.21741921203912        0.28720865695931        0.35379878224469
C           -0.33291487218037       -0.88201017582335       -0.17119825720981
C           -1.69855956154425       -1.06008622756511       -0.21499725562437
C           -2.56121762154914       -0.07342759603523        0.26567313602102
C           -3.99052539585901       -0.32233078536148        0.19064181064968
N           -4.51350732846189       -1.51690182270100        0.31598889944196
C           -5.85642925475740       -1.35344389253776        0.20113612509195
C           -6.86855060443869       -2.34771709907773        0.30760074708200
C           -6.54692625328232       -3.68337722843116        0.57023507958189
C           -7.53937667174059       -4.62193425990672        0.70257232021881
C           -8.87115188992708       -4.23154694009249        0.57709812662298
C           -9.19820100115732       -2.92205986338188        0.31314288381949
C           -8.21240311067369       -1.93477380317876        0.16163868705127
C           -8.52318712305916       -0.55040396213640       -0.15098539060520
C           -9.84019261201417       -0.12749001046541       -0.37995498678547
C          -10.14201816517677        1.17005875137107       -0.71908669927377
C           -9.12500381443775        2.10820050438769       -0.86264632188147
C           -7.82195988735284        1.73732852623120       -0.63996493643788
C           -7.49527108845964        0.42621418045011       -0.26481854274723
C           -6.16287035957622       -0.01146374838143       -0.02060979921675
N           -4.95227304411364        0.64413115590226       -0.01360161336760
C           -4.69451749744496        2.01866395411900       -0.18335598202803
C           -5.14607584985266        2.93522319820737        0.76190731987891
C           -4.85882593068614        4.27826016986621        0.60382140668337
C           -4.11905597530200        4.70933874360157       -0.48588786616043
C           -3.66756659726490        3.79502933338303       -1.42291318074644
C           -3.95283471207265        2.44943754560548       -1.27687795675477
C           -2.01413810136854        1.08110577684524        0.82360864487553
C           -0.64615738965891        1.25777447955488        0.85817821858413
C            2.22180301670313        1.73944298450213        0.09739544573927
C            3.58668518526887        1.92916402950664        0.11231406816286
N            6.86452839377876        0.22544208846090        0.11641163708740
C            6.72359105267194       -1.10702952882066       -0.30780462355961
C            7.35103225131515       -2.12735118548585        0.39859827503297
C            7.21131749700769       -3.43558822854645       -0.02626477219644
C            6.44736000693144       -3.72870188770649       -1.14410783606126
C            5.82158542892101       -2.70956889165184       -1.84339375919443
C            5.95813797177020       -1.39670737467918       -1.43219316941758
C            9.68523966114912       -0.45605350653694       -0.92507672493823
C           10.99010853867921       -0.87716832098513       -1.10299746282947
H           13.01443170773443       -0.73610019065611       -0.42339762277478
H           12.48607268657008        0.89913633869434        1.34860518458200
H           10.15011795111690        1.65879483577629        1.66597774009864
H            4.54013752963114       -1.19541155651405        1.00969544104473
H            2.12237514155144       -1.52286444487737        0.96504600270271
H            0.31928041310848       -1.64522376177133       -0.56997408826299
H           -2.12654518193132       -1.96173216725126       -0.62453058820108
H           -5.50381822803929       -3.94025809363856        0.67025879562029
H           -7.29621222933937       -5.65415087339202        0.90731735660341
H           -9.65664643508222       -4.96521414274425        0.68836138465100
H          -10.24264348793787       -2.66708943886119        0.22792473832752
H          -10.65114098849998       -0.83326222188027       -0.30049142278722
H          -11.16927655380309        1.45805101470578       -0.88761738538899
H           -9.35716211267376        3.12238453877176       -1.15242296353849
H           -7.03602505616707        2.46384386615068       -0.77208879169289
H           -5.71954319852687        2.58663196647660        1.60858004886615
H           -5.20987443137497        4.98926067032434        1.33652463890508
H           -3.89433974591754        5.75854131826422       -0.60327403262432
H           -3.09199427504679        4.12949008427533       -2.27272746313015
H           -3.60356627867752        1.72738956899570       -1.99993030483837
H           -2.65311666297491        1.83617319416959        1.25541706172010
H           -0.23841671710693        2.15055619032169        1.30904728962784
H            1.57043582820322        2.56187805394275       -0.15911691624006
H            4.01630548664659        2.89384295186578       -0.10800313524461
H            7.94262537084161       -1.88817234365232        1.26999533084842
H            7.69875200550069       -4.22824878870669        0.52079548845351
H            6.33967339858141       -4.75185164882465       -1.47050716828445
H            5.22706471656155       -2.93555234827453       -2.71561163391054
H            5.47653509076139       -0.59430654099643       -1.97148599634437
H            8.91327995819126       -0.81634408345009       -1.58918683437637
H           11.22069452430821       -1.57787893235602       -1.89206988974833

          :  Hamiltonian                  GFN2-xTB          :
         :: gradient norm              0.000037804327 Eh/a0 ::
         :: HOMO-LUMO gap              2.453862628760 eV    ::
         :: SCC energy              -133.539393302150 Eh    ::
         :: -> dispersion             -0.118458568771 Eh    ::
         :: repulsion energy           2.421665030550 Eh    ::

    * Orbital Energies and Occupations

         #    Occupation            Energy/Eh            Energy/eV
      -------------------------------------------------------------
         1        2.0000           -0.7007295             -19.0678
       ...           ...                  ...                  ...
       110        2.0000           -0.4126190             -11.2279
       111        2.0000           -0.4122152             -11.2169
       112        2.0000           -0.4106768             -11.1751
       113        2.0000           -0.4098179             -11.1517
       114        2.0000           -0.4054947             -11.0341
       115        2.0000           -0.4013865             -10.9223
       116        2.0000           -0.4000074             -10.8848
       117        2.0000           -0.3949359             -10.7468
       118        2.0000           -0.3815787             -10.3833
       119        2.0000           -0.3791994             -10.3185
       120        2.0000           -0.3751315             -10.2078
       121        2.0000           -0.3629984              -9.8777
       122        2.0000           -0.3613588              -9.8331 (HOMO)
       123                         -0.2711810              -7.3792 (LUMO)
       124                         -0.2585581              -7.0357
       125                         -0.2499428              -6.8013
       126                         -0.2464897              -6.7073
       127                         -0.2461908              -6.6992
       128                         -0.2434421              -6.6244
       129                         -0.2428700              -6.6088
       130                         -0.2400484              -6.5320
       131                         -0.2316296              -6.3030
       132                         -0.2295433              -6.2462
       133                         -0.2290355              -6.2324
       ...                                ...                  ...
       239                          0.7299888              19.8640
      -------------------------------------------------------------
                  HL-Gap            0.0901778 Eh            2.4539 eV

     #   Z          covCN         q      C6AA      α(0)
     1   6 C        2.920    -0.028    28.694     8.784
     2   6 C        2.919    -0.026    28.653     8.778
     3   6 C        2.928    -0.028    28.690     8.784
     4   6 C        2.975     0.001    27.994     8.679
     5   6 C        3.128     0.124    25.101     8.203
     6   7 N        2.067    -0.199    26.016     7.566
     7   7 N        2.068    -0.199    26.029     7.568
     8   6 C        3.127     0.124    25.101     8.203
     9   6 C        2.974    -0.001    28.051     8.688
    10   6 C        2.920    -0.033    28.829     8.805
    11   6 C        2.924    -0.034    28.841     8.807
    12   6 C        2.976     0.012    27.738     8.639
    13   6 C        2.977     0.011    27.777     8.645
    14   6 C        2.923    -0.033    28.811     8.802
    15   6 C        2.927    -0.028    28.709     8.787
    16   6 C        2.974     0.002    27.987     8.678
    17   6 C        3.192     0.127    24.767     8.116
    18   7 N        1.895    -0.291    28.394     7.900
    19   6 C        3.207     0.057    26.134     8.325
    20   6 C        2.986     0.003    27.957     8.673
    21   6 C        2.922    -0.031    28.778     8.797
    22   6 C        2.917    -0.030    28.757     8.794
    23   6 C        2.917    -0.033    28.820     8.803
    24   6 C        2.922    -0.035    28.867     8.811
    25   6 C        2.979    -0.001    28.057     8.689
    26   6 C        2.980     0.002    27.976     8.676
    27   6 C        2.922    -0.034    28.840     8.807
    28   6 C        2.916    -0.033    28.829     8.805
    29   6 C        2.917    -0.032    28.793     8.799
    30   6 C        2.919    -0.040    29.000     8.831
    31   6 C        2.978    -0.002    28.067     8.690
    32   6 C        3.074     0.020    27.486     8.596
    33   7 N        2.841    -0.046    22.118     6.985
    34   6 C        2.913     0.069    26.453     8.434
    35   6 C        2.921    -0.037    28.909     8.817
    36   6 C        2.920    -0.027    28.673     8.781
    37   6 C        2.920    -0.030    28.742     8.792
    38   6 C        2.920    -0.026    28.643     8.776
    39   6 C        2.922    -0.038    28.935     8.821
    40   6 C        2.920    -0.035    28.865     8.810
    41   6 C        2.924    -0.034    28.843     8.807
    42   6 C        2.924    -0.032    28.792     8.799
    43   6 C        2.926    -0.029    28.720     8.789
    44   7 N        2.831    -0.054    22.274     7.010
    45   6 C        2.913     0.067    26.505     8.442
    46   6 C        2.921    -0.038    28.937     8.821
    47   6 C        2.921    -0.026    28.644     8.777
    48   6 C        2.920    -0.030    28.738     8.791
    49   6 C        2.921    -0.026    28.647     8.777
    50   6 C        2.921    -0.038    28.939     8.822
    51   6 C        2.922    -0.032    28.810     8.802
    52   6 C        2.919    -0.029    28.715     8.787
    53   1 H        0.926     0.035     2.516     2.481
    54   1 H        0.926     0.038     2.474     2.460
    55   1 H        0.926     0.054     2.267     2.354
    56   1 H        0.926     0.027     2.627     2.534
    57   1 H        0.926     0.036     2.502     2.473
    58   1 H        0.926     0.036     2.496     2.471
    59   1 H        0.926     0.053     2.283     2.363
    60   1 H        0.926     0.050     2.321     2.382
    61   1 H        0.926     0.030     2.592     2.517
    62   1 H        0.926     0.028     2.620     2.531
    63   1 H        0.926     0.030     2.581     2.512
    64   1 H        0.926     0.034     2.528     2.486
    65   1 H        0.926     0.028     2.608     2.525
    66   1 H        0.926     0.027     2.633     2.538
    67   1 H        0.926     0.025     2.653     2.547
    68   1 H        0.926     0.043     2.410     2.428
    69   1 H        0.926     0.041     2.438     2.442
    70   1 H        0.926     0.040     2.448     2.447
    71   1 H        0.926     0.040     2.443     2.444
    72   1 H        0.926     0.039     2.456     2.451
    73   1 H        0.926     0.028     2.609     2.526
    74   1 H        0.926     0.036     2.508     2.477
    75   1 H        0.926     0.038     2.472     2.459
    76   1 H        0.926     0.055     2.262     2.352
    77   1 H        0.926     0.040     2.445     2.445
    78   1 H        0.926     0.042     2.428     2.436
    79   1 H        0.926     0.041     2.436     2.441
    80   1 H        0.926     0.041     2.430     2.438
    81   1 H        0.926     0.040     2.449     2.447
    82   1 H        0.926     0.026     2.642     2.542
    83   1 H        0.926     0.033     2.549     2.497

molecular dipole:
                 x           y           z       tot (Debye)
 q only:        0.167      -0.499      -0.596
   full:       -0.076      -0.735      -0.862       2.885

 projected vibrational frequencies (cm⁻¹)
eigval :       -0.00    -0.00     0.00     0.00     0.00     0.00
eigval :        8.06     9.49    11.45    21.31    25.79    30.55
eigval :       32.52    38.08    47.22    49.78    58.87    64.35
eigval :       71.34    77.77    81.72    90.23    93.32   104.50
eigval :      111.45   118.30   132.73   148.07   165.28   187.85
eigval :      206.19   216.85   235.07   236.71   240.20   254.82
eigval :      262.41   268.84   272.18   308.21   338.95   342.04
eigval :      351.59   355.98   371.00   372.48   376.21   377.74
eigval :      382.33   397.85   401.59   418.92   424.12   437.63
eigval :      438.12   448.87   460.60   475.74   479.44   488.40
eigval :      497.97   510.82   521.64   535.14   538.59   545.48
eigval :      575.37   585.04   586.22   588.52   593.34   601.11
eigval :      608.63   632.62   641.11   650.17   652.53   658.33
eigval :      664.16   668.43   676.12   677.60   682.19   686.33
eigval :      689.54   697.79   703.22   709.96   715.04   728.39
eigval :      735.60   761.29   763.23   765.11   766.91   774.78
eigval :      782.63   805.19   809.48   833.88   862.59   869.38
eigval :      873.38   874.82   875.46   876.00   877.26   898.70
eigval :      901.23   904.12   907.66   914.29   915.96   923.00
eigval :      924.02   925.86   927.29   927.38   928.68   929.33
eigval :      931.72   932.05   932.56   932.71   939.32   945.84
eigval :      951.67   960.20   974.00   988.57  1006.70  1015.79
eigval :     1028.14  1040.45  1069.11  1078.87  1079.22  1080.94
eigval :     1082.07  1085.97  1108.55  1110.39  1115.33  1116.90
eigval :     1120.77  1134.27  1137.03  1145.56  1152.89  1163.92
eigval :     1174.34  1180.32  1180.40  1181.25  1183.06  1186.22
eigval :     1189.18  1190.81  1197.30  1198.72  1200.23  1206.38
eigval :     1210.70  1253.67  1258.01  1267.92  1273.65  1274.91
eigval :     1276.12  1279.44  1284.25  1286.85  1303.99  1308.99
eigval :     1313.25  1315.43  1317.03  1318.62  1321.38  1323.68
eigval :     1332.81  1338.93  1348.61  1374.18  1384.94  1396.74
eigval :     1407.54  1411.78  1419.93  1430.64  1431.31  1433.73
eigval :     1435.78  1437.54  1450.55  1455.45  1474.57  1480.87
eigval :     1486.71  1514.26  1515.54  1529.88  1531.50  1543.11
eigval :     1556.15  1562.41  1566.30  1570.97  1582.00  1582.68
eigval :     1584.12  1589.39  1594.12  1594.66  1594.98  1597.85
eigval :     1602.45  1604.95  3071.85  3075.46  3075.57  3078.17
eigval :     3080.81  3080.92  3081.88  3082.59  3083.32  3084.11
eigval :     3084.46  3085.04  3085.15  3086.10  3088.09  3090.62
eigval :     3091.24  3091.57  3094.32  3095.56  3096.72  3096.93
eigval :     3098.84  3102.36  3103.35  3104.89  3105.50  3107.29
eigval :     3108.14  3110.66  3114.00

   temp. (K)  partition function   enthalpy   heat capacity  entropy
                                   cal/mol     cal/K/mol   cal/K/mol   J/K/mol
 298.15  VIB  0.419E+20            23799.050    148.585    150.279
         ROT  0.143E+09              888.752      2.981     40.296
         INT  0.598E+28            24687.802    151.566    190.574
         TR   0.166E+29             1481.254      4.968     45.348
         TOT                       26169.0558   156.5337   235.9227   987.1007

       T/K    H(0)-H(T)+PV         H(T)/Eh          T*S/Eh         G(T)/Eh
   ------------------------------------------------------------------------
    298.15    0.417030E-01    0.676127E+00    0.112095E+00    0.564033E+00
   ------------------------------------------------------------------------

         :::::::::::::::::::::::::::::::::::::::::::::::::::::
         ::                  THERMODYNAMIC                  ::
         :::::::::::::::::::::::::::::::::::::::::::::::::::::
         :: total free energy        -130.553695428412 Eh   ::
         ::.................................................::
         :: total energy             -131.117728271599 Eh   ::
         :: zero point energy           0.634424304080 Eh   ::
         :: G(RRHO) w/o ZPVE           -0.070391460893 Eh   ::
         :: G(RRHO) contrib.            0.564032843187 Eh   ::
         :::::::::::::::::::::::::::::::::::::::::::::::::::::

           -------------------------------------------------
          | TOTAL ENERGY             -131.117728271599 Eh   |
          | TOTAL ENTHALPY           -130.441600922594 Eh   |
          | TOTAL FREE ENERGY        -130.553695428412 Eh   |
          | GRADIENT NORM               0.000037801933 Eh/α |
          | HOMO-LUMO GAP               2.453862753998 eV   |
           -------------------------------------------------

 * finished run on 2025/07/16 at 14:39:39.648
