   * xtb version 6.7.1 (edcfbbe) compiled by 'albert@albert-system' on 2024-07-22

   ID    Z sym.   atoms
    1    6 C      1-5, 8-17, 19-32, 34-43, 45-52
    2    7 N      6, 7, 18, 33, 44
    3    1 H      53-83

          program call               : xtb data2507/gas/TAZ-PPI/TAZ-PPI_gas_S0_finalOpt.xtbopt.xyz --gfn 2 --spinpol --tblite --uhf 2 --ohess vtight --parallel 40 --molden --ceasefiles --namespace data2507/gas/TAZ-PPI/TAZ-PPI_gas_T1_preOpt
 * total energy  :  -131.0228836 Eh     change       -0.1167075E-07 Eh
 * total energy  :  -131.0286913 Eh     change       -0.5807662E-02 Eh
 * total energy  :  -131.0319119 Eh     change       -0.3220552E-02 Eh
 * total energy  :  -131.0326966 Eh     change       -0.7847147E-03 Eh
 * total energy  :  -131.0337228 Eh     change       -0.1026232E-02 Eh
 * total energy  :  -131.0342577 Eh     change       -0.5349381E-03 Eh
 * total energy  :  -131.0345780 Eh     change       -0.3202756E-03 Eh
 * total energy  :  -131.0348082 Eh     change       -0.2302036E-03 Eh
 * total energy  :  -131.0349839 Eh     change       -0.1756914E-03 Eh
 * total energy  :  -131.0351074 Eh     change       -0.1234748E-03 Eh
 * total energy  :  -131.0358638 Eh     change       -0.9248231E-06 Eh
 * total energy  :  -131.0358646 Eh     change       -0.7444930E-06 Eh
 * total energy  :  -131.0358651 Eh     change       -0.5059914E-06 Eh
 * total energy  :  -131.0358655 Eh     change       -0.4098213E-06 Eh
 * total energy  :  -131.0358659 Eh     change       -0.3952205E-06 Eh
 * total energy  :  -131.0358664 Eh     change       -0.4665907E-06 Eh
 * total energy  :  -131.0358669 Eh     change       -0.4958089E-06 Eh
 * total energy  :  -131.0358673 Eh     change       -0.4497983E-06 Eh
 * total energy  :  -131.0358673 Eh     change       -0.6448289E-08 Eh
   *** GEOMETRY OPTIMIZATION CONVERGED AFTER 94 ITERATIONS ***

 final structure:
================
83
 xtb: 6.7.1 (edcfbbe)
C           12.08988181873073       -0.39165626939745       -0.15358501434786
C           11.74613502172760        0.69069551345587        0.64190826526177
C           10.43057954929959        1.09886275527796        0.72714642339261
C            9.43492079905899        0.42204656458799        0.01904350118694
C            8.07406536328824        0.90400075961524        0.13415834674674
N            7.76085306734393        2.16336447056451        0.34120009467774
N            6.44914640369266        2.28403605602488        0.36050939260432
C            5.90374518697316        1.09122457139566        0.17708830040538
C            4.49591056984189        0.85811568449436        0.20555310310797
C            3.90313042130870       -0.38996463871601        0.48464193660120
C            2.54562960396735       -0.53594529171539        0.49059674930984
C            1.66568831426190        0.55060484865569        0.23513568819544
C            0.25404494014048        0.38805138320040        0.22423625293058
C           -0.36567939587347       -0.89279351536138        0.09662803836116
C           -1.71205373708334       -1.03838291154710        0.05549119561392
C           -2.59617019515728        0.08363554429086        0.13801935695994
C           -3.97258487035093       -0.17377058666251        0.06785397616978
N           -4.46300967116962       -1.42354174647060        0.11601271753713
C           -5.78738751930417       -1.32008016910007        0.08131555549187
C           -6.74629051004383       -2.37277299556252        0.14722007672150
C           -6.33887273437225       -3.70234985437482        0.28239710046209
C           -7.27099708312943       -4.70983837992715        0.36918697133684
C           -8.62408898938377       -4.38916613864738        0.32526258866144
C           -9.03586974700008       -3.08089587801188        0.18866744894972
C           -8.11607028524847       -2.02781761157314        0.08940805496550
C           -8.51748613537064       -0.64080454853850       -0.07926059902956
C           -9.86243525493151       -0.27796537366348       -0.19817728019981
C          -10.25748697102487        1.02826288596346       -0.38617816723438
C           -9.30349902417855        2.03972944631706       -0.47702455865620
C           -7.97307637537134        1.73170489959652       -0.36048715847284
C           -7.54463700545019        0.40612472931056       -0.14794574776228
C           -6.18795970308727        0.03716212993301       -0.02079244590748
N           -5.02143157841897        0.75682572505769       -0.02329919947754
C           -4.88790597827514        2.15389053073222       -0.15147062629766
C           -5.19028698073106        2.98391800524130        0.92480664062409
C           -5.05105936738276        4.35311789080088        0.79213160489643
C           -4.61287971705545        4.89666063970716       -0.40519007326407
C           -4.31352565389338        4.06908100378732       -1.47529159291174
C           -4.44987729848228        2.69822869809442       -1.35466106471419
C           -1.98659604705712        1.35958025473902        0.31613647793378
C           -0.63609825559224        1.49697202315782        0.34977595054925
C            2.28212552411151        1.81178639907123        0.00285582664010
C            3.63690831410802        1.95870478190239       -0.00926355597606
N            6.91800963819051        0.16234535914899        0.02535588544365
C            6.81397463611422       -1.21656353378370       -0.22095338802806
C            7.40788899719314       -2.12126729340601        0.65322453572214
C            7.31768926140815       -3.47673752893952        0.39659883155043
C            6.63838090478196       -3.93213873924680       -0.72166784307658
C            6.04670617549596       -3.02831394570017       -1.58975031265944
C            6.13351079183782       -1.67049531727406       -1.34705060170004
C            9.79063666065350       -0.65019224450126       -0.79903171924321
C           11.11087289053162       -1.05159307627113       -0.87774959417674
H           13.11868505903630       -0.71381232091308       -0.21668476786050
H           12.50865726867332        1.21645084053256        1.19731890291010
H           10.14597661729058        1.94195530776867        1.33696011950570
H            4.52390735452787       -1.23860428510524        0.73056899966909
H            2.13529736898755       -1.50085414115529        0.74429221399732
H            0.25460102785388       -1.76872821585297       -0.01166868423388
H           -2.16465978860643       -2.00986243499161       -0.06249781212258
H           -5.27968127422078       -3.90342885763972        0.32008641790850
H           -6.96046730770849       -5.73850006808963        0.47423973887878
H           -9.36349931362440       -5.17353961853488        0.39891878885619
H          -10.09579305789738       -2.88435997176381        0.16233847644973
H          -10.62832105443353       -1.03509887068029       -0.15001963653881
H          -11.30702968968778        1.26646570390487       -0.47277684727258
H           -9.61018841107382        3.06188013300683       -0.64165538425370
H           -7.23968867449172        2.51668002653338       -0.44572200865293
H           -5.53123408591607        2.54771302559539        1.85221748512179
H           -5.28253687064093        4.99705438528867        1.62714757201491
H           -4.50421486700338        5.96602262366517       -0.50341520971820
H           -3.97377005249007        4.49198468475631       -2.40855700321526
H           -4.21482910462796        2.04205415964839       -2.17932805754806
H           -2.60160324357341        2.23200356125722        0.46494559096602
H           -0.22647660729016        2.47933802849571        0.52662923696754
H            1.66666728837575        2.67187934641225       -0.20842133134496
H            4.09080277484703        2.91902083054737       -0.19805679411134
H            7.93514371817069       -1.75561933438080        1.52197291686831
H            7.77776089187799       -4.17922355607019        1.07498336139865
H            6.56980038018893       -4.99147006180073       -0.91702699305082
H            5.51835637603886       -3.38095490414216       -2.46261746370633
H            5.67635627481391       -0.95693191115564       -2.01668222442903
H            9.04448518700120       -1.15753987988648       -1.39205429686566
H           11.37676696706435       -1.88298954826630       -1.51418599528170

 projected vibrational frequencies (cm⁻¹)
eigval :       -0.00    -0.00    -0.00     0.00     0.00     0.00
eigval :        7.19     8.54    13.27    19.59    24.55    26.53
eigval :       30.45    35.79    43.79    47.00    55.01    62.73
eigval :       69.55    72.80    83.27    90.01    94.27    97.76
eigval :      113.90   118.60   134.79   151.76   158.78   177.73
eigval :      205.51   217.71   226.41   237.58   238.64   243.07
eigval :      260.46   265.99   273.30   283.09   322.95   337.52
eigval :      355.23   358.28   366.59   371.87   373.62   376.72
eigval :      382.18   388.21   394.05   401.99   406.75   428.96
eigval :      431.93   438.75   444.99   457.55   470.51   474.74
eigval :      484.69   492.30   503.21   507.77   527.08   544.64
eigval :      572.84   582.73   584.87   585.99   587.89   594.31
eigval :      604.10   613.86   629.80   634.62   638.75   644.68
eigval :      654.47   659.69   661.60   666.84   671.28   673.03
eigval :      678.39   683.24   690.98   695.96   706.50   717.57
eigval :      731.13   752.41   758.81   759.98   761.86   769.47
eigval :      777.00   793.58   797.19   801.83   812.03   823.30
eigval :      855.67   869.85   872.34   872.71   875.15   897.13
eigval :      898.10   901.74   902.41   903.51   909.47   911.85
eigval :      913.76   914.54   917.52   917.77   924.12   926.86
eigval :      927.32   928.60   930.79   931.01   931.47   932.85
eigval :      940.74   941.27   946.96   971.69   983.51   992.32
eigval :     1003.69  1018.86  1027.96  1058.90  1077.57  1077.93
eigval :     1081.62  1082.92  1093.40  1100.66  1105.29  1114.88
eigval :     1116.23  1120.46  1133.07  1138.25  1148.25  1154.08
eigval :     1160.75  1164.55  1180.05  1180.31  1181.10  1181.66
eigval :     1184.53  1186.68  1190.80  1199.06  1204.56  1207.76
eigval :     1211.10  1245.91  1248.25  1254.13  1261.49  1273.26
eigval :     1273.60  1275.90  1277.14  1279.42  1285.47  1294.05
eigval :     1299.59  1305.18  1309.25  1315.05  1322.61  1326.38
eigval :     1334.33  1337.55  1339.42  1355.64  1375.67  1382.44
eigval :     1391.06  1395.13  1409.49  1424.04  1428.01  1431.59
eigval :     1433.42  1435.55  1437.66  1442.48  1446.49  1456.92
eigval :     1465.23  1475.05  1478.99  1489.00  1492.83  1503.54
eigval :     1510.63  1522.01  1544.53  1547.59  1566.93  1575.07
eigval :     1575.59  1576.23  1579.17  1583.27  1588.11  1589.13
eigval :     1591.43  1592.66  3075.41  3075.66  3079.86  3081.13
eigval :     3083.53  3083.92  3084.02  3084.97  3085.86  3088.17
eigval :     3088.99  3090.06  3090.59  3091.33  3092.11  3092.35
eigval :     3095.44  3096.72  3097.05  3098.19  3099.32  3101.68
eigval :     3102.67  3103.23  3107.55  3107.98  3108.39  3111.68
eigval :     3112.69  3120.67  3125.44

   temp. (K)  partition function   enthalpy   heat capacity  entropy
                                   cal/mol     cal/K/mol   cal/K/mol   J/K/mol
 298.15  VIB  0.127E+21            24183.086    150.403    152.658
         ROT  0.148E+09              888.752      2.981     40.363
         INT  0.188E+29            25071.838    153.383    193.021
         TR   0.166E+29             1481.254      4.968     45.348
         TOT                       26553.0920   158.3516   238.3694   997.3375

       T/K    H(0)-H(T)+PV         H(T)/Eh          T*S/Eh         G(T)/Eh
   ------------------------------------------------------------------------
    298.15    0.423150E-01    0.672325E+00    0.113257E+00    0.559068E+00
   ------------------------------------------------------------------------

         :::::::::::::::::::::::::::::::::::::::::::::::::::::
         ::                  THERMODYNAMIC                  ::
         :::::::::::::::::::::::::::::::::::::::::::::::::::::
         :: total free energy        -130.476799360564 Eh   ::
         ::.................................................::
         :: total energy             -131.035867309917 Eh   ::
         :: zero point energy           0.630009885726 Eh   ::
         :: G(RRHO) w/o ZPVE           -0.070941936373 Eh   ::
         :: G(RRHO) contrib.            0.559067949353 Eh   ::
         :::::::::::::::::::::::::::::::::::::::::::::::::::::

           -------------------------------------------------
          | TOTAL ENERGY             -131.035867309917 Eh   |
          | TOTAL ENTHALPY           -130.363542378550 Eh   |
          | TOTAL FREE ENERGY        -130.476799360564 Eh   |
          | GRADIENT NORM               0.000053801975 Eh/α |
           -------------------------------------------------

 * finished run on 2025/07/16 at 14:39:57.573
