   * xtb version 6.7.1 (edcfbbe) compiled by 'albert@albert-system' on 2024-07-22

   ID    Z sym.   atoms
    1    6 C      1-5, 8-17, 19-32, 34-43, 45-52
    2    7 N      6, 7, 18, 33, 44
    3    1 H      53-83

          program call               : xtb data2507/gas/TAZ-PPI/TAZ-PPI.xyz --gfn 2 --ohess vtight --parallel 40 --molden --ceasefiles --namespace data2507/gas/TAZ-PPI/TAZ-PPI_gas_S0_preOpt
          :  Hamiltonian                  GFN2-xTB          :
 * total energy  :  -131.0934061 Eh     change       -0.2567305E-08 Eh
 * total energy  :  -131.1062053 Eh     change       -0.1279921E-01 Eh
 * total energy  :  -131.1097364 Eh     change       -0.3531167E-02 Eh
 * total energy  :  -131.1111466 Eh     change       -0.1410168E-02 Eh
 * total energy  :  -131.1123415 Eh     change       -0.1194906E-02 Eh
 * total energy  :  -131.1130824 Eh     change       -0.7408435E-03 Eh
 * total energy  :  -131.1137423 Eh     change       -0.6599490E-03 Eh
 * total energy  :  -131.1142745 Eh     change       -0.5321755E-03 Eh
 * total energy  :  -131.1147326 Eh     change       -0.4581430E-03 Eh
 * total energy  :  -131.1151064 Eh     change       -0.3738081E-03 Eh
 * total energy  :  -131.1177087 Eh     change       -0.7316924E-06 Eh
 * total energy  :  -131.1177097 Eh     change       -0.9581396E-06 Eh
 * total energy  :  -131.1177106 Eh     change       -0.9731833E-06 Eh
 * total energy  :  -131.1177116 Eh     change       -0.9604423E-06 Eh
 * total energy  :  -131.1177125 Eh     change       -0.9263138E-06 Eh
 * total energy  :  -131.1177135 Eh     change       -0.9773674E-06 Eh
 * total energy  :  -131.1177147 Eh     change       -0.1146456E-05 Eh
 * total energy  :  -131.1177160 Eh     change       -0.1353689E-05 Eh
 * total energy  :  -131.1177160 Eh     change       -0.4554067E-08 Eh
   *** GEOMETRY OPTIMIZATION CONVERGED AFTER 122 ITERATIONS ***

 final structure:
================
83
 xtb: 6.7.1 (edcfbbe)
C           11.98755702587612       -0.00016591098924       -0.04343391303947
C           11.64821033262889        0.76275750211316        1.06273880205641
C           10.33575942328054        1.13968478315179        1.26928091556913
C            9.34414119268701        0.75016611351645        0.36962636643600
C            7.97977659426835        1.17831069565876        0.62350177458459
N            7.65427319992094        2.31867002675459        1.17701044390039
N            6.32625406955344        2.40187180032825        1.23093825156327
C            5.81832740519834        1.31116390793847        0.71558240060856
C            4.39830786349581        1.02503906362763        0.63686971271884
C            3.88644290824949       -0.26296299535814        0.78292229063169
C            2.52602506149480       -0.48156628234929        0.71106834230947
C            1.63918025151914        0.57357729181654        0.50341148291790
C            0.19359364447377        0.33183240922992        0.42389306330234
C           -0.30869670637827       -0.78780252340714       -0.23942392912876
C           -1.66612897265683       -1.00899547665537       -0.32006905900050
C           -2.56899929430493       -0.11587931652943        0.25957659548722
C           -3.98629819641471       -0.41428367992675        0.14756038954720
N           -4.45560467363919       -1.63741555319351        0.13872667593394
C           -5.80434211811472       -1.52204308679346        0.03570764217591
C           -6.77094439552693       -2.56597987928364        0.02870655866566
C           -6.38985199037815       -3.90648775381336        0.14780592475239
C           -7.33931726679417       -4.89705984671330        0.17274344916393
C           -8.68713135125969       -4.55503020143287        0.08221931012019
C           -9.07242877264517       -3.24054594984799       -0.04072005266395
C           -8.13180228931606       -2.19975437126280       -0.07896193268166
C           -8.50383195742811       -0.80478175052369       -0.24177676065702
C           -9.83818548328981       -0.41843933443804       -0.43148741321734
C          -10.19728927247926        0.89339623433219       -0.63119845378452
C           -9.22303328847123        1.88564433219411       -0.66752531838551
C           -7.90500964522004        1.55117074599875       -0.47776283789665
C           -7.52054505097629        0.22312501121362       -0.24334919152307
C           -6.17018423542228       -0.17879027297035       -0.03970813297006
N           -4.98996672296121        0.52515789523432        0.04540066774915
C           -4.79533010790253        1.92030400798766        0.03452372043935
C           -5.29308989313370        2.70158546207844        1.07345430835520
C           -5.07000761747090        4.06592199664469        1.07063813143689
C           -4.34835315595894        4.65208017722818        0.04293013856833
C           -3.85030852955374        3.87201878198407       -0.98726326244375
C           -4.07121684679984        2.50655449579114       -0.99667788217744
C           -2.07033905607882        0.98908435652286        0.94783987562783
C           -0.71000695741473        1.20912950465432        1.02058732703124
C            2.15674224709120        1.86351823347657        0.38386780909837
C            3.51500437965084        2.08826433537805        0.45032595154728
N            6.83673293905054        0.48208321528059        0.30359789629473
C            6.73020263223759       -0.77784226811196       -0.30991501000180
C            7.36556853231606       -1.87869089068177        0.25409801193215
C            7.25777201771151       -3.11413809024746       -0.35713198245967
C            6.51780483271533       -3.25575936167646       -1.51969060498092
C            5.88394741604686       -2.15708873401121       -2.07673266415771
C            5.98855484708694       -0.91522290513238       -1.47832198084966
C            9.69373061486032        0.00332551277682       -0.75319875791055
C           11.01008368138766       -0.37009791001204       -0.95191142687740
H           13.01326920745927       -0.29832460659603       -0.20244455040730
H           12.41048947712447        1.06382873290697        1.76592893428719
H           10.05386284953209        1.73829645572381        2.12126378285205
H            4.54756484818099       -1.09503464870872        0.97614101339990
H            2.14188782573885       -1.48191487742352        0.84574259881344
H            0.37456521128970       -1.47667228276253       -0.71422031414008
H           -2.05669402869541       -1.87361020447397       -0.83360743250509
H           -5.33634399458750       -4.12588770651189        0.22564598026701
H           -7.05028662287973       -5.93347325553893        0.26672986472760
H           -9.43896938338357       -5.33070379434622        0.10894965039241
H          -10.12718383400138       -3.02464243274446       -0.10402078873603
H          -10.61686935881519       -1.16390596048627       -0.43286775172782
H          -11.23621332830497        1.15204856617813       -0.77378650259075
H           -9.49992763118052        2.91372100226475       -0.84869424150113
H           -7.15209499967301        2.32172429361118       -0.52658332074167
H           -5.85226764013186        2.23267773047186        1.87010809630898
H           -5.45727340146236        4.67198875362164        1.87581397411967
H           -4.17419451175315        5.71733101403959        0.04647201063731
H           -3.28869790001703        4.32741287836071       -1.78885033926535
H           -3.68541886582910        1.88840499502746       -1.79366037836468
H           -2.74094364628074        1.66813293064985        1.45200819121902
H           -0.33988366651590        2.05933883067262        1.57442868704336
H            1.48539959120837        2.69279691683399        0.21634017699301
H            3.91852921384228        3.08456579917210        0.35898148115498
H            7.93815312571218       -1.75786202716866        1.16188000779085
H            7.75126832337615       -3.96922932347714        0.07928570213642
H            6.43505110744793       -4.22281882909826       -1.99182806171054
H            5.30808351588843       -2.26481084509169       -2.98341384172485
H            5.50047124592940       -0.05157519577576       -1.90555238403565
H            8.94549346339498       -0.27086004057690       -1.48243379207161
H           11.27342354256804       -0.94956041634303       -1.82465211637719

          :  Hamiltonian                  GFN2-xTB          :
         :: gradient norm              0.000048697935 Eh/a0 ::
         :: HOMO-LUMO gap              2.455395421116 eV    ::
         :: SCC energy              -133.539505279075 Eh    ::
         :: -> dispersion             -0.118445558817 Eh    ::
         :: repulsion energy           2.421789263550 Eh    ::

    * Orbital Energies and Occupations

         #    Occupation            Energy/Eh            Energy/eV
      -------------------------------------------------------------
         1        2.0000           -0.7007328             -19.0679
       ...           ...                  ...                  ...
       110        2.0000           -0.4126757             -11.2295
       111        2.0000           -0.4122306             -11.2174
       112        2.0000           -0.4107139             -11.1761
       113        2.0000           -0.4098040             -11.1513
       114        2.0000           -0.4055379             -11.0352
       115        2.0000           -0.4013446             -10.9211
       116        2.0000           -0.3999841             -10.8841
       117        2.0000           -0.3949374             -10.7468
       118        2.0000           -0.3816940             -10.3864
       119        2.0000           -0.3792354             -10.3195
       120        2.0000           -0.3751434             -10.2082
       121        2.0000           -0.3630081              -9.8780
       122        2.0000           -0.3613774              -9.8336 (HOMO)
       123                         -0.2711432              -7.3782 (LUMO)
       124                         -0.2585365              -7.0351
       125                         -0.2500000              -6.8028
       126                         -0.2464517              -6.7063
       127                         -0.2462256              -6.7001
       128                         -0.2433889              -6.6229
       129                         -0.2428755              -6.6090
       130                         -0.2400297              -6.5315
       131                         -0.2315035              -6.2995
       132                         -0.2295697              -6.2469
       133                         -0.2290659              -6.2332
       ...                                ...                  ...
       239                          0.7299683              19.8634
      -------------------------------------------------------------
                  HL-Gap            0.0902341 Eh            2.4554 eV

     #   Z          covCN         q      C6AA      α(0)
     1   6 C        2.920    -0.028    28.694     8.784
     2   6 C        2.919    -0.026    28.653     8.778
     3   6 C        2.928    -0.028    28.690     8.784
     4   6 C        2.975     0.001    27.993     8.679
     5   6 C        3.128     0.124    25.102     8.203
     6   7 N        2.068    -0.199    26.016     7.566
     7   7 N        2.067    -0.199    26.029     7.568
     8   6 C        3.128     0.124    25.097     8.202
     9   6 C        2.974    -0.001    28.050     8.687
    10   6 C        2.920    -0.033    28.827     8.805
    11   6 C        2.924    -0.034    28.841     8.807
    12   6 C        2.976     0.012    27.738     8.639
    13   6 C        2.976     0.011    27.777     8.645
    14   6 C        2.923    -0.033    28.812     8.802
    15   6 C        2.927    -0.028    28.709     8.787
    16   6 C        2.974     0.002    27.987     8.678
    17   6 C        3.192     0.127    24.766     8.116
    18   7 N        1.896    -0.291    28.396     7.900
    19   6 C        3.207     0.057    26.134     8.325
    20   6 C        2.986     0.003    27.957     8.673
    21   6 C        2.922    -0.031    28.778     8.797
    22   6 C        2.917    -0.030    28.757     8.794
    23   6 C        2.917    -0.033    28.820     8.803
    24   6 C        2.922    -0.035    28.867     8.811
    25   6 C        2.979    -0.001    28.057     8.689
    26   6 C        2.980     0.002    27.977     8.676
    27   6 C        2.922    -0.034    28.840     8.807
    28   6 C        2.916    -0.033    28.829     8.805
    29   6 C        2.917    -0.032    28.793     8.799
    30   6 C        2.919    -0.040    28.999     8.831
    31   6 C        2.978    -0.002    28.067     8.690
    32   6 C        3.074     0.020    27.487     8.596
    33   7 N        2.841    -0.046    22.117     6.985
    34   6 C        2.913     0.069    26.454     8.434
    35   6 C        2.921    -0.037    28.909     8.817
    36   6 C        2.920    -0.027    28.673     8.781
    37   6 C        2.920    -0.030    28.743     8.792
    38   6 C        2.920    -0.026    28.643     8.776
    39   6 C        2.922    -0.038    28.935     8.821
    40   6 C        2.920    -0.035    28.863     8.810
    41   6 C        2.924    -0.034    28.842     8.807
    42   6 C        2.923    -0.032    28.792     8.799
    43   6 C        2.925    -0.029    28.719     8.788
    44   7 N        2.832    -0.054    22.273     7.009
    45   6 C        2.913     0.067    26.505     8.442
    46   6 C        2.921    -0.038    28.937     8.821
    47   6 C        2.921    -0.026    28.644     8.777
    48   6 C        2.920    -0.030    28.738     8.791
    49   6 C        2.921    -0.026    28.647     8.777
    50   6 C        2.921    -0.038    28.940     8.822
    51   6 C        2.922    -0.032    28.809     8.802
    52   6 C        2.919    -0.029    28.715     8.787
    53   1 H        0.926     0.035     2.516     2.481
    54   1 H        0.926     0.038     2.474     2.460
    55   1 H        0.926     0.054     2.268     2.355
    56   1 H        0.926     0.027     2.627     2.534
    57   1 H        0.926     0.036     2.500     2.472
    58   1 H        0.926     0.037     2.496     2.470
    59   1 H        0.926     0.053     2.283     2.363
    60   1 H        0.926     0.050     2.321     2.382
    61   1 H        0.926     0.030     2.591     2.517
    62   1 H        0.926     0.028     2.620     2.531
    63   1 H        0.926     0.030     2.581     2.512
    64   1 H        0.926     0.034     2.527     2.486
    65   1 H        0.926     0.028     2.608     2.525
    66   1 H        0.926     0.027     2.633     2.538
    67   1 H        0.926     0.025     2.654     2.547
    68   1 H        0.926     0.043     2.410     2.428
    69   1 H        0.926     0.041     2.438     2.442
    70   1 H        0.926     0.040     2.449     2.447
    71   1 H        0.926     0.040     2.443     2.444
    72   1 H        0.926     0.039     2.455     2.450
    73   1 H        0.926     0.028     2.610     2.526
    74   1 H        0.926     0.036     2.507     2.476
    75   1 H        0.926     0.038     2.472     2.459
    76   1 H        0.926     0.054     2.268     2.355
    77   1 H        0.926     0.040     2.445     2.445
    78   1 H        0.926     0.042     2.428     2.436
    79   1 H        0.926     0.041     2.436     2.441
    80   1 H        0.926     0.041     2.430     2.438
    81   1 H        0.926     0.040     2.450     2.448
    82   1 H        0.926     0.026     2.642     2.542
    83   1 H        0.926     0.033     2.549     2.497

molecular dipole:
                 x           y           z       tot (Debye)
 q only:        0.161      -0.409      -0.686
   full:       -0.082      -0.616      -0.996       2.983

 projected vibrational frequencies (cm⁻¹)
eigval :       -0.00    -0.00    -0.00     0.00     0.00     0.00
eigval :        8.16     9.48    11.54    21.23    25.76    30.66
eigval :       32.59    37.81    47.13    49.71    58.70    64.02
eigval :       71.69    77.79    81.55    90.08    93.40   104.62
eigval :      111.09   118.20   132.35   148.00   165.19   187.97
eigval :      206.17   216.78   234.83   236.80   240.19   254.95
eigval :      262.52   268.88   272.16   308.29   339.13   341.79
eigval :      351.65   355.92   370.96   372.45   376.18   377.76
eigval :      382.18   397.85   401.56   418.61   424.18   437.55
eigval :      438.09   448.87   460.60   475.92   479.64   488.10
eigval :      497.88   510.70   521.57   535.15   538.76   545.39
eigval :      575.47   585.04   586.20   588.50   593.32   601.09
eigval :      608.62   632.70   641.08   650.20   652.47   658.41
eigval :      664.16   668.35   676.19   677.71   682.19   686.42
eigval :      689.72   697.72   703.39   709.70   715.10   728.36
eigval :      735.61   761.31   763.26   765.12   766.90   774.73
eigval :      782.66   805.10   809.39   833.80   862.66   869.29
eigval :      873.38   874.85   875.34   875.93   877.36   898.69
eigval :      901.16   904.21   907.66   914.31   915.81   922.86
eigval :      924.03   925.72   927.30   927.35   928.63   929.40
eigval :      931.61   932.02   932.60   932.67   939.34   945.86
eigval :      951.66   960.21   974.01   988.57  1006.81  1015.85
eigval :     1028.22  1040.54  1069.14  1078.89  1079.22  1080.81
eigval :     1082.07  1085.96  1108.53  1110.43  1115.32  1116.97
eigval :     1120.71  1134.28  1137.06  1145.93  1152.88  1164.27
eigval :     1174.34  1180.33  1180.40  1181.24  1183.05  1186.21
eigval :     1189.18  1190.78  1197.28  1198.44  1199.55  1206.79
eigval :     1210.77  1253.68  1258.01  1268.00  1273.95  1274.91
eigval :     1276.14  1279.40  1284.23  1286.89  1304.00  1308.91
eigval :     1313.32  1315.59  1316.70  1319.05  1321.35  1323.75
eigval :     1333.11  1338.90  1348.81  1374.24  1385.07  1396.71
eigval :     1407.54  1411.84  1419.94  1430.67  1431.31  1433.75
eigval :     1435.77  1437.55  1450.67  1455.51  1474.64  1480.94
eigval :     1486.76  1514.27  1515.55  1530.16  1532.60  1542.95
eigval :     1556.13  1562.35  1566.29  1571.01  1582.03  1582.70
eigval :     1584.19  1589.40  1594.14  1594.71  1594.98  1597.87
eigval :     1602.59  1604.95  3071.86  3075.41  3075.59  3078.24
eigval :     3080.72  3080.86  3081.95  3082.65  3083.30  3084.07
eigval :     3084.50  3085.01  3085.12  3086.10  3087.93  3090.68
eigval :     3091.22  3091.60  3094.27  3095.63  3096.68  3096.95
eigval :     3098.26  3102.42  3103.31  3104.87  3105.63  3106.81
eigval :     3108.18  3110.63  3113.72

   temp. (K)  partition function   enthalpy   heat capacity  entropy
                                   cal/mol     cal/K/mol   cal/K/mol   J/K/mol
 298.15  VIB  0.419E+20            23800.993    148.574    150.282
         ROT  0.143E+09              888.752      2.981     40.298
         INT  0.599E+28            24689.745    151.555    190.580
         TR   0.166E+29             1481.254      4.968     45.348
         TOT                       26170.9992   156.5234   235.9280   987.1229

       T/K    H(0)-H(T)+PV         H(T)/Eh          T*S/Eh         G(T)/Eh
   ------------------------------------------------------------------------
    298.15    0.417061E-01    0.676130E+00    0.112097E+00    0.564033E+00
   ------------------------------------------------------------------------

         :::::::::::::::::::::::::::::::::::::::::::::::::::::
         ::                  THERMODYNAMIC                  ::
         :::::::::::::::::::::::::::::::::::::::::::::::::::::
         :: total free energy        -130.553682573469 Eh   ::
         ::.................................................::
         :: total energy             -131.117716015525 Eh   ::
         :: zero point energy           0.634424320337 Eh   ::
         :: G(RRHO) w/o ZPVE           -0.070390878281 Eh   ::
         :: G(RRHO) contrib.            0.564033442056 Eh   ::
         :::::::::::::::::::::::::::::::::::::::::::::::::::::

           -------------------------------------------------
          | TOTAL ENERGY             -131.117716015525 Eh   |
          | TOTAL ENTHALPY           -130.441585553308 Eh   |
          | TOTAL FREE ENERGY        -130.553682573469 Eh   |
          | GRADIENT NORM               0.000048696939 Eh/α |
          | HOMO-LUMO GAP               2.455395698834 eV   |
           -------------------------------------------------

 * finished run on 2025/07/16 at 14:35:54.894
