   * xtb version 6.7.1 (edcfbbe) compiled by 'albert@albert-system' on 2024-07-22

   ID    Z sym.   atoms
    1    6 C      1-5, 8-17, 19-32, 34-43, 45-52
    2    7 N      6, 7, 18, 33, 44
    3    1 H      53-83

          program call               : xtb data2507/gas/TAZ-PPI/TAZ-PPI_gas_T1_crest.xyz --gfn 2 --spinpol --tblite --uhf 2 --ohess vtight --parallel 40 --molden --ceasefiles --namespace data2507/gas/TAZ-PPI/TAZ-PPI_gas_T1_finalOpt
 * total energy  :  -131.0358363 Eh     change       -0.2698144E-07 Eh
 * total energy  :  -131.0358476 Eh     change       -0.1132221E-04 Eh
 * total energy  :  -131.0358540 Eh     change       -0.6365763E-05 Eh
 * total energy  :  -131.0358562 Eh     change       -0.2201850E-05 Eh
 * total energy  :  -131.0358595 Eh     change       -0.3287321E-05 Eh
 * total energy  :  -131.0358638 Eh     change       -0.4387900E-05 Eh
 * total energy  :  -131.0358681 Eh     change       -0.4268184E-05 Eh
 * total energy  :  -131.0358710 Eh     change       -0.2856939E-05 Eh
 * total energy  :  -131.0358727 Eh     change       -0.1694505E-05 Eh
 * total energy  :  -131.0358739 Eh     change       -0.1198237E-05 Eh
 * total energy  :  -131.0358771 Eh     change       -0.1066147E-05 Eh
 * total energy  :  -131.0358781 Eh     change       -0.1057025E-05 Eh
 * total energy  :  -131.0358789 Eh     change       -0.7041417E-06 Eh
 * total energy  :  -131.0358793 Eh     change       -0.4912963E-06 Eh
 * total energy  :  -131.0358797 Eh     change       -0.3326985E-06 Eh
 * total energy  :  -131.0358799 Eh     change       -0.1922117E-06 Eh
 * total energy  :  -131.0358800 Eh     change       -0.1427927E-06 Eh
 * total energy  :  -131.0358804 Eh     change       -0.4274924E-06 Eh
 * total energy  :  -131.0358805 Eh     change       -0.6943407E-07 Eh
   *** GEOMETRY OPTIMIZATION CONVERGED AFTER 21 ITERATIONS ***

 final structure:
================
83
 xtb: 6.7.1 (edcfbbe)
C           12.08473932882928       -0.31702278042089       -0.11944676582931
C           11.73687124358026        0.79327646485216        0.63464770124978
C           10.42003513283774        1.20054568287182        0.70316123349691
C            9.42723664351889        0.49483530050487        0.01975275404741
C            8.06444123931438        0.97553681978967        0.11548368865653
N            7.74498142428963        2.24041185481180        0.27366093746899
N            6.43267373454586        2.35525034616285        0.28776461003215
C            5.89309404976343        1.15354283093771        0.15027852500601
C            4.48669196008843        0.91402024920824        0.18728383089749
C            3.90155040589660       -0.32793780231769        0.50736128779712
C            2.54524256841823       -0.48300029762175        0.51437729288020
C            1.65884201796856        0.58862250056796        0.22109568807676
C            0.24888281566981        0.41334357636029        0.20936434294589
C           -0.35682198668604       -0.87637933885318        0.10723983061956
C           -1.70132092369493       -1.03703151627983        0.06865065177036
C           -2.59797515401933        0.07652444232971        0.13368145467245
C           -3.97094054140610       -0.20083243353760        0.07564158887885
N           -4.43956080287749       -1.45948485257763        0.11642223105974
C           -5.76554373094544       -1.37946905194744        0.08914435741971
C           -6.70518944904754       -2.44988643639758        0.14552714381627
C           -6.27328621505858       -3.77380686660892        0.25816585841438
C           -7.18672022977308       -4.79916272001436        0.33301398623617
C           -8.54555295045283       -4.50223994431699        0.29944761672784
C           -8.98140247459789       -3.19964833946238        0.18538489015125
C           -8.08114226979076       -2.12859807041145        0.09935797211248
C           -8.50809635709631       -0.74630692606566       -0.04320529989544
C           -9.86020779945831       -0.40501968165977       -0.14362062847964
C          -10.27959854078007        0.89729355858143       -0.30372402242706
C           -9.34441527448766        1.92727150406271       -0.38205928020081
C           -8.00779259508693        1.64060657705930       -0.28349073065389
C           -7.55437514186466        0.31870501040405       -0.10241361166718
C           -6.19037853831087       -0.02868172095404        0.00446653297597
N           -5.03679742750883        0.71145202311898        0.00048000156136
C           -4.93494673745278        2.11402006968055       -0.10064840707253
C           -5.20198265039515        2.91175554588263        1.00861073356676
C           -5.09817020002372        4.28650073624908        0.90253506069634
C           -4.73070447669415        4.86699090072598       -0.30112037466457
C           -4.46650868885526        4.07131255432114       -1.40417787496342
C           -4.56774661977943        2.69524338620102       -1.31018655432776
C           -2.00183953266415        1.36305776948765        0.27863774018226
C           -0.65272811623147        1.51579262833009        0.30592740319169
C            2.26689437149725        1.84649712454003       -0.04791861762792
C            3.62076256428770        2.00173007478764       -0.06334224309812
N            6.91214976894248        0.22456715331208        0.03458723812737
C            6.81602904297442       -1.16362651042362       -0.15658228568434
C            7.41262581770960       -2.02910590082899        0.75469521613917
C            7.32959073875550       -3.39431039799545        0.55325150877895
C            6.65487069997062       -3.89814348464195       -0.54686956630871
C            6.06097079425338       -3.03328567034789       -1.45233627966429
C            6.14066658672017       -1.66630814996307       -1.26493581568279
C            9.78710914998674       -0.60615044317950       -0.75734366884405
C           11.10853750152225       -1.00639521362645       -0.81958641623807
H           13.11453860513581       -0.63831350082038       -0.16931246474624
H           12.49721739049567        1.34154632490994        1.17094494591609
H           10.13233446939679        2.06487426423478        1.28095739119970
H            4.52713694657271       -1.16347042190024        0.78377770903024
H            2.14024852565849       -1.44140437544832        0.79946591649575
H            0.27325579969797       -1.74722877097770        0.01551208535594
H           -2.14352878121486       -2.01529392562942       -0.03074465433101
H           -5.21046865830463       -3.95627399932101        0.28763752472271
H           -6.85731587323897       -5.82360307551640        0.42037322332915
H           -9.27037285403586       -5.30095985984596        0.36332251058693
H          -10.04480340033410       -3.02200069407529        0.16605725481387
H          -10.61234085757818       -1.17621158652893       -0.10222955520065
H          -11.33387385869591        1.11849187689082       -0.37696427704469
H           -9.67059901421338        2.94697806353571       -0.52259130206646
H           -7.28903631530878        2.44020747393236       -0.35707720991497
H           -5.48831087423831        2.44666203229857        1.94038270013155
H           -5.30241960344486        4.90576981791103        1.76290758670605
H           -4.64977777394591        5.94051037562770       -0.37877883763645
H           -4.18163978650963        4.52320924947577       -2.34221958600047
H           -4.36002266605330        2.06357918049381       -2.16091919217584
H           -2.62573757496993        2.23310200547531        0.40163028241396
H           -0.25282398556354        2.50686423187014        0.45458575504932
H            1.64552956843798        2.69522156783137       -0.28640683347805
H            4.06883974267933        2.95839558447927       -0.28217221990123
H            7.93605686340579       -1.62578914072958        1.60896598964289
H            7.79157511521314       -4.06633250892494        1.26058129758257
H            6.59159073690343       -4.96487438839161       -0.69894038703521
H            5.53617182224586       -3.42375221350424       -2.31113003146779
H            5.68140012962827       -0.98282912092462       -1.96386218105261
H            9.04313725222088       -1.13743953081414       -1.33182346725843
H           11.37753251596144       -1.86022980869597       -1.42421163999090

 projected vibrational frequencies (cm⁻¹)
eigval :       -0.00    -0.00    -0.00     0.00     0.00     0.00
eigval :        6.65     8.22    13.41    19.76    23.47    26.24
eigval :       30.31    36.00    43.74    47.47    54.83    62.04
eigval :       69.42    73.22    83.42    89.53    94.22    97.38
eigval :      112.98   118.88   135.08   151.26   158.11   177.61
eigval :      206.09   217.64   226.09   237.59   238.12   243.00
eigval :      260.35   265.71   273.36   283.12   322.50   337.62
eigval :      355.46   358.49   366.47   371.91   373.32   376.74
eigval :      382.20   388.91   394.09   401.81   406.80   429.71
eigval :      431.73   438.62   444.61   457.19   470.65   474.57
eigval :      484.55   492.35   503.18   507.74   527.07   544.72
eigval :      572.83   582.73   584.89   586.01   587.90   594.40
eigval :      603.98   613.60   629.85   634.45   638.42   644.65
eigval :      654.42   659.70   661.59   666.86   671.31   672.98
eigval :      678.38   683.06   690.97   695.88   706.31   717.16
eigval :      731.10   752.45   758.95   759.94   761.93   769.51
eigval :      777.03   793.00   797.26   801.93   812.63   823.63
eigval :      855.76   869.86   872.35   872.70   875.12   897.11
eigval :      898.25   901.72   902.46   902.90   909.84   911.97
eigval :      913.84   914.64   917.65   917.80   924.15   926.86
eigval :      927.34   928.58   930.77   930.99   931.80   932.91
eigval :      940.48   941.10   946.95   971.61   983.37   992.24
eigval :     1003.58  1018.82  1027.94  1058.81  1077.55  1077.93
eigval :     1081.63  1082.93  1093.37  1100.66  1105.21  1114.63
eigval :     1116.26  1120.48  1133.07  1138.40  1148.21  1154.01
eigval :     1160.80  1164.21  1180.08  1180.31  1181.11  1181.67
eigval :     1184.54  1186.63  1190.78  1199.08  1204.59  1207.89
eigval :     1211.22  1245.98  1247.94  1254.10  1261.32  1272.91
eigval :     1273.21  1275.89  1277.03  1279.40  1285.35  1293.73
eigval :     1299.54  1305.16  1308.60  1315.04  1322.61  1326.30
eigval :     1334.39  1337.59  1339.48  1355.53  1375.58  1382.33
eigval :     1390.79  1395.06  1409.45  1424.08  1427.95  1431.63
eigval :     1433.20  1435.45  1437.51  1442.62  1446.50  1457.18
eigval :     1465.25  1475.19  1478.95  1488.90  1492.82  1503.93
eigval :     1510.60  1522.01  1544.58  1547.82  1567.07  1575.03
eigval :     1575.83  1576.67  1579.10  1583.44  1588.24  1589.59
eigval :     1591.42  1592.69  3075.37  3075.67  3079.83  3081.13
eigval :     3083.59  3084.15  3084.22  3085.03  3085.98  3088.11
eigval :     3088.64  3090.02  3090.60  3091.31  3092.24  3092.57
eigval :     3095.49  3096.70  3097.21  3097.76  3099.27  3101.62
eigval :     3102.69  3103.25  3107.50  3107.91  3108.26  3111.57
eigval :     3113.29  3122.16  3125.22

   temp. (K)  partition function   enthalpy   heat capacity  entropy
                                   cal/mol     cal/K/mol   cal/K/mol   J/K/mol
 298.15  VIB  0.149E+21            24189.600    150.397    152.836
         ROT  0.148E+09              888.752      2.981     40.367
         INT  0.221E+29            25078.352    153.377    193.203
         TR   0.166E+29             1481.254      4.968     45.348
         TOT                       26559.6064   158.3456   238.5516   998.0999

       T/K    H(0)-H(T)+PV         H(T)/Eh          T*S/Eh         G(T)/Eh
   ------------------------------------------------------------------------
    298.15    0.423254E-01    0.672322E+00    0.113344E+00    0.558978E+00
   ------------------------------------------------------------------------

         :::::::::::::::::::::::::::::::::::::::::::::::::::::
         ::                  THERMODYNAMIC                  ::
         :::::::::::::::::::::::::::::::::::::::::::::::::::::
         :: total free energy        -130.476902270529 Eh   ::
         ::.................................................::
         :: total energy             -131.035880584204 Eh   ::
         :: zero point energy           0.629996446990 Eh   ::
         :: G(RRHO) w/o ZPVE           -0.071018133315 Eh   ::
         :: G(RRHO) contrib.            0.558978313675 Eh   ::
         :::::::::::::::::::::::::::::::::::::::::::::::::::::

           -------------------------------------------------
          | TOTAL ENERGY             -131.035880584204 Eh   |
          | TOTAL ENTHALPY           -130.363558710287 Eh   |
          | TOTAL FREE ENERGY        -130.476902270529 Eh   |
          | GRADIENT NORM               0.000137817112 Eh/α |
           -------------------------------------------------

 * finished run on 2025/07/16 at 14:45:09.395
