   * xtb version 6.7.1 (edcfbbe) compiled by 'albert@albert-system' on 2024-07-22

   ID    Z sym.   atoms
    1    6 C      1-5, 7-23, 25-31
    2    7 N      6, 24
    3    1 H      32-49

          program call               : xtb data2507/gas/ImPy-3/ImPy-3_gas_S0_crest.xyz --gfn 2 --ohess vtight --parallel 40 --molden --ceasefiles --namespace data2507/gas/ImPy-3/ImPy-3_gas_S0_finalOpt
          :  Hamiltonian                  GFN2-xTB          :
 * total energy  :   -77.1697452 Eh     change       -0.1107045E-07 Eh
 * total energy  :   -77.1697486 Eh     change       -0.3329213E-05 Eh
 * total energy  :   -77.1697498 Eh     change       -0.1227910E-05 Eh
 * total energy  :   -77.1697506 Eh     change       -0.8313691E-06 Eh
 * total energy  :   -77.1697513 Eh     change       -0.6836617E-06 Eh
 * total energy  :   -77.1697518 Eh     change       -0.4413267E-06 Eh
 * total energy  :   -77.1697519 Eh     change       -0.1728676E-06 Eh
 * total energy  :   -77.1697520 Eh     change       -0.7667205E-07 Eh
   *** GEOMETRY OPTIMIZATION CONVERGED AFTER 8 ITERATIONS ***

 final structure:
================
49
 xtb: 6.7.1 (edcfbbe)
C           -5.66221497150529        3.31460601357400       -0.64049952395528
C           -4.32135088066132        3.56493130802828       -0.39537982512357
C           -3.43910528570674        2.51711408726928       -0.22610093334520
C           -3.88377248970661        1.19579370188885       -0.29504512348251
C           -2.92351729156558        0.12289641266223       -0.10825517901182
N           -1.61399909964328        0.31841621245315       -0.37120968005028
C           -0.97131890901096       -0.80965764979322       -0.14662539390729
C            0.44415080490523       -1.03498978422404       -0.38808235669605
C            0.84613690834578       -2.20562299530592       -1.03385659724544
C            2.17469385424143       -2.46552455246099       -1.28845310835160
C            3.16538120730863       -1.55831751711129       -0.90812801310055
C            4.54694217307717       -1.80247914551842       -1.15399479929734
C            5.49328667455130       -0.90583451687887       -0.79172551894448
C            5.14149424646809        0.31774158668155       -0.15041339185524
C            6.10158164602558        1.25659911760585        0.23066821421008
C            5.73007509931876        2.43553621429468        0.85051575583400
C            4.39843863729228        2.70584900626491        1.10539883597350
C            3.40426846748155        1.79525506335167        0.74296013757689
C            2.02286443262105        2.03603992212838        0.99389322304348
C            1.07339549645808        1.14044455011349        0.63577817747625
C            1.41273835517652       -0.08172733083577       -0.01355306750965
C            2.78039128186271       -0.35251158195447       -0.27099609788970
C            3.77352898814018        0.58523485599592        0.10642452719227
N           -1.83642093337671       -1.77316138663051        0.29930439318367
C           -1.61989031618727       -3.03637359297509        0.76082809603843
C           -2.65802913981660       -3.77292793364840        1.22527813924468
C           -3.96531932897705       -3.22633770189703        1.26255531978646
C           -4.18018744102349       -1.94873457817470        0.83900404869556
C           -3.10789145205203       -1.19152400494682        0.33721026357995
C           -5.22961908063147        0.95394416073823       -0.56626541823429
C           -6.10921051696889        2.00713158534877       -0.73276741638565
H           -6.35401711328302        4.13413862505903       -0.76940668790808
H           -3.96492504660631        4.58325732514426       -0.33607003320193
H           -2.39177888229247        2.69920538825644       -0.04169052096757
H            0.09700091207777       -2.90581237529582       -1.37714895329842
H            2.45833756763213       -3.37585454808889       -1.79737309290688
H            4.81995011714222       -2.72818157449950       -1.64117894553243
H            6.53969339513495       -1.09876980654110       -0.98227912153891
H            7.14456136556079        1.05203819993857        0.03470551494965
H            6.48707141039727        3.15117489410776        1.13769835522477
H            4.11487117489628        3.62938558513842        1.58970780050598
H            1.74878102291308        2.95990147162990        1.48357905211856
H            0.03035391061535        1.34176452600187        0.82012979588808
H           -0.60006623573660       -3.38780662965990        0.75722368304879
H           -2.48384904535282       -4.77290030292091        1.58775429434789
H           -4.77556475528304       -3.82283634829431        1.65032208256523
H           -5.15507848597082       -1.49437707738831        0.90322194811854
H           -5.58423925238751       -0.05940454424016       -0.67863712827019
H           -7.15021413989833        1.80671387230894       -0.94326988199236

          :  Hamiltonian                  GFN2-xTB          :
         :: gradient norm              0.000044942797 Eh/a0 ::
         :: HOMO-LUMO gap              1.932558145048 eV    ::
         :: SCC energy               -78.630662741808 Eh    ::
         :: -> dispersion             -0.066758771333 Eh    ::
         :: repulsion energy           1.460910732985 Eh    ::

    * Orbital Energies and Occupations

         #    Occupation            Energy/Eh            Energy/eV
      -------------------------------------------------------------
         1        2.0000           -0.6914462             -18.8152
       ...           ...                  ...                  ...
        60        2.0000           -0.4220638             -11.4849
        61        2.0000           -0.4167798             -11.3412
        62        2.0000           -0.4167126             -11.3393
        63        2.0000           -0.4129618             -11.2373
        64        2.0000           -0.4084489             -11.1145
        65        2.0000           -0.4040654             -10.9952
        66        2.0000           -0.4034357             -10.9780
        67        2.0000           -0.3994785             -10.8704
        68        2.0000           -0.3957823             -10.7698
        69        2.0000           -0.3908094             -10.6345
        70        2.0000           -0.3761198             -10.2347
        71        2.0000           -0.3686209             -10.0307
        72        2.0000           -0.3490676              -9.4986 (HOMO)
        73                         -0.2780474              -7.5661 (LUMO)
        74                         -0.2618923              -7.1265
        75                         -0.2430232              -6.6130
        76                         -0.2325534              -6.3281
        77                         -0.2189160              -5.9570
        78                         -0.2164774              -5.8906
        79                         -0.2133976              -5.8068
        80                         -0.1943257              -5.2879
        81                         -0.1790660              -4.8726
        82                         -0.1498580              -4.0778
        83                         -0.1221878              -3.3249
       ...                                ...                  ...
       142                          0.7332634              19.9531
      -------------------------------------------------------------
                  HL-Gap            0.0710202 Eh            1.9326 eV

     #   Z          covCN         q      C6AA      α(0)
     1   6 C        2.920    -0.033    28.811     8.802
     2   6 C        2.918    -0.029    28.731     8.790
     3   6 C        2.928    -0.030    28.746     8.793
     4   6 C        2.973     0.010    27.785     8.646
     5   6 C        3.131     0.047    26.749     8.467
     6   7 N        1.915    -0.278    28.060     7.854
     7   6 C        3.119     0.106    25.495     8.270
     8   6 C        2.971    -0.007    28.190     8.709
     9   6 C        2.920    -0.039    28.968     8.826
    10   6 C        2.918    -0.039    28.973     8.827
    11   6 C        2.983     0.010    27.783     8.646
    12   6 C        2.913    -0.036    28.906     8.816
    13   6 C        2.914    -0.036    28.888     8.814
    14   6 C        2.982     0.012    27.748     8.641
    15   6 C        2.921    -0.037    28.926     8.820
    16   6 C        2.913    -0.030    28.752     8.793
    17   6 C        2.920    -0.037    28.910     8.817
    18   6 C        2.982     0.013    27.728     8.638
    19   6 C        2.914    -0.035    28.879     8.812
    20   6 C        2.912    -0.035    28.866     8.810
    21   6 C        2.983     0.013    27.727     8.638
    22   6 C        2.995     0.004    27.928     8.669
    23   6 C        2.998     0.003    27.937     8.670
    24   7 N        2.846     0.005    21.172     6.834
    25   6 C        2.851     0.012    27.746     8.633
    26   6 C        2.914    -0.040    29.004     8.831
    27   6 C        2.919    -0.034    28.844     8.807
    28   6 C        2.907    -0.034    28.846     8.807
    29   6 C        3.069     0.024    27.394     8.582
    30   6 C        2.923    -0.040    28.986     8.829
    31   6 C        2.919    -0.031    28.765     8.795
    32   1 H        0.926     0.027     2.631     2.536
    33   1 H        0.926     0.029     2.600     2.521
    34   1 H        0.926     0.047     2.352     2.398
    35   1 H        0.925     0.026     2.646     2.544
    36   1 H        0.926     0.030     2.580     2.512
    37   1 H        0.926     0.030     2.584     2.514
    38   1 H        0.926     0.031     2.575     2.509
    39   1 H        0.926     0.030     2.585     2.514
    40   1 H        0.926     0.030     2.593     2.518
    41   1 H        0.926     0.031     2.569     2.507
    42   1 H        0.926     0.033     2.551     2.497
    43   1 H        0.926     0.052     2.294     2.369
    44   1 H        0.926     0.049     2.327     2.385
    45   1 H        0.926     0.042     2.421     2.433
    46   1 H        0.926     0.037     2.495     2.470
    47   1 H        0.926     0.046     2.371     2.408
    48   1 H        0.926     0.025     2.654     2.548
    49   1 H        0.926     0.026     2.644     2.543

molecular dipole:
                 x           y           z       tot (Debye)
 q only:        0.053      -0.700       0.430
   full:       -0.047      -1.161       0.525       3.241

 projected vibrational frequencies (cm⁻¹)
eigval :       -0.00    -0.00    -0.00    -0.00     0.00     0.00
eigval :       22.16    27.33    31.03    51.84    69.99    82.72
eigval :       96.80   133.00   153.42   182.12   184.61   200.42
eigval :      203.36   236.65   249.00   285.06   287.06   340.31
eigval :      360.74   372.00   387.71   394.78   402.75   415.71
eigval :      454.23   464.73   475.54   476.75   495.81   502.64
eigval :      508.64   538.14   554.69   566.51   579.29   592.82
eigval :      600.81   624.28   645.65   651.99   662.61   675.97
eigval :      680.28   688.65   694.54   724.93   738.84   757.04
eigval :      760.64   766.51   773.30   787.63   800.81   817.48
eigval :      821.55   834.22   849.14   861.78   874.89   885.47
eigval :      892.10   897.39   909.01   918.53   918.94   923.51
eigval :      925.13   927.74   930.32   930.95   965.88   996.55
eigval :     1008.40  1057.72  1080.68  1085.93  1112.83  1119.20
eigval :     1125.76  1141.07  1157.30  1162.38  1180.43  1182.05
eigval :     1182.48  1197.85  1201.37  1206.17  1216.33  1225.88
eigval :     1239.37  1250.96  1265.65  1274.76  1285.43  1314.88
eigval :     1322.13  1323.60  1330.21  1339.61  1362.25  1387.65
eigval :     1389.91  1395.47  1411.77  1416.35  1429.98  1435.10
eigval :     1450.53  1469.27  1484.77  1491.25  1496.08  1517.15
eigval :     1540.61  1542.35  1562.45  1578.13  1580.12  1597.73
eigval :     1601.70  1606.71  1614.65  3063.48  3065.49  3068.41
eigval :     3068.48  3071.30  3073.46  3075.36  3077.32  3079.90
eigval :     3085.39  3086.23  3092.79  3099.07  3101.80  3103.79
eigval :     3111.65  3114.83  3119.40

   temp. (K)  partition function   enthalpy   heat capacity  entropy
                                   cal/mol     cal/K/mol   cal/K/mol   J/K/mol
 298.15  VIB  0.212E+09            12350.303     84.730     73.377
         ROT  0.214E+08              888.752      2.981     36.520
         INT  0.453E+16            13239.055     87.711    109.897
         TR   0.758E+28             1481.254      4.968     43.789
         TOT                       14720.3094    92.6789   153.6858   643.0213

       T/K    H(0)-H(T)+PV         H(T)/Eh          T*S/Eh         G(T)/Eh
   ------------------------------------------------------------------------
    298.15    0.234583E-01    0.397091E+00    0.730211E-01    0.324070E+00
   ------------------------------------------------------------------------

         :::::::::::::::::::::::::::::::::::::::::::::::::::::
         ::                  THERMODYNAMIC                  ::
         :::::::::::::::::::::::::::::::::::::::::::::::::::::
         :: total free energy         -76.845681798341 Eh   ::
         ::.................................................::
         :: total energy              -77.169752008821 Eh   ::
         :: zero point energy           0.373632971782 Eh   ::
         :: G(RRHO) w/o ZPVE           -0.049562761302 Eh   ::
         :: G(RRHO) contrib.            0.324070210480 Eh   ::
         :::::::::::::::::::::::::::::::::::::::::::::::::::::

           -------------------------------------------------
          | TOTAL ENERGY              -77.169752008821 Eh   |
          | TOTAL ENTHALPY            -76.772660730843 Eh   |
          | TOTAL FREE ENERGY         -76.845681798341 Eh   |
          | GRADIENT NORM               0.000044957688 Eh/α |
          | HOMO-LUMO GAP               1.932558296006 eV   |
           -------------------------------------------------

 * finished run on 2025/09/04 at 13:12:54.904
