   * xtb version 6.7.1 (edcfbbe) compiled by 'albert@albert-system' on 2024-07-22

   ID    Z sym.   atoms
    1    6 C      1-5, 7-23, 25-31
    2    7 N      6, 24
    3    1 H      32-49

          program call               : xtb data2507/gas/ImPy-3/ImPy-3_gas_T1_crest.xyz --gfn 2 --spinpol --tblite --uhf 2 --ohess vtight --parallel 40 --molden --ceasefiles --namespace data2507/gas/ImPy-3/ImPy-3_gas_T1_finalOpt
 * total energy  :   -77.1046270 Eh     change       -0.3515908E-08 Eh
 * total energy  :   -77.1046581 Eh     change       -0.3107367E-04 Eh
 * total energy  :   -77.1046735 Eh     change       -0.1543238E-04 Eh
 * total energy  :   -77.1046759 Eh     change       -0.2375607E-05 Eh
 * total energy  :   -77.1046775 Eh     change       -0.1592684E-05 Eh
 * total energy  :   -77.1046785 Eh     change       -0.9645964E-06 Eh
 * total energy  :   -77.1046795 Eh     change       -0.1079934E-05 Eh
 * total energy  :   -77.1046805 Eh     change       -0.9185508E-06 Eh
 * total energy  :   -77.1046812 Eh     change       -0.7014038E-06 Eh
 * total energy  :   -77.1046817 Eh     change       -0.5096844E-06 Eh
 * total energy  :   -77.1046822 Eh     change       -0.5505079E-06 Eh
 * total energy  :   -77.1046828 Eh     change       -0.5389767E-06 Eh
 * total energy  :   -77.1046835 Eh     change       -0.7724204E-06 Eh
 * total energy  :   -77.1046845 Eh     change       -0.9640692E-06 Eh
 * total energy  :   -77.1046852 Eh     change       -0.6894996E-06 Eh
 * total energy  :   -77.1046853 Eh     change       -0.8237326E-07 Eh
   *** GEOMETRY OPTIMIZATION CONVERGED AFTER 16 ITERATIONS ***

 final structure:
================
49
 xtb: 6.7.1 (edcfbbe)
C           -5.55025481459931        3.42931501828059       -0.51652898698628
C           -5.99746075698748        2.14687141888202       -0.78979770198580
C           -5.14702529525604        1.06629051523364       -0.65337496293953
C           -3.83026357825011        1.25504653246255       -0.23291992316889
C           -2.90219259230883        0.15232950646350       -0.07457990714576
N           -1.58357856129088        0.33369644415978       -0.22572981398298
C           -0.96738852949888       -0.83834329939937       -0.08061210223599
C            0.41286606849290       -1.08188184775179       -0.29319934920949
C            0.84081201328360       -2.32591205562749       -0.81400891650387
C            2.15265222375009       -2.61190211288655       -1.02271882375349
C            3.17731035190362       -1.66467302581636       -0.69867466443059
C            4.52600952751607       -1.95978927874866       -0.86737971955400
C            5.50462800591883       -1.02152403956602       -0.57702879147417
C            5.15746255605601        0.25134151679758       -0.10968753909231
C            6.13788841586435        1.23183343427625        0.19105933464575
C            5.77060106069212        2.48336196025572        0.64938312875157
C            4.44276682829144        2.80738519685454        0.82717372139474
C            3.42098961599249        1.86081076328883        0.54041918010361
C            2.06598874624285        2.15324708617480        0.70905425749752
C            1.08784686715316        1.20897975281238        0.43123512971797
C            1.41624314621754       -0.05986063086028       -0.03873685948657
C            2.78578896544771       -0.38473330669810       -0.22375035672839
C            3.78557223255474        0.57395510483236        0.06737906860386
N           -1.90554463437873       -1.81731548235836        0.23916437970670
C           -1.75762095737090       -3.09111057125236        0.68011837254454
C           -2.84760289993009       -3.82329888420899        1.03134760368671
C           -4.14031344577593       -3.24811487438042        0.98133503042218
C           -4.28451227842441       -1.94024099391360        0.61196532480981
C           -3.15625522890878       -1.19854990458497        0.23882677356469
C           -3.38254718511326        2.55430925858321        0.01668818415586
C           -4.23684599940584        3.62918372355161       -0.12071523897030
H           -6.21999392283479        4.27000976126682       -0.62212596748251
H           -7.01459835199855        1.98928425105824       -1.11888457120752
H           -5.49603940733486        0.07707879473157       -0.90841278137684
H            0.09466362168699       -3.04160852395172       -1.13095411409660
H            2.44621538310907       -3.55470710525094       -1.46079105605271
H            4.80936888941543       -2.93768956875034       -1.23082734964912
H            6.54786320218628       -1.26766618702377       -0.71290951864888
H            7.17963144200852        0.98247971470187        0.05320868190111
H            6.53499358082701        3.21476292932572        0.87202255715270
H            4.15694501847235        3.78422388058326        1.18818102642836
H            1.77832493830354        3.13260727807618        1.06378238145322
H            0.04934196257713        1.46014420784144        0.56827310671276
H           -0.75174089543999       -3.46820745593468        0.76935132701126
H           -2.72146271192240       -4.83615731823267        1.37639170655209
H           -4.99514300142393       -3.83721766451163        1.27200806841116
H           -5.24707670578986       -1.45645881120566        0.63165295559844
H           -2.35724066689241        2.69704945859673        0.31964171810810
H           -3.88047928052764        4.62889473612332        0.08075983282784

 projected vibrational frequencies (cm⁻¹)
eigval :       -0.00    -0.00     0.00     0.00     0.00     0.00
eigval :       21.12    25.61    33.19    55.86    64.63    84.73
eigval :       98.98   133.13   153.22   174.25   182.76   192.07
eigval :      200.89   230.96   258.50   274.01   281.95   335.03
eigval :      362.08   371.28   381.09   392.35   400.15   406.57
eigval :      420.07   450.06   451.53   468.68   493.50   496.31
eigval :      502.45   533.79   548.17   564.57   578.22   585.26
eigval :      593.27   615.85   622.07   648.38   657.89   664.24
eigval :      669.44   678.45   684.96   721.71   730.19   733.77
eigval :      749.38   758.39   763.15   775.65   779.72   797.94
eigval :      802.97   810.09   814.87   833.20   858.13   872.78
eigval :      878.91   882.01   885.69   898.23   906.22   912.29
eigval :      914.75   927.73   930.57   937.29   953.71   985.68
eigval :     1002.44  1058.38  1076.87  1083.15  1118.47  1119.06
eigval :     1123.98  1137.68  1145.75  1153.20  1168.27  1179.64
eigval :     1181.39  1191.95  1194.39  1201.46  1206.19  1210.05
eigval :     1229.58  1235.71  1246.69  1255.40  1273.02  1287.37
eigval :     1310.81  1319.02  1324.65  1332.20  1333.81  1365.40
eigval :     1367.01  1376.07  1381.00  1389.08  1409.06  1417.60
eigval :     1433.32  1439.78  1459.22  1461.14  1484.74  1490.26
eigval :     1498.54  1515.53  1518.66  1523.24  1535.96  1552.82
eigval :     1569.09  1575.63  1593.10  3060.15  3065.17  3066.43
eigval :     3071.86  3073.37  3077.26  3077.85  3080.40  3081.64
eigval :     3087.30  3088.06  3093.46  3103.02  3107.29  3109.09
eigval :     3118.23  3121.71  3121.97

   temp. (K)  partition function   enthalpy   heat capacity  entropy
                                   cal/mol     cal/K/mol   cal/K/mol   J/K/mol
 298.15  VIB  0.270E+09            12557.011     86.203     74.574
         ROT  0.215E+08              888.752      2.981     36.534
         INT  0.582E+16            13445.764     89.184    111.108
         TR   0.758E+28             1481.254      4.968     43.789
         TOT                       14927.0175    94.1517   154.8969   648.0887

       T/K    H(0)-H(T)+PV         H(T)/Eh          T*S/Eh         G(T)/Eh
   ------------------------------------------------------------------------
    298.15    0.237877E-01    0.394030E+00    0.735965E-01    0.320434E+00
   ------------------------------------------------------------------------

         :::::::::::::::::::::::::::::::::::::::::::::::::::::
         ::                  THERMODYNAMIC                  ::
         :::::::::::::::::::::::::::::::::::::::::::::::::::::
         :: total free energy         -76.784251537756 Eh   ::
         ::.................................................::
         :: total energy              -77.104685249303 Eh   ::
         :: zero point energy           0.370242516225 Eh   ::
         :: G(RRHO) w/o ZPVE           -0.049808804678 Eh   ::
         :: G(RRHO) contrib.            0.320433711547 Eh   ::
         :::::::::::::::::::::::::::::::::::::::::::::::::::::

           -------------------------------------------------
          | TOTAL ENERGY              -77.104685249303 Eh   |
          | TOTAL ENTHALPY            -76.710655016586 Eh   |
          | TOTAL FREE ENERGY         -76.784251537756 Eh   |
          | GRADIENT NORM               0.000192858719 Eh/α |
           -------------------------------------------------

 * finished run on 2025/09/04 at 13:14:12.392
