   * xtb version 6.7.1 (edcfbbe) compiled by 'albert@albert-system' on 2024-07-22

   ID    Z sym.   atoms
    1    6 C      1-5, 7-23, 25-31
    2    7 N      6, 24
    3    1 H      32-49

          program call               : xtb data2507/gas/ImPy-3/ImPy-3.xyz --gfn 2 --ohess vtight --parallel 40 --molden --ceasefiles --namespace data2507/gas/ImPy-3/ImPy-3_gas_S0_preOpt
          :  Hamiltonian                  GFN2-xTB          :
 * total energy  :   -77.1552473 Eh     change       -0.2010239E-08 Eh
 * total energy  :   -77.1641490 Eh     change       -0.8901690E-02 Eh
 * total energy  :   -77.1662642 Eh     change       -0.2115201E-02 Eh
 * total energy  :   -77.1665731 Eh     change       -0.3089398E-03 Eh
 * total energy  :   -77.1668542 Eh     change       -0.2810361E-03 Eh
 * total energy  :   -77.1670015 Eh     change       -0.1473139E-03 Eh
 * total energy  :   -77.1672005 Eh     change       -0.1990013E-03 Eh
 * total energy  :   -77.1673985 Eh     change       -0.1980328E-03 Eh
 * total energy  :   -77.1675433 Eh     change       -0.1448087E-03 Eh
 * total energy  :   -77.1676702 Eh     change       -0.1268449E-03 Eh
 * total energy  :   -77.1688706 Eh     change       -0.1666076E-05 Eh
 * total energy  :   -77.1688720 Eh     change       -0.1449113E-05 Eh
 * total energy  :   -77.1688734 Eh     change       -0.1397205E-05 Eh
 * total energy  :   -77.1688750 Eh     change       -0.1535420E-05 Eh
 * total energy  :   -77.1688769 Eh     change       -0.1899881E-05 Eh
 * total energy  :   -77.1688793 Eh     change       -0.2439536E-05 Eh
 * total energy  :   -77.1688823 Eh     change       -0.3037806E-05 Eh
 * total energy  :   -77.1688855 Eh     change       -0.3178856E-05 Eh
 * total energy  :   -77.1688855 Eh     change       -0.7487472E-08 Eh
   *** GEOMETRY OPTIMIZATION CONVERGED AFTER 68 ITERATIONS ***

 final structure:
================
49
 xtb: 6.7.1 (edcfbbe)
C           -6.82044432226160       -1.50692679156255        1.39282939200756
C           -5.84259698721458       -2.41858023880920        1.02731026353665
C           -4.62015642012272       -1.97677188705734        0.56307039970462
C           -4.35444382862391       -0.61117340374421        0.45207119622935
C           -3.05476189630370       -0.18642252860343       -0.03578908039990
N           -1.97054837896212       -0.98122782730364        0.10306535234591
C           -0.92695098586112       -0.33961786186805       -0.37733424045098
C            0.42496783998615       -0.87982652887121       -0.40932145409386
C            0.60076485784307       -2.16207261130546       -0.92660700924659
C            1.85551743723833       -2.71783602215917       -1.04388878189752
C            2.99045968463825       -2.00831303721920       -0.64385993648132
C            4.30442811404942       -2.54006373435139       -0.78728936342273
C            5.39204958706146       -1.84713957466735       -0.37746975528846
C            5.26284337806094       -0.56200641272363        0.22590950999536
C            6.36937144394274        0.16475398366938        0.66859308190114
C            6.21089477416690        1.40432158014691        1.26054372287062
C            4.95030252444917        1.94656072202808        1.42925874005812
C            3.81587702961268        1.25658800616877        0.99916164954598
C            2.49920460314159        1.76887347022484        1.18221719525438
C            1.41239415237404        1.09226192697877        0.74353802195878
C            1.53504670677846       -0.16155825826525        0.07280705309838
C            2.82909850123177       -0.72489566937414       -0.06528874363108
C            3.96701792153759       -0.01012558481040        0.38366686577221
N           -1.29629080372996        0.87579311600221       -0.88356508712614
C           -0.58718176346882        1.81933149987054       -1.56445608863431
C           -1.21701756060457        2.92235588334402       -2.03499670049409
C           -2.61258362591724        3.08738299782957       -1.84477232062194
C           -3.32889453810577        2.13363625256195       -1.18517232672034
C           -2.67418525664050        0.99779943814139       -0.67794795906268
C           -5.33597504356929        0.29830240592244        0.84312807489260
C           -6.55915515327262       -0.14975564451334        1.30534192997586
H           -7.77830128431499       -1.85200311218585        1.75385124618356
H           -6.03746499022935       -3.47851282122821        1.10589438411695
H           -3.84734253154341       -2.67456993320075        0.28064903587254
H           -0.27302330030009       -2.70777572110618       -1.24882482796224
H            1.97236515977144       -3.70785816997567       -1.46055414477742
H            4.40912180084308       -3.51812800233977       -1.23540650568637
H            6.38523826590313       -2.25778467589868       -0.49253814188143
H            7.35765170198428       -0.25480312359788        0.54556759432648
H            7.07911479133591        1.95169716534426        1.59820092942510
H            4.83253580907288        2.91219521265945        1.89997259734477
H            2.38628050412281        2.71371554398700        1.69499566867681
H            0.42410270892157        1.48799657819361        0.92658423836370
H            0.46502061514632        1.62728784272910       -1.70636088941874
H           -0.65641513021801        3.66970699174782       -2.57228378595869
H           -3.09820248391681        3.96382639247957       -2.24330227742481
H           -4.39627421518570        2.21840957469408       -1.06398067804934
H           -5.13168849909056        1.35802858334574        0.81569852240539
H           -7.31176791376031        0.56492500867118        1.60708243286025

          :  Hamiltonian                  GFN2-xTB          :
         :: gradient norm              0.000069701161 Eh/a0 ::
         :: HOMO-LUMO gap              1.876966597933 eV    ::
         :: SCC energy               -78.630133730538 Eh    ::
         :: -> dispersion             -0.067114675003 Eh    ::
         :: repulsion energy           1.461248205969 Eh    ::

    * Orbital Energies and Occupations

         #    Occupation            Energy/Eh            Energy/eV
      -------------------------------------------------------------
         1        2.0000           -0.6909918             -18.8028
       ...           ...                  ...                  ...
        60        2.0000           -0.4230533             -11.5119
        61        2.0000           -0.4178715             -11.3709
        62        2.0000           -0.4160471             -11.3212
        63        2.0000           -0.4125978             -11.2274
        64        2.0000           -0.4115251             -11.1982
        65        2.0000           -0.4090966             -11.1321
        66        2.0000           -0.4069103             -11.0726
        67        2.0000           -0.4000835             -10.8868
        68        2.0000           -0.3949156             -10.7462
        69        2.0000           -0.3934442             -10.7062
        70        2.0000           -0.3756502             -10.2220
        71        2.0000           -0.3705955             -10.0844
        72        2.0000           -0.3500581              -9.5256 (HOMO)
        73                         -0.2810809              -7.6486 (LUMO)
        74                         -0.2609745              -7.1015
        75                         -0.2448404              -6.6624
        76                         -0.2323658              -6.3230
        77                         -0.2236332              -6.0854
        78                         -0.2169727              -5.9041
        79                         -0.2124826              -5.7819
        80                         -0.1972235              -5.3667
        81                         -0.1815548              -4.9404
        82                         -0.1504545              -4.0941
        83                         -0.1278382              -3.4787
       ...                                ...                  ...
       142                          0.7281655              19.8144
      -------------------------------------------------------------
                  HL-Gap            0.0689772 Eh            1.8770 eV

     #   Z          covCN         q      C6AA      α(0)
     1   6 C        2.920    -0.033    28.814     8.803
     2   6 C        2.918    -0.029    28.731     8.790
     3   6 C        2.928    -0.030    28.750     8.793
     4   6 C        2.973     0.010    27.781     8.646
     5   6 C        3.136     0.046    26.737     8.463
     6   7 N        1.914    -0.278    28.068     7.855
     7   6 C        3.129     0.106    25.465     8.262
     8   6 C        2.972    -0.005    28.152     8.703
     9   6 C        2.922    -0.030    28.744     8.792
    10   6 C        2.918    -0.036    28.892     8.814
    11   6 C        2.982     0.011    27.769     8.644
    12   6 C        2.913    -0.035    28.881     8.812
    13   6 C        2.913    -0.036    28.896     8.815
    14   6 C        2.982     0.012    27.743     8.640
    15   6 C        2.920    -0.037    28.909     8.817
    16   6 C        2.914    -0.030    28.748     8.792
    17   6 C        2.920    -0.037    28.919     8.819
    18   6 C        2.982     0.011    27.758     8.642
    19   6 C        2.913    -0.037    28.914     8.817
    20   6 C        2.912    -0.036    28.904     8.816
    21   6 C        2.982     0.005    27.912     8.666
    22   6 C        2.995     0.003    27.948     8.672
    23   6 C        2.997     0.003    27.937     8.670
    24   7 N        2.847     0.005    21.169     6.833
    25   6 C        2.851     0.013    27.706     8.627
    26   6 C        2.914    -0.040    29.001     8.831
    27   6 C        2.919    -0.034    28.852     8.808
    28   6 C        2.907    -0.034    28.850     8.807
    29   6 C        3.071     0.023    27.413     8.585
    30   6 C        2.923    -0.040    28.987     8.829
    31   6 C        2.919    -0.031    28.768     8.796
    32   1 H        0.926     0.027     2.634     2.538
    33   1 H        0.926     0.029     2.603     2.523
    34   1 H        0.926     0.048     2.340     2.392
    35   1 H        0.926     0.044     2.394     2.420
    36   1 H        0.926     0.035     2.511     2.478
    37   1 H        0.926     0.032     2.554     2.499
    38   1 H        0.926     0.032     2.562     2.503
    39   1 H        0.926     0.031     2.568     2.506
    40   1 H        0.926     0.030     2.582     2.513
    41   1 H        0.926     0.031     2.576     2.510
    42   1 H        0.926     0.030     2.580     2.512
    43   1 H        0.926     0.027     2.633     2.538
    44   1 H        0.926     0.047     2.357     2.401
    45   1 H        0.926     0.042     2.425     2.435
    46   1 H        0.926     0.036     2.499     2.472
    47   1 H        0.926     0.046     2.375     2.410
    48   1 H        0.926     0.025     2.658     2.549
    49   1 H        0.926     0.026     2.647     2.544

molecular dipole:
                 x           y           z       tot (Debye)
 q only:        0.471       0.572      -0.532
   full:        0.574       0.978      -0.700       3.387

 projected vibrational frequencies (cm⁻¹)
eigval :       -0.00    -0.00    -0.00    -0.00     0.00     0.00
eigval :       18.34    27.86    35.21    49.20    72.12    85.43
eigval :       95.77   119.50   152.82   184.87   186.97   201.61
eigval :      214.88   227.87   242.35   278.86   291.24   338.59
eigval :      366.33   372.33   388.83   394.56   398.92   409.87
eigval :      453.85   462.11   476.39   478.15   495.69   503.98
eigval :      507.82   537.13   552.00   568.60   580.60   592.27
eigval :      606.03   615.86   645.57   652.41   662.85   678.98
eigval :      679.69   688.89   693.22   713.80   743.79   756.66
eigval :      760.26   765.69   773.36   785.05   801.77   818.16
eigval :      827.25   836.43   850.90   856.12   875.52   885.95
eigval :      892.12   897.86   909.81   913.12   919.98   922.57
eigval :      923.71   927.98   928.17   930.48   966.63   995.48
eigval :     1010.11  1055.52  1078.97  1084.04  1109.19  1118.36
eigval :     1125.37  1138.08  1157.87  1161.50  1180.34  1181.46
eigval :     1181.92  1192.54  1199.99  1206.44  1215.07  1224.39
eigval :     1240.28  1247.62  1263.51  1274.37  1287.84  1314.16
eigval :     1321.37  1323.57  1332.31  1348.77  1356.53  1388.55
eigval :     1391.37  1394.73  1411.04  1415.16  1430.11  1435.07
eigval :     1450.18  1470.07  1484.55  1490.57  1495.85  1525.09
eigval :     1539.63  1541.97  1562.10  1578.59  1580.13  1597.77
eigval :     1602.81  1606.44  1615.60  3066.32  3067.87  3068.58
eigval :     3070.75  3073.05  3075.74  3076.97  3080.86  3084.95
eigval :     3086.13  3088.07  3091.73  3097.92  3098.18  3100.69
eigval :     3104.90  3114.76  3118.88

   temp. (K)  partition function   enthalpy   heat capacity  entropy
                                   cal/mol     cal/K/mol   cal/K/mol   J/K/mol
 298.15  VIB  0.239E+09            12368.819     84.816     73.639
         ROT  0.202E+08              888.752      2.981     36.414
         INT  0.485E+16            13257.572     87.796    110.053
         TR   0.758E+28             1481.254      4.968     43.789
         TOT                       14738.8255    92.7646   153.8416   643.6732

       T/K    H(0)-H(T)+PV         H(T)/Eh          T*S/Eh         G(T)/Eh
   ------------------------------------------------------------------------
    298.15    0.234878E-01    0.397040E+00    0.730951E-01    0.323944E+00
   ------------------------------------------------------------------------

         :::::::::::::::::::::::::::::::::::::::::::::::::::::
         ::                  THERMODYNAMIC                  ::
         :::::::::::::::::::::::::::::::::::::::::::::::::::::
         :: total free energy         -76.844941049632 Eh   ::
         ::.................................................::
         :: total energy              -77.168885524569 Eh   ::
         :: zero point energy           0.373551767680 Eh   ::
         :: G(RRHO) w/o ZPVE           -0.049607292743 Eh   ::
         :: G(RRHO) contrib.            0.323944474937 Eh   ::
         :::::::::::::::::::::::::::::::::::::::::::::::::::::

           -------------------------------------------------
          | TOTAL ENERGY              -77.168885524569 Eh   |
          | TOTAL ENTHALPY            -76.771845943368 Eh   |
          | TOTAL FREE ENERGY         -76.844941049632 Eh   |
          | GRADIENT NORM               0.000069700216 Eh/α |
          | HOMO-LUMO GAP               1.876966316664 eV   |
           -------------------------------------------------

 * finished run on 2025/09/04 at 13:11:43.744
