   * xtb version 6.7.1 (edcfbbe) compiled by 'albert@albert-system' on 2024-07-22

   ID    Z sym.   atoms
    1    6 C      1-5, 7-23, 25-31
    2    7 N      6, 24
    3    1 H      32-49

          program call               : xtb data2507/gas/ImPy-3/ImPy-3_gas_S0_finalOpt.xtbopt.xyz --gfn 2 --spinpol --tblite --uhf 2 --ohess vtight --parallel 40 --molden --ceasefiles --namespace data2507/gas/ImPy-3/ImPy-3_gas_T1_preOpt
 * total energy  :   -77.0960300 Eh     change       -0.1745600E-07 Eh
 * total energy  :   -77.1020152 Eh     change       -0.5985173E-02 Eh
 * total energy  :   -77.1038024 Eh     change       -0.1787236E-02 Eh
 * total energy  :   -77.1039268 Eh     change       -0.1243642E-03 Eh
 * total energy  :   -77.1040743 Eh     change       -0.1475302E-03 Eh
 * total energy  :   -77.1041247 Eh     change       -0.5039980E-04 Eh
 * total energy  :   -77.1041821 Eh     change       -0.5743330E-04 Eh
 * total energy  :   -77.1042267 Eh     change       -0.4458262E-04 Eh
 * total energy  :   -77.1042638 Eh     change       -0.3704538E-04 Eh
 * total energy  :   -77.1043038 Eh     change       -0.4001370E-04 Eh
 * total energy  :   -77.1046828 Eh     change       -0.4233928E-06 Eh
 * total energy  :   -77.1046832 Eh     change       -0.3485469E-06 Eh
 * total energy  :   -77.1046835 Eh     change       -0.3053244E-06 Eh
 * total energy  :   -77.1046838 Eh     change       -0.3542317E-06 Eh
 * total energy  :   -77.1046841 Eh     change       -0.2592177E-06 Eh
 * total energy  :   -77.1046843 Eh     change       -0.1990541E-06 Eh
 * total energy  :   -77.1046845 Eh     change       -0.1490069E-06 Eh
 * total energy  :   -77.1046846 Eh     change       -0.1085509E-06 Eh
 * total energy  :   -77.1046847 Eh     change       -0.9791420E-07 Eh
   *** GEOMETRY OPTIMIZATION CONVERGED AFTER 40 ITERATIONS ***

 final structure:
================
49
 xtb: 6.7.1 (edcfbbe)
C           -5.60725004378218        3.34031677219881       -0.50710310453779
C           -4.29430812921173        3.56512063863492       -0.12330953404960
C           -3.42149771918443        2.50565223580785        0.01748564500894
C           -3.84975986127692        1.19701667222098       -0.21675491143584
C           -2.90317952595674        0.11062869781985       -0.05576286652337
N           -1.58814312208375        0.31192313560671       -0.21358744297052
C           -0.95346546520756       -0.84989275310118       -0.06755241077124
C            0.42942303301743       -1.07375508419313       -0.28575064957134
C            0.87217189802696       -2.31063581395469       -0.81085454535125
C            2.18683590468128       -2.57716179354435       -1.02770995216881
C            3.19950848027333       -1.61579978492402       -0.70745401618082
C            4.55130083812767       -1.89074118452552       -0.88509555390393
C            5.51797151573300       -0.93941652926741       -0.59689663632527
C            5.15523519682561        0.32628300006461       -0.12210567190754
C            6.12321490670247        1.31939421726151        0.17782289794775
C            5.74054902031613        2.56325239159047        0.64439224895237
C            4.40922262245970        2.86735590973461        0.83104833120856
C            3.39941947833107        1.90763973395088        0.54512300169905
C            2.04134393906614        2.17980285656403        0.72266974129458
C            1.07522091200395        1.22300564868000        0.44540612610936
C            1.41935600603638       -0.03865785633603       -0.03245347698365
C            2.79236160904908       -0.34327824276273       -0.22581987635992
C            3.77987941439980        0.62840221326208        0.06403264516710
N           -1.87467493382058       -1.84225514946794        0.25949682627532
C           -1.70426441984875       -3.11262231330903        0.70212499169460
C           -2.78059800168776       -3.86064647518260        1.06188588170297
C           -4.08210975601419       -3.30517152570711        1.01926502702402
C           -4.24881019994745       -2.00071801518607        0.64717197621931
C           -3.13470210832720       -1.24289451626964        0.26412220232261
C           -5.16628572449257        0.98318017465829       -0.62592441754624
C           -6.03536188798537        2.04836541993731       -0.76551012271773
H           -6.29149535698182        4.16893263076576       -0.61509514299720
H           -3.95276335932993        4.57238955398583        0.06568214414338
H           -2.39626520562573        2.66780994441981        0.31072916500256
H            0.13448971987095       -3.03634997546854       -1.12488678097777
H            2.49152502665086       -3.51467699180655       -1.46949442559537
H            4.84660355846009       -2.86319954893541       -1.25354754886197
H            6.56384829321006       -1.16985032555260       -0.73976032684596
H            7.16764290486736        1.08579220633983        0.03291993210292
H            6.49562731964805        3.30456752918999        0.86596303303652
H            4.11151862403602        3.83823685697614        1.19840709175832
H            1.74182654160139        3.15309993338219        1.08416998912365
H            0.03395959971914        1.45850460504199        0.58950682300061
H           -0.69210956253899       -3.47402466780030        0.78534451542202
H           -2.63681722758059       -4.87078782811026        1.40797711615049
H           -4.92592217221764       -3.90618286848565        1.31765508163897
H           -5.21859008863411       -1.53187667290043        0.67268103172462
H           -5.50098348828312       -0.01371436589681       -0.86972791030164
H           -7.05227589388168        1.87110689957824       -1.08515938441137

 projected vibrational frequencies (cm⁻¹)
eigval :       -0.00    -0.00    -0.00    -0.00     0.00     0.00
eigval :       21.28    25.57    32.83    55.68    64.89    84.59
eigval :       99.06   133.12   153.10   174.23   182.89   192.03
eigval :      200.68   231.27   258.54   273.99   281.97   335.11
eigval :      362.01   371.27   381.10   392.28   400.12   406.42
eigval :      420.09   450.02   451.56   468.75   493.44   496.22
eigval :      502.43   533.66   548.22   564.57   578.30   585.30
eigval :      593.25   615.78   622.05   648.31   657.97   664.30
eigval :      669.41   678.42   684.97   721.66   730.09   733.78
eigval :      749.35   758.45   763.19   775.57   779.60   797.99
eigval :      802.89   810.23   814.78   833.07   858.19   872.79
eigval :      878.81   881.93   885.79   898.23   906.31   912.26
eigval :      914.76   927.74   930.59   937.21   953.73   985.66
eigval :     1002.49  1058.40  1076.99  1083.24  1118.47  1119.15
eigval :     1124.04  1137.67  1145.84  1153.27  1168.24  1179.59
eigval :     1181.43  1191.92  1194.51  1201.60  1206.28  1210.12
eigval :     1229.53  1235.70  1246.66  1255.39  1273.02  1287.51
eigval :     1310.73  1319.11  1324.81  1332.23  1333.87  1365.41
eigval :     1367.18  1376.09  1380.99  1389.14  1409.10  1417.66
eigval :     1433.47  1439.95  1459.27  1461.20  1484.62  1490.24
eigval :     1498.47  1515.63  1518.70  1523.13  1535.74  1553.01
eigval :     1569.05  1575.74  1593.17  3060.04  3065.34  3066.63
eigval :     3071.97  3073.51  3077.52  3078.03  3080.53  3081.85
eigval :     3087.56  3088.43  3093.93  3103.01  3107.51  3109.03
eigval :     3118.32  3121.19  3122.04

   temp. (K)  partition function   enthalpy   heat capacity  entropy
                                   cal/mol     cal/K/mol   cal/K/mol   J/K/mol
 298.15  VIB  0.272E+09            12557.420     86.197     74.571
         ROT  0.215E+08              888.752      2.981     36.535
         INT  0.585E+16            13446.172     89.178    111.106
         TR   0.758E+28             1481.254      4.968     43.789
         TOT                       14927.4261    94.1461   154.8947   648.0794

       T/K    H(0)-H(T)+PV         H(T)/Eh          T*S/Eh         G(T)/Eh
   ------------------------------------------------------------------------
    298.15    0.237884E-01    0.394038E+00    0.735955E-01    0.320443E+00
   ------------------------------------------------------------------------

         :::::::::::::::::::::::::::::::::::::::::::::::::::::
         ::                  THERMODYNAMIC                  ::
         :::::::::::::::::::::::::::::::::::::::::::::::::::::
         :: total free energy         -76.784241730918 Eh   ::
         ::.................................................::
         :: total energy              -77.104684668462 Eh   ::
         :: zero point energy           0.370250038531 Eh   ::
         :: G(RRHO) w/o ZPVE           -0.049807100987 Eh   ::
         :: G(RRHO) contrib.            0.320442937544 Eh   ::
         :::::::::::::::::::::::::::::::::::::::::::::::::::::

           -------------------------------------------------
          | TOTAL ENERGY              -77.104684668462 Eh   |
          | TOTAL ENTHALPY            -76.710646262268 Eh   |
          | TOTAL FREE ENERGY         -76.784241730918 Eh   |
          | GRADIENT NORM               0.000031623279 Eh/α |
           -------------------------------------------------

 * finished run on 2025/09/04 at 13:12:58.538
