   * xtb version 6.7.1 (edcfbbe) compiled by 'albert@albert-system' on 2024-07-22

   ID    Z sym.   atoms
    1    7 N      1, 4, 14, 29, 32, 38, 57, 60
    2    6 C      2, 3, 5-13, 15-28, 30, 31, 33-37, 39-56, 58, 59
    3    1 H      61-92

          program call               : xtb data2507/gas/CNPP-TPA/CNPP-TPA_gas_S0_crest.xyz --gfn 2 --ohess vtight --parallel 40 --molden --ceasefiles --namespace data2507/gas/CNPP-TPA/CNPP-TPA_gas_S0_finalOpt
          :  Hamiltonian                  GFN2-xTB          :
 * total energy  :  -151.0100139 Eh     change       -0.2963503E-08 Eh
 * total energy  :  -151.0100143 Eh     change       -0.4875232E-06 Eh
 * total energy  :  -151.0100142 Eh     change        0.1214855E-06 Eh
 * total energy  :  -151.0100165 Eh     change       -0.2291655E-05 Eh
 * total energy  :  -151.0100179 Eh     change       -0.1359502E-05 Eh
 * total energy  :  -151.0100141 Eh     change        0.3789193E-05 Eh
 * total energy  :  -151.0100203 Eh     change       -0.6254565E-05 Eh
 * total energy  :  -151.0100210 Eh     change       -0.6116394E-06 Eh
 * total energy  :  -151.0100218 Eh     change       -0.8902661E-06 Eh
 * total energy  :  -151.0100225 Eh     change       -0.6597001E-06 Eh
 * total energy  :  -151.0100241 Eh     change       -0.4130117E-06 Eh
 * total energy  :  -151.0100247 Eh     change       -0.6600307E-06 Eh
 * total energy  :  -151.0100254 Eh     change       -0.6852615E-06 Eh
 * total energy  :  -151.0100259 Eh     change       -0.5102797E-06 Eh
 * total energy  :  -151.0100263 Eh     change       -0.3342621E-06 Eh
 * total energy  :  -151.0100266 Eh     change       -0.2804205E-06 Eh
 * total energy  :  -151.0100268 Eh     change       -0.2317772E-06 Eh
 * total energy  :  -151.0100270 Eh     change       -0.2398511E-06 Eh
 * total energy  :  -151.0100270 Eh     change       -0.7041848E-08 Eh
   *** GEOMETRY OPTIMIZATION CONVERGED AFTER 22 ITERATIONS ***

 final structure:
================
92
 xtb: 6.7.1 (edcfbbe)
N           10.36253109671009        1.96605519812626        0.25100995222110
C            9.35702674852957        1.42130344141168        0.18294219464168
C            8.13206060068547        0.71372489145390        0.09451408551820
N            6.99830887726407        1.39048300709700        0.17193908799711
C            5.85319097537671        0.71573388502206        0.09051694250930
C            4.61248921128349        1.43300593952764        0.15853821884478
C            4.54162812884849        2.82833798846257        0.29392638288174
C            3.31299433351752        3.44026664388558        0.32599245323683
C            2.14937101518083        2.65176549429247        0.21288197658056
C            0.79819957135356        3.20201981804814        0.18148984894941
C            0.46330337561492        4.45634831005757        0.69311311328946
C           -0.83566497220162        4.91273491021599        0.64656975845344
C           -1.84689653361207        4.13912244992275        0.06671194414409
N           -3.15404362441922        4.60394994313415        0.01103848024085
C           -4.23554228971008        3.70978386582025        0.01458215604098
C           -5.34925866021049        3.95872203439439       -0.78627179306942
C           -6.41930416200779        3.08501647315966       -0.78048237972028
C           -6.39196870497504        1.94922032000916        0.01145103983625
C           -5.28700013170695        1.69505429134358        0.80739786955596
C           -4.21789348485572        2.57011268187671        0.81819429983684
C           -3.41727287929152        5.98006522292405       -0.08269517674646
C           -2.63799947966944        6.79818487914831       -0.89889276807794
C           -2.90825702793570        8.15017909731968       -0.98685043115641
C           -3.95942736847607        8.70309976347690       -0.27382991407114
C           -4.74115899168628        7.89207456191098        0.53248075420490
C           -4.47390283387299        6.54037669505996        0.63293956536448
C           -1.51091862164993        2.88334379247619       -0.45184439398501
C           -0.21888685365025        2.42319132336596       -0.38169880220829
N            2.21926359677101        1.33339562537745        0.09663235708059
C            3.39469502420729        0.72780183552445        0.07376277328741
C            3.39608474214243       -0.71872303552997       -0.05127737748382
N            2.22180676154603       -1.32675302840419       -0.07529927577171
C            2.15529028518212       -2.64474747716311       -0.19670344116500
C            0.80552134926691       -3.19854322728845       -0.16966033040143
C           -0.21121023088546       -2.43304242892730        0.41171701810284
C           -1.50214794124834       -2.89716280608145        0.47633608846811
C           -1.83751880870726       -4.14222272968754       -0.06793140772545
N           -3.14382953657200       -4.60971220602988       -0.02005549517807
C           -4.22680081055443       -3.71748906346891        0.00474210540371
C           -5.33521530580459       -3.98875461132320        0.80566726853338
C           -6.40662264009604       -3.11701535696106        0.82865891955318
C           -6.38588168233127       -1.96146456921478        0.06563391614191
C           -5.28648672931601       -1.68546179030785       -0.73075179777701
C           -4.21604114780268       -2.55809350809281       -0.77020156721244
C           -3.40607380143707       -5.98811284071177        0.03709042450012
C           -2.62620165604813       -6.82761177329587        0.83064044375496
C           -2.89556179704246       -8.18169609084762        0.88156352078138
C           -3.94634008974733       -8.71561452604874        0.15362741406939
C           -4.72890680991373       -7.88336526857267       -0.62991992826978
C           -4.46263834402840       -6.52922819298371       -0.69320798797618
C           -0.82636723544034       -4.90207124896253       -0.66595149688620
C            0.47185835097908       -4.44297938200317       -0.70540738723722
C            3.32033699238568       -3.43067963617870       -0.31206721896471
C            4.54767713150350       -2.81638734483411       -0.27693090548663
C            4.61525801251616       -1.42124597895336       -0.13786857793457
C            5.85450426380103       -0.70149687126248       -0.06947569528225
N            7.00077333404851       -1.37410918723961       -0.15184620534834
C            8.13332930637640       -0.69527734702911       -0.07544713874528
C            9.35946333229169       -1.40066325161859       -0.16559384988628
N           10.36596077529833       -1.94330542743671       -0.23525685196721
H            5.45950218158175        3.39308753640494        0.36067867973495
H            3.24052320044453        4.51310050492544        0.40953139841226
H            1.21420716635478        5.07027916698821        1.16748145395316
H           -1.08269258861454        5.87409504289717        1.07239029040165
H           -5.36765565817201        4.83833911886896       -1.41291304163034
H           -7.27589054229202        3.28890045219250       -1.40588385837529
H           -7.22913851635078        1.26837039798539        0.01011026906445
H           -5.26015344776588        0.81180590726541        1.42846430956459
H           -3.36389462442512        2.37803246592627        1.45080672343067
H           -1.82615436462380        6.36527341113150       -1.46494121621574
H           -2.29926876328593        8.77429744621951       -1.62400006201638
H           -4.16909783166994        9.75925405942416       -0.34756680437217
H           -5.56089513987608        8.31589175086966        1.09340569277371
H           -5.07955652758581        5.90877337001732        1.26630090746001
H           -2.27483816658223        2.27843698187835       -0.91704514886412
H            0.04146802796803        1.45264789779073       -0.77338729783055
H            0.04819319406058       -1.46994199567217        0.82197438961835
H           -2.26565850808551       -2.30347822615021        0.95638464293810
H           -5.34826591832380       -4.88406819206773        1.40982398898836
H           -7.25895512426623       -3.33813347646115        1.45401348502464
H           -7.22394079362359       -1.28213869008517        0.08967473959413
H           -5.26509742833788       -0.78679053987928       -1.32953383351972
H           -3.36629742899852       -2.34873338289604       -1.40307023369476
H           -1.81452800902585       -6.40979454138386        1.40815955964128
H           -2.28608161103882       -8.82263853938973        1.50129449590207
H           -4.15508300740274       -9.77358116157145        0.19820002238853
H           -5.54842358965315       -8.29225011799148       -1.20212727811096
H           -5.06884377840277       -5.88071836284533       -1.30870684374508
H           -1.07287865754044       -5.85444790911778       -1.11173868766487
H            1.22308562409100       -5.04532603682089       -1.19397760235831
H            3.24938209871910       -4.50336030665237       -0.39919389108676
H            5.46687967754830       -3.37884759188743       -0.34467616979683

          :  Hamiltonian                  GFN2-xTB          :
         :: gradient norm              0.000105787424 Eh/a0 ::
         :: HOMO-LUMO gap              1.144040663319 eV    ::
         :: SCC energy              -153.827198451565 Eh    ::
         :: -> dispersion             -0.134244870343 Eh    ::
         :: repulsion energy           2.817171422088 Eh    ::

    * Orbital Energies and Occupations

         #    Occupation            Energy/Eh            Energy/eV
      -------------------------------------------------------------
         1        2.0000           -0.7067769             -19.2324
       ...           ...                  ...                  ...
       128        2.0000           -0.4166220             -11.3369
       129        2.0000           -0.4165996             -11.3363
       130        2.0000           -0.4141065             -11.2684
       131        2.0000           -0.4138648             -11.2618
       132        2.0000           -0.4129486             -11.2369
       133        2.0000           -0.4128672             -11.2347
       134        2.0000           -0.4056518             -11.0383
       135        2.0000           -0.4035862             -10.9821
       136        2.0000           -0.3789302             -10.3112
       137        2.0000           -0.3726502             -10.1403
       138        2.0000           -0.3715797             -10.1112
       139        2.0000           -0.3601717              -9.8008
       140        2.0000           -0.3589470              -9.7674 (HOMO)
       141                         -0.3169043              -8.6234 (LUMO)
       142                         -0.3130461              -8.5184
       143                         -0.2776600              -7.5555
       144                         -0.2750104              -7.4834
       145                         -0.2591762              -7.0525
       146                         -0.2398603              -6.5269
       147                         -0.2398290              -6.5261
       148                         -0.2371633              -6.4535
       149                         -0.2361712              -6.4265
       150                         -0.2357952              -6.4163
       151                         -0.2311263              -6.2893
       ...                                ...                  ...
       272                          1.1684949              31.7964
      -------------------------------------------------------------
                  HL-Gap            0.0420427 Eh            1.1440 eV

     #   Z          covCN         q      C6AA      α(0)
     1   7 N        0.911    -0.195    25.227     7.264
     2   6 C        1.909     0.112    28.333     8.596
     3   6 C        2.953     0.100    25.792     8.330
     4   7 N        1.853    -0.219    26.607     7.645
     5   6 C        2.961     0.084    26.116     8.382
     6   6 C        2.982    -0.018    28.448     8.749
     7   6 C        2.923    -0.011    28.297     8.723
     8   6 C        2.914    -0.043    29.060     8.840
     9   6 C        2.954     0.101    25.768     8.326
    10   6 C        2.982    -0.003    28.102     8.696
    11   6 C        2.920    -0.031    28.774     8.796
    12   6 C        2.921    -0.050    29.248     8.869
    13   6 C        2.922     0.069    26.461     8.436
    14   7 N        2.752    -0.068    22.553     7.053
    15   6 C        2.925     0.064    26.556     8.451
    16   6 C        2.923    -0.046    29.147     8.853
    17   6 C        2.919    -0.029    28.723     8.789
    18   6 C        2.919    -0.036    28.894     8.815
    19   6 C        2.919    -0.028    28.696     8.785
    20   6 C        2.922    -0.046    29.138     8.852
    21   6 C        2.926     0.064    26.559     8.451
    22   6 C        2.922    -0.046    29.131     8.851
    23   6 C        2.920    -0.028    28.712     8.787
    24   6 C        2.919    -0.036    28.892     8.814
    25   6 C        2.920    -0.028    28.707     8.786
    26   6 C        2.922    -0.045    29.122     8.850
    27   6 C        2.920    -0.049    29.208     8.863
    28   6 C        2.926    -0.026    28.657     8.779
    29   7 N        1.857    -0.217    26.581     7.642
    30   6 C        2.965     0.087    26.071     8.375
    31   6 C        2.965     0.087    26.071     8.375
    32   7 N        1.857    -0.217    26.582     7.642
    33   6 C        2.954     0.101    25.766     8.326
    34   6 C        2.983    -0.003    28.103     8.696
    35   6 C        2.926    -0.026    28.654     8.779
    36   6 C        2.920    -0.049    29.211     8.863
    37   6 C        2.922     0.069    26.461     8.436
    38   7 N        2.752    -0.068    22.554     7.053
    39   6 C        2.925     0.064    26.556     8.451
    40   6 C        2.923    -0.046    29.146     8.853
    41   6 C        2.919    -0.029    28.722     8.788
    42   6 C        2.919    -0.036    28.893     8.815
    43   6 C        2.919    -0.028    28.697     8.785
    44   6 C        2.922    -0.046    29.137     8.852
    45   6 C        2.926     0.064    26.559     8.451
    46   6 C        2.922    -0.045    29.130     8.851
    47   6 C        2.920    -0.029    28.713     8.787
    48   6 C        2.919    -0.036    28.891     8.814
    49   6 C        2.920    -0.028    28.707     8.786
    50   6 C        2.922    -0.045    29.121     8.849
    51   6 C        2.921    -0.050    29.250     8.869
    52   6 C        2.920    -0.031    28.774     8.796
    53   6 C        2.914    -0.043    29.060     8.840
    54   6 C        2.923    -0.011    28.296     8.723
    55   6 C        2.982    -0.018    28.447     8.749
    56   6 C        2.961     0.085    26.115     8.382
    57   7 N        1.853    -0.219    26.607     7.645
    58   6 C        2.953     0.100    25.792     8.330
    59   6 C        1.909     0.112    28.333     8.596
    60   7 N        0.911    -0.195    25.227     7.264
    61   1 H        0.926     0.059     2.215     2.328
    62   1 H        0.926     0.043     2.411     2.428
    63   1 H        0.926     0.035     2.510     2.477
    64   1 H        0.926     0.035     2.513     2.479
    65   1 H        0.926     0.033     2.546     2.495
    66   1 H        0.926     0.034     2.533     2.489
    67   1 H        0.926     0.032     2.561     2.503
    68   1 H        0.926     0.034     2.526     2.485
    69   1 H        0.926     0.036     2.504     2.475
    70   1 H        0.926     0.034     2.524     2.485
    71   1 H        0.926     0.035     2.518     2.482
    72   1 H        0.926     0.034     2.531     2.488
    73   1 H        0.926     0.035     2.519     2.482
    74   1 H        0.926     0.034     2.534     2.489
    75   1 H        0.926     0.038     2.482     2.464
    76   1 H        0.926     0.067     2.123     2.278
    77   1 H        0.926     0.066     2.130     2.282
    78   1 H        0.926     0.038     2.482     2.463
    79   1 H        0.926     0.033     2.547     2.495
    80   1 H        0.926     0.034     2.533     2.489
    81   1 H        0.926     0.032     2.561     2.502
    82   1 H        0.926     0.034     2.526     2.485
    83   1 H        0.926     0.036     2.503     2.474
    84   1 H        0.926     0.034     2.523     2.484
    85   1 H        0.926     0.035     2.518     2.481
    86   1 H        0.926     0.034     2.531     2.488
    87   1 H        0.926     0.035     2.519     2.482
    88   1 H        0.926     0.034     2.534     2.489
    89   1 H        0.926     0.035     2.513     2.479
    90   1 H        0.926     0.035     2.510     2.478
    91   1 H        0.926     0.043     2.411     2.428
    92   1 H        0.926     0.059     2.215     2.327

molecular dipole:
                 x           y           z       tot (Debye)
 q only:       -4.835      -0.008      -0.005
   full:       -4.819      -0.007      -0.006      12.248

 projected vibrational frequencies (cm⁻¹)
eigval :       -0.00    -0.00    -0.00     0.00     0.00     0.00
eigval :        7.99    12.81    14.49    17.57    24.42    24.76
eigval :       26.79    40.16    40.77    44.36    47.89    52.03
eigval :       53.06    64.77    66.13    71.25    76.19    79.65
eigval :       89.52    94.63    95.14   105.81   106.88   108.57
eigval :      134.53   150.83   150.98   156.18   167.23   190.98
eigval :      205.81   207.41   224.63   234.34   236.54   245.13
eigval :      247.79   276.96   297.34   298.77   313.64   314.42
eigval :      321.86   336.97   337.86   342.22   377.42   378.39
eigval :      378.57   378.86   382.35   383.96   387.48   388.93
eigval :      395.84   398.78   400.84   412.08   417.33   429.80
eigval :      447.02   455.59   459.79   473.08   480.82   486.54
eigval :      489.46   501.68   501.92   508.19   538.14   540.18
eigval :      564.35   573.92   581.94   583.97   585.01   586.66
eigval :      590.91   593.57   593.63   605.90   610.90   615.54
eigval :      624.45   640.58   646.32   657.11   661.30   662.12
eigval :      666.13   667.15   669.28   682.63   694.00   698.45
eigval :      708.22   719.60   728.19   733.21   758.33   758.39
eigval :      758.79   759.27   762.85   767.72   775.85   815.46
eigval :      817.79   834.63   836.69   866.33   866.82   874.19
eigval :      876.28   876.33   877.00   877.87   894.71   895.50
eigval :      895.79   896.33   909.59   909.91   913.91   916.86
eigval :      917.07   925.13   925.38   927.25   927.58   928.45
eigval :      928.67   929.21   929.37   930.97   931.04   931.19
eigval :      934.40   935.96   945.55   983.33   985.64  1005.18
eigval :     1005.41  1010.26  1016.25  1058.85  1070.78  1082.66
eigval :     1082.73  1084.13  1084.53  1098.49  1103.79  1120.90
eigval :     1121.38  1122.70  1124.07  1136.21  1136.47  1148.59
eigval :     1154.00  1161.56  1176.95  1180.52  1180.53  1182.46
eigval :     1186.56  1187.14  1194.30  1195.21  1195.39  1195.74
eigval :     1210.17  1214.00  1221.34  1251.24  1262.72  1269.53
eigval :     1269.59  1277.35  1277.86  1280.99  1281.13  1295.10
eigval :     1295.40  1309.22  1309.86  1316.39  1316.62  1317.07
eigval :     1324.25  1325.24  1325.74  1329.21  1333.24  1336.90
eigval :     1338.87  1347.42  1371.99  1373.36  1406.32  1406.53
eigval :     1414.75  1421.45  1434.93  1436.14  1440.91  1441.32
eigval :     1443.45  1460.97  1469.27  1470.06  1470.67  1471.29
eigval :     1473.61  1474.32  1489.47  1493.09  1523.34  1524.35
eigval :     1548.28  1551.60  1552.96  1560.77  1578.04  1578.07
eigval :     1581.92  1581.98  1593.33  1593.80  1594.03  1594.63
eigval :     1600.81  1601.25  2367.00  2368.60  3077.94  3078.19
eigval :     3078.36  3078.47  3078.88  3079.26  3079.35  3079.82
eigval :     3080.60  3080.68  3087.30  3087.45  3087.83  3088.15
eigval :     3088.59  3088.76  3089.04  3089.46  3090.85  3090.88
eigval :     3091.60  3092.11  3093.00  3093.03  3099.16  3099.64
eigval :     3099.72  3100.65  3100.97  3101.27  3110.61  3111.38

   temp. (K)  partition function   enthalpy   heat capacity  entropy
                                   cal/mol     cal/K/mol   cal/K/mol   J/K/mol
 298.15  VIB  0.268E+24            28659.474    174.885    181.462
         ROT  0.217E+09              888.752      2.981     41.124
         INT  0.580E+32            29548.226    177.866    222.586
         TR   0.206E+29             1481.254      4.968     45.777
         TOT                       31029.4800   182.8344   268.3635  1122.8329

       T/K    H(0)-H(T)+PV         H(T)/Eh          T*S/Eh         G(T)/Eh
   ------------------------------------------------------------------------
    298.15    0.494486E-01    0.733075E+00    0.127508E+00    0.605567E+00
   ------------------------------------------------------------------------

         :::::::::::::::::::::::::::::::::::::::::::::::::::::
         ::                  THERMODYNAMIC                  ::
         :::::::::::::::::::::::::::::::::::::::::::::::::::::
         :: total free energy        -150.404460088160 Eh   ::
         ::.................................................::
         :: total energy             -151.010027029566 Eh   ::
         :: zero point energy           0.683626483390 Eh   ::
         :: G(RRHO) w/o ZPVE           -0.078059541985 Eh   ::
         :: G(RRHO) contrib.            0.605566941405 Eh   ::
         :::::::::::::::::::::::::::::::::::::::::::::::::::::

           -------------------------------------------------
          | TOTAL ENERGY             -151.010027029566 Eh   |
          | TOTAL ENTHALPY           -150.276951922320 Eh   |
          | TOTAL FREE ENERGY        -150.404460088160 Eh   |
          | GRADIENT NORM               0.000105868819 Eh/α |
          | HOMO-LUMO GAP               1.144040836453 eV   |
           -------------------------------------------------

 * finished run on 2025/08/24 at 01:24:06.307
