   * xtb version 6.7.1 (edcfbbe) compiled by 'albert@albert-system' on 2024-07-22

   ID    Z sym.   atoms
    1    7 N      1, 4, 14, 29, 32, 38, 57, 60
    2    6 C      2, 3, 5-13, 15-28, 30, 31, 33-37, 39-56, 58, 59
    3    1 H      61-92

          program call               : xtb data2507/gas/CNPP-TPA/CNPP-TPA_gas_S0_finalOpt.xtbopt.xyz --gfn 2 --spinpol --tblite --uhf 2 --ohess vtight --parallel 40 --molden --ceasefiles --namespace data2507/gas/CNPP-TPA/CNPP-TPA_gas_T1_preOpt
 * total energy  :  -150.9565598 Eh     change        0.1545396E-07 Eh
 * total energy  :  -150.9583926 Eh     change       -0.1832856E-02 Eh
 * total energy  :  -150.9587405 Eh     change       -0.3478636E-03 Eh
 * total energy  :  -150.9587373 Eh     change        0.3124936E-05 Eh
 * total energy  :  -150.9587909 Eh     change       -0.5359904E-04 Eh
 * total energy  :  -150.9587839 Eh     change        0.7029544E-05 Eh
 * total energy  :  -150.9588024 Eh     change       -0.1847899E-04 Eh
 * total energy  :  -150.9588088 Eh     change       -0.6430291E-05 Eh
 * total energy  :  -150.9588224 Eh     change       -0.1356814E-04 Eh
 * total energy  :  -150.9588311 Eh     change       -0.8749991E-05 Eh
 * total energy  :  -150.9588452 Eh     change       -0.1938243E-05 Eh
 * total energy  :  -150.9588462 Eh     change       -0.1009635E-05 Eh
 * total energy  :  -150.9588467 Eh     change       -0.4748968E-06 Eh
 * total energy  :  -150.9588470 Eh     change       -0.3497014E-06 Eh
 * total energy  :  -150.9588475 Eh     change       -0.4768045E-06 Eh
 * total energy  :  -150.9588480 Eh     change       -0.5141311E-06 Eh
 * total energy  :  -150.9588485 Eh     change       -0.4828090E-06 Eh
 * total energy  :  -150.9588489 Eh     change       -0.3913478E-06 Eh
 * total energy  :  -150.9588489 Eh     change       -0.3604043E-07 Eh
   *** GEOMETRY OPTIMIZATION CONVERGED AFTER 22 ITERATIONS ***

 final structure:
================
92
 xtb: 6.7.1 (edcfbbe)
N           10.36718125823858        1.96652181916500        0.24192880563191
C            9.36968937045349        1.40221316434428        0.17371663833823
C            8.14746468883515        0.70890181459018        0.09035295750245
N            6.99638578042830        1.37935234574726        0.16282916832426
C            5.83210960495976        0.71463300649639        0.08592078755233
C            4.60043274614817        1.41437844952995        0.14967408322811
C            4.53047266380393        2.81566091591385        0.28386422832425
C            3.31148107580070        3.43648016795190        0.31525170144567
C            2.13620656753281        2.65633922397205        0.20092950395634
C            0.78763355946253        3.21798649188654        0.16642275728387
C            0.45479683603959        4.46169520906077        0.70301436114158
C           -0.84349857840183        4.92343673255117        0.65964039282111
C           -1.85150616484073        4.16428120908681        0.05816904213893
N           -3.16228669732120        4.63170853116543        0.00844267151120
C           -4.23847542821334        3.73530549140856        0.02423148108806
C           -5.36775985267284        3.98389101154763       -0.75639387127835
C           -6.43062166609568        3.10209347332228       -0.74209029686666
C           -6.38245514306089        1.95897626218723        0.03883353288554
C           -5.26264602471716        1.70489043151535        0.81430915780674
C           -4.19940474489335        2.58661148781715        0.81577941196363
C           -3.42011761206926        6.00619602300904       -0.08902852414705
C           -2.62483165858838        6.82212958626003       -0.89319081235751
C           -2.88732207610222        8.17527202622588       -0.98257995966932
C           -3.94469123542385        8.73267210135778       -0.28178032950029
C           -4.74097320406105        7.92469340157487        0.51376817646423
C           -4.48320665010542        6.57150799116980        0.61471781007857
C           -1.51794776614448        2.92097967180002       -0.48933359109153
C           -0.22712825353928        2.45580946008699       -0.42225210049219
N            2.19835533242255        1.34417122454011        0.08709774408289
C            3.36614998462351        0.72005945825802        0.06805045588793
C            3.36804933223204       -0.71231898899616       -0.04907992140752
N            2.20172406149924       -1.33947693159339       -0.06922851695283
C            2.14364973614139       -2.65138703366811       -0.18735706658588
C            0.79659744791335       -3.21700409851133       -0.15611196463879
C           -0.21757816043589       -2.46752965961177        0.44928317583497
C           -1.50736587861694       -2.93631283269065        0.51154848830223
C           -1.84063385674078       -4.16931502513219       -0.05902087076699
N           -3.15094379157277       -4.63841235324952       -0.01648605315829
C           -4.22776090491487       -3.74245351390375       -0.00885839873542
C           -5.35377031432839       -4.00894254514168        0.77054024654053
C           -6.41696458270627       -3.12747758569068        0.78027770842633
C           -6.37231871762063       -1.96720100123443        0.02488160301834
C           -5.25603528661810       -1.69564270056090       -0.74974121264421
C           -4.19254832640137       -2.57671916130733       -0.77525054303572
C           -3.40871809872852       -6.01484167671440        0.04893384876123
C           -2.61259603768057       -6.84979353837420        0.83245441026607
C           -2.87509691842003       -8.20468420802199        0.88972366543378
C           -3.93333554662958       -8.74509487169416        0.17702968319727
C           -4.73064509704116       -7.91824077140092       -0.59782330653231
C           -4.47287726681699       -6.56304617199998       -0.66663250483703
C           -0.83283138982858       -4.91575970652560       -0.67664306428095
C            0.46475328749107       -4.45146594890480       -0.71401743186414
C            3.32070837318034       -3.42825857824026       -0.30393116200917
C            4.53810582954045       -2.80435448215648       -0.26961724362633
C            4.60406188635215       -1.40327221334194       -0.13181305498342
C            5.83405378239475       -0.70031568296931       -0.06667457212353
N            6.99983891267076       -1.36198644303586       -0.14327100468091
C            8.14937232675240       -0.68859299862577       -0.07055546633079
C            9.37332185008982       -1.37875470430281       -0.15353033564168
N           10.37227487848214       -1.94054203894456       -0.22141372395712
H            5.45560353943208        3.37021699779235        0.35031525753196
H            3.24506640501086        4.50977622726839        0.39745998132409
H            1.20654055957401        5.06225454265456        1.19266958736931
H           -1.09144591442835        5.87532733210403        1.10592206168405
H           -5.40122494314223        4.86732203204434       -1.37686634868652
H           -7.29804698176864        3.30486692559193       -1.35253301181319
H           -7.21484117082427        1.27244761843995        0.04479259646319
H           -5.21990263369837        0.81627574002614        1.42663656506116
H           -3.33414732448894        2.39500816272190        1.43283331756589
H           -1.80881194056302        6.38562493048488       -1.45013294036093
H           -2.26711563473677        8.79713501624248       -1.61076949329990
H           -4.14750787817332        9.79000712017977       -0.35603519361297
H           -5.56438072192843        8.35233944208724        1.06613557024537
H           -5.09812833648029        5.94298524565519        1.24210506502880
H           -2.28149261219336        2.33098435015048       -0.97419070420836
H            0.03305861512307        1.49306848427880       -0.83300404924385
H            0.04181577894928       -1.51189207480430        0.87676226087812
H           -2.27038396367924       -2.35688842867693        1.00976238268901
H           -5.38430199942171       -4.90597600603209        1.37134356493213
H           -7.28172024647486       -3.34407379695570        1.38975653448772
H           -7.20470253779082       -1.28078658268687        0.03802987122180
H           -5.21632933219930       -0.79367325391935       -1.34246122293930
H           -3.33004222698089       -2.37125630614799       -1.39170245197294
H           -1.79592546530729       -6.42677343261884        1.39876831514122
H           -2.25421789498240       -8.84145712878690        1.50211374640005
H           -4.13604241491142       -9.80392061759690        0.22605845563318
H           -5.55475429241852       -8.33249223414715       -1.15927752727556
H           -5.08853107384836       -5.91960214557483       -1.27797354142620
H           -1.08037977785603       -5.85925640010226       -1.14058671080335
H            1.21663073223173       -5.04133284835714       -1.21636579109062
H            3.25655854503544       -4.50146056408487       -0.38948903831578
H            5.46476131117835       -3.35624911428419       -0.33689224338752

 projected vibrational frequencies (cm⁻¹)
eigval :       -0.00    -0.00     0.00     0.00     0.00     0.00
eigval :        7.82    11.88    14.24    17.44    23.80    24.20
eigval :       32.85    39.67    40.93    44.32    49.89    52.01
eigval :       54.24    65.19    65.76    71.07    75.89    76.69
eigval :       91.62    94.95    97.02   106.48   106.82   109.56
eigval :      132.02   149.06   150.87   154.01   166.82   191.09
eigval :      206.92   208.25   224.58   232.74   235.23   243.38
eigval :      259.27   264.13   296.74   297.90   313.13   316.65
eigval :      325.02   329.22   338.07   339.04   375.93   376.18
eigval :      377.31   377.84   378.87   380.80   385.67   387.89
eigval :      392.05   397.12   404.70   409.44   414.95   426.12
eigval :      435.64   447.81   460.91   471.66   477.29   489.47
eigval :      492.65   497.93   505.74   510.56   516.26   528.31
eigval :      555.09   563.48   571.84   583.15   584.06   585.48
eigval :      587.62   592.47   593.05   594.71   608.86   610.77
eigval :      613.02   616.01   632.46   638.59   648.73   651.99
eigval :      660.53   661.14   665.13   668.13   681.02   689.68
eigval :      692.17   698.45   715.06   718.93   738.52   756.60
eigval :      758.02   758.04   759.73   763.66   769.91   809.69
eigval :      809.91   827.09   827.42   864.10   865.60   866.26
eigval :      870.58   874.78   874.95   875.47   876.67   894.65
eigval :      895.49   896.29   896.89   905.94   909.31   909.69
eigval :      914.86   915.15   915.88   916.16   924.76   925.14
eigval :      927.83   928.37   928.49   929.21   929.43   930.28
eigval :      930.63   930.69   932.46   933.99   982.26   984.77
eigval :     1004.31  1004.54  1009.62  1015.49  1054.47  1060.36
eigval :     1082.01  1082.10  1083.44  1083.88  1094.03  1097.86
eigval :     1120.92  1121.45  1122.90  1124.11  1126.48  1133.34
eigval :     1138.05  1145.57  1148.69  1176.71  1180.17  1180.17
eigval :     1181.71  1184.69  1185.83  1191.31  1192.75  1193.96
eigval :     1194.82  1207.39  1213.36  1217.08  1237.07  1247.45
eigval :     1264.12  1267.79  1276.18  1276.92  1278.84  1279.06
eigval :     1283.79  1285.58  1305.29  1307.91  1309.12  1314.60
eigval :     1316.38  1318.06  1321.25  1321.36  1326.19  1326.22
eigval :     1331.67  1332.03  1348.40  1356.59  1364.02  1389.99
eigval :     1397.69  1411.97  1415.67  1416.30  1435.08  1435.12
eigval :     1440.44  1441.27  1443.72  1447.58  1466.18  1466.68
eigval :     1468.77  1469.34  1474.75  1478.50  1488.49  1493.49
eigval :     1533.04  1542.35  1550.95  1551.71  1574.58  1574.62
eigval :     1578.31  1578.33  1586.74  1587.19  1588.92  1589.28
eigval :     1597.09  1597.24  2318.12  2343.13  3076.47  3076.52
eigval :     3079.83  3080.13  3080.40  3080.71  3080.73  3080.96
eigval :     3081.07  3081.50  3081.99  3082.04  3086.56  3086.76
eigval :     3089.04  3089.22  3090.26  3091.02  3092.33  3092.38
eigval :     3093.23  3093.28  3093.60  3094.11  3097.91  3098.20
eigval :     3100.02  3101.24  3101.49  3102.10  3109.58  3110.31

   temp. (K)  partition function   enthalpy   heat capacity  entropy
                                   cal/mol     cal/K/mol   cal/K/mol   J/K/mol
 298.15  VIB  0.295E+24            28850.559    176.616    182.508
         ROT  0.218E+09              888.752      2.981     41.133
         INT  0.641E+32            29739.311    179.597    223.641
         TR   0.206E+29             1481.254      4.968     45.777
         TOT                       31220.5650   184.5648   269.4180  1127.2449

       T/K    H(0)-H(T)+PV         H(T)/Eh          T*S/Eh         G(T)/Eh
   ------------------------------------------------------------------------
    298.15    0.497531E-01    0.729517E+00    0.128009E+00    0.601508E+00
   ------------------------------------------------------------------------

         :::::::::::::::::::::::::::::::::::::::::::::::::::::
         ::                  THERMODYNAMIC                  ::
         :::::::::::::::::::::::::::::::::::::::::::::::::::::
         :: total free energy        -150.357341088751 Eh   ::
         ::.................................................::
         :: total energy             -150.958848911859 Eh   ::
         :: zero point energy           0.679763871104 Eh   ::
         :: G(RRHO) w/o ZPVE           -0.078256047997 Eh   ::
         :: G(RRHO) contrib.            0.601507823108 Eh   ::
         :::::::::::::::::::::::::::::::::::::::::::::::::::::

           -------------------------------------------------
          | TOTAL ENERGY             -150.958848911859 Eh   |
          | TOTAL ENTHALPY           -150.229331903432 Eh   |
          | TOTAL FREE ENERGY        -150.357341088751 Eh   |
          | GRADIENT NORM               0.000171121170 Eh/α |
           -------------------------------------------------

 * finished run on 2025/08/24 at 01:24:20.681
