   * xtb version 6.7.1 (edcfbbe) compiled by 'albert@albert-system' on 2024-07-22

   ID    Z sym.   atoms
    1    7 N      1, 4, 14, 29, 32, 38, 57, 60
    2    6 C      2, 3, 5-13, 15-28, 30, 31, 33-37, 39-56, 58, 59
    3    1 H      61-92

          program call               : xtb data2507/gas/CNPP-TPA/CNPP-TPA_gas_T1_crest.xyz --gfn 2 --spinpol --tblite --uhf 2 --ohess vtight --parallel 40 --molden --ceasefiles --namespace data2507/gas/CNPP-TPA/CNPP-TPA_gas_T1_finalOpt
 * total energy  :  -150.9583898 Eh     change        0.5513982E-07 Eh
 * total energy  :  -150.9586167 Eh     change       -0.2268811E-03 Eh
 * total energy  :  -150.9586828 Eh     change       -0.6614219E-04 Eh
 * total energy  :  -150.9586793 Eh     change        0.3527275E-05 Eh
 * total energy  :  -150.9587102 Eh     change       -0.3093775E-04 Eh
 * total energy  :  -150.9587130 Eh     change       -0.2758991E-05 Eh
 * total energy  :  -150.9587211 Eh     change       -0.8135371E-05 Eh
 * total energy  :  -150.9587243 Eh     change       -0.3240297E-05 Eh
 * total energy  :  -150.9587266 Eh     change       -0.2261880E-05 Eh
 * total energy  :  -150.9587279 Eh     change       -0.1303481E-05 Eh
 * total energy  :  -150.9587762 Eh     change       -0.1558158E-06 Eh
 * total energy  :  -150.9587765 Eh     change       -0.2858670E-06 Eh
 * total energy  :  -150.9587767 Eh     change       -0.2085813E-06 Eh
 * total energy  :  -150.9587769 Eh     change       -0.1649203E-06 Eh
 * total energy  :  -150.9587771 Eh     change       -0.2063366E-06 Eh
 * total energy  :  -150.9587774 Eh     change       -0.2406695E-06 Eh
 * total energy  :  -150.9587777 Eh     change       -0.3302478E-06 Eh
 * total energy  :  -150.9587777 Eh     change        0.1542159E-07 Eh
 * total energy  :  -150.9587777 Eh     change       -0.5064905E-07 Eh
   *** GEOMETRY OPTIMIZATION CONVERGED AFTER 69 ITERATIONS ***

 final structure:
================
92
 xtb: 6.7.1 (edcfbbe)
N           10.47791444127422        1.66030663068196        0.19907972888401
C            9.46137008805854        1.12760743512566        0.16164821701896
C            8.21707108102588        0.47263052390274        0.11585022422502
N            7.08957815327718        1.18668472188013        0.05661313736307
C            5.90561942440599        0.56003097265263        0.01620639504594
C            4.70008988154976        1.30806052502885       -0.05093582258184
C            4.67757272842040        2.71685983544022       -0.06860413229355
C            3.47981154736735        3.37864391508775       -0.12783395474541
C            2.28267635196024        2.62913775672501       -0.18942996080285
C            0.94345621325939        3.21162151210991       -0.25801968876527
C           -0.07660767492694        2.43551962933470       -0.81757683811246
C           -1.37642200375339        2.87729470061085       -0.83389564941898
C           -1.71167496014697        4.10841598210274       -0.26075420639635
N           -3.04470630314870        4.51230659211350       -0.20603975966191
C           -3.38556651381628        5.86589731819007       -0.30282120883516
C           -4.43488422014946        6.38398706423782        0.45656333838703
C           -4.77200320226741        7.71940776721799        0.35489670892139
C           -4.06956519749106        8.55766718261833       -0.49588740964546
C           -3.02570179803413        8.04787423476028       -1.25113898038697
C           -2.68453565558664        6.71255586087966       -1.16180346705901
C           -4.05156549866848        3.54831107147144       -0.05994304789095
C           -3.84798491429723        2.43070711685875        0.75128207145846
C           -4.82739267496926        1.46382719691054        0.86276624883701
C           -6.02826601086482        1.60118373408791        0.18520919943539
C           -6.24391933950048        2.71860559923107       -0.60481698249441
C           -5.26504065967806        3.68531266640156       -0.73357986979308
C           -0.69210987966951        4.90080348604985        0.27294228285539
C            0.61581789366678        4.46155926129615        0.26522490840870
N            2.30019020274537        1.31067391777440       -0.18292100519954
C            3.44561040720392        0.65077082578126       -0.10362425217165
C            3.39343368048330       -0.78438898563006       -0.05487571980664
N            2.20529517894946       -1.36337541020955       -0.06158454020722
C            2.08209410895451       -2.67568576921292        0.00177732359826
C            0.70518210402529       -3.16449103121507        0.02800406439670
C           -0.32684757862749       -2.22104099201985       -0.06400954175188
C           -1.64637355884310       -2.59858392454999       -0.02607631970720
C           -1.99173305926937       -3.94686394621132        0.11327267311614
N           -3.33076329254889       -4.32958649539596        0.16624739617295
C           -3.74323262649964       -5.54628741432916       -0.38998670381841
C           -4.73382612226559       -6.30544627350196        0.23307511171517
C           -5.14159633700456       -7.50328870037792       -0.32049894407042
C           -4.56836593123230       -7.96492070886865       -1.49441360831015
C           -3.58325561780379       -7.21470471372183       -2.11624324041415
C           -3.17276151312610       -6.01240484532394       -1.57458268453100
C           -4.27475505308312       -3.49075861093005        0.77194475036505
C           -5.55134060776293       -3.35492055115985        0.22644574043291
C           -6.48171634227190       -2.53241681106529        0.83140158516523
C           -6.15728439452584       -1.83294995303644        1.98242850137267
C           -4.88912396649103       -1.96279031567329        2.52668674219556
C           -3.95226605531037       -2.78448183932813        1.93121876692134
C           -0.96888230934477       -4.89435772709980        0.20280735684616
C            0.35434264405708       -4.50933273881554        0.15873461312132
C            3.23168085843352       -3.50243328500569        0.05277067057068
C            4.47364231443718       -2.92809515546168        0.05777388940343
C            4.60147152399061       -1.52457103076243        0.01588203109207
C            5.85368497647257       -0.86294135821467        0.04360735984754
N            6.99627866811595       -1.56958024525262        0.10115944574429
C            8.16647206782440       -0.93308118723588        0.13326647112458
C            9.36465204721650       -1.67132134824838        0.18905253397741
N           10.34230249419446       -2.27104039603628        0.23394735624702
H            5.61959001794642        3.24525117173522       -0.03487316442893
H            3.44712491671903        4.45659548846358       -0.15232690279840
H            0.18323025542442        1.47644723777971       -1.23628082252883
H           -2.15008998136962        2.27258859205008       -1.28338445469982
H           -4.97547019671358        5.73352218448851        1.12838926651117
H           -5.58373077734360        8.11003296278360        0.95035664212080
H           -4.33439070030330        9.60116230504981       -0.57044864408513
H           -2.47817648692958        8.69305325301125       -1.92195241690376
H           -1.88020635066406        6.31281477889272       -1.76167824619766
H           -2.91759282149844        2.32646254587273        1.28956594038372
H           -4.65511010516247        0.59738476426788        1.48379964253231
H           -6.78800443579994        0.83977143484271        0.27283069645830
H           -7.17666119609902        2.83379014885917       -1.13671597539598
H           -5.42851994784421        4.54593081974383       -1.36546235461064
H           -0.93851194416359        5.85267498691801        0.72017489468014
H            1.37908905158124        5.07849999427598        0.71542821406135
H           -0.05316756588025       -1.18320082034630       -0.16887978255173
H           -2.42676892760674       -1.85656570130457       -0.11300797543282
H           -5.17330993107662       -5.95213100666411        1.15436849593033
H           -5.90641866839667       -8.08430780216292        0.17296539702942
H           -4.88765203081379       -8.90282375975499       -1.92216866722993
H           -3.13669426873141       -7.56399962441265       -3.03527071076405
H           -2.41455872153915       -5.42168751621678       -2.06725028060505
H           -5.80384849322459       -3.89378303861291       -0.67490470315662
H           -7.46572270113073       -2.43402019479496        0.39732023519512
H           -6.88669928819324       -1.19196057278098        2.45406293835423
H           -4.63039816422088       -1.42856035727611        3.42932829611319
H           -2.96829578281123       -2.89253478328380        2.36306095010716
H           -1.22262093316000       -5.93756957827646        0.32258850264335
H            1.11493870481938       -5.26999181216187        0.24435622051960
H            3.13345202561770       -4.57536772547590        0.09009215245216
H            5.37529794278311       -3.52235465509606        0.09999675790983

 projected vibrational frequencies (cm⁻¹)
eigval :       -0.00    -0.00     0.00     0.00     0.00     0.00
eigval :        7.79    12.27    14.58    16.13    22.38    31.27
eigval :       33.57    38.34    40.84    45.50    47.27    51.19
eigval :       56.10    62.94    66.90    71.95    74.63    76.49
eigval :       87.95    95.35    96.90   101.09   106.47   110.48
eigval :      131.01   149.77   151.99   153.78   168.92   195.22
eigval :      196.90   211.49   224.85   232.59   233.86   243.49
eigval :      259.01   265.63   295.35   298.09   314.07   317.20
eigval :      324.37   328.95   337.67   340.01   374.12   375.62
eigval :      376.28   377.81   378.53   381.44   385.32   386.81
eigval :      390.22   398.46   402.92   409.76   418.16   426.57
eigval :      436.79   444.91   462.50   471.53   476.28   488.08
eigval :      493.13   497.37   504.90   508.58   516.56   529.10
eigval :      555.38   561.76   571.73   581.96   584.31   585.46
eigval :      587.73   591.97   593.54   595.10   609.88   611.04
eigval :      613.28   615.94   630.62   638.63   649.89   652.87
eigval :      659.82   660.48   664.62   667.24   679.78   689.84
eigval :      693.50   698.97   713.79   719.50   738.19   757.16
eigval :      758.01   759.78   760.23   763.72   770.27   806.43
eigval :      811.01   822.40   828.10   853.29   865.06   866.44
eigval :      870.36   874.20   874.48   875.76   877.07   895.20
eigval :      895.44   896.26   897.42   906.39   909.32   909.66
eigval :      910.76   915.38   915.55   916.74   924.59   925.65
eigval :      928.03   928.58   928.67   929.64   930.27   930.28
eigval :      930.51   932.18   933.70   936.18   982.02   984.48
eigval :     1004.39  1004.48  1009.42  1015.68  1052.91  1061.38
eigval :     1081.94  1082.32  1083.01  1083.77  1092.20  1097.63
eigval :     1121.37  1121.72  1123.59  1123.90  1125.48  1131.48
eigval :     1136.59  1144.06  1149.88  1178.22  1180.24  1180.25
eigval :     1181.19  1184.05  1185.40  1190.89  1192.58  1193.64
eigval :     1194.96  1207.24  1213.16  1217.27  1237.05  1246.61
eigval :     1262.86  1267.60  1276.21  1277.04  1278.62  1279.71
eigval :     1283.63  1285.08  1304.78  1308.94  1310.77  1314.63
eigval :     1316.76  1317.98  1319.84  1321.60  1326.14  1326.34
eigval :     1330.77  1332.34  1349.60  1354.56  1362.21  1389.03
eigval :     1401.25  1411.80  1414.91  1415.60  1434.53  1435.15
eigval :     1440.19  1441.08  1443.57  1447.30  1466.18  1466.50
eigval :     1468.50  1469.03  1471.76  1478.23  1486.37  1494.51
eigval :     1531.61  1542.18  1549.59  1552.17  1574.11  1574.22
eigval :     1577.77  1577.95  1586.75  1587.07  1588.65  1589.06
eigval :     1596.84  1597.24  2318.32  2343.48  3076.19  3076.95
eigval :     3077.33  3079.38  3079.84  3080.37  3080.45  3080.78
eigval :     3080.86  3081.43  3081.62  3082.64  3083.20  3086.43
eigval :     3088.65  3089.07  3089.67  3090.21  3091.72  3092.31
eigval :     3092.87  3093.04  3094.07  3094.78  3096.10  3098.01
eigval :     3100.76  3101.18  3101.36  3102.47  3111.13  3111.74

   temp. (K)  partition function   enthalpy   heat capacity  entropy
                                   cal/mol     cal/K/mol   cal/K/mol   J/K/mol
 298.15  VIB  0.283E+24            28864.619    176.672    182.644
         ROT  0.209E+09              888.752      2.981     41.053
         INT  0.591E+32            29753.372    179.652    223.697
         TR   0.206E+29             1481.254      4.968     45.777
         TOT                       31234.6257   184.6206   269.4742  1127.4802

       T/K    H(0)-H(T)+PV         H(T)/Eh          T*S/Eh         G(T)/Eh
   ------------------------------------------------------------------------
    298.15    0.497755E-01    0.729410E+00    0.128036E+00    0.601374E+00
   ------------------------------------------------------------------------

         :::::::::::::::::::::::::::::::::::::::::::::::::::::
         ::                  THERMODYNAMIC                  ::
         :::::::::::::::::::::::::::::::::::::::::::::::::::::
         :: total free energy        -150.357403853020 Eh   ::
         ::.................................................::
         :: total energy             -150.958777720709 Eh   ::
         :: zero point energy           0.679634229681 Eh   ::
         :: G(RRHO) w/o ZPVE           -0.078260361992 Eh   ::
         :: G(RRHO) contrib.            0.601373867689 Eh   ::
         :::::::::::::::::::::::::::::::::::::::::::::::::::::

           -------------------------------------------------
          | TOTAL ENERGY             -150.958777720709 Eh   |
          | TOTAL ENTHALPY           -150.229367946636 Eh   |
          | TOTAL FREE ENERGY        -150.357403853020 Eh   |
          | GRADIENT NORM               0.000057192414 Eh/α |
           -------------------------------------------------

 * finished run on 2025/08/24 at 01:39:40.678
