   * xtb version 6.7.1 (edcfbbe) compiled by 'albert@albert-system' on 2024-07-22

   ID    Z sym.   atoms
    1    7 N      1, 4, 14, 29, 32, 38, 57, 60
    2    6 C      2, 3, 5-13, 15-28, 30, 31, 33-37, 39-56, 58, 59
    3    1 H      61-92

          program call               : xtb data2507/gas/CNPP-TPA/CNPP-TPA.xyz --gfn 2 --ohess vtight --parallel 40 --molden --ceasefiles --namespace data2507/gas/CNPP-TPA/CNPP-TPA_gas_S0_preOpt
          :  Hamiltonian                  GFN2-xTB          :
 * total energy  :  -150.9691471 Eh     change       -0.5136286E-08 Eh
 * total energy  :  -150.9933627 Eh     change       -0.2421565E-01 Eh
 * total energy  :  -151.0025655 Eh     change       -0.9202789E-02 Eh
 * total energy  :  -151.0060913 Eh     change       -0.3525816E-02 Eh
 * total energy  :  -151.0079554 Eh     change       -0.1864075E-02 Eh
 * total energy  :  -151.0085347 Eh     change       -0.5792643E-03 Eh
 * total energy  :  -151.0087105 Eh     change       -0.1758052E-03 Eh
 * total energy  :  -151.0089472 Eh     change       -0.2366818E-03 Eh
 * total energy  :  -151.0090759 Eh     change       -0.1287007E-03 Eh
 * total energy  :  -151.0092762 Eh     change       -0.2003376E-03 Eh
 * total energy  :  -151.0100238 Eh     change       -0.1896418E-06 Eh
 * total energy  :  -151.0100240 Eh     change       -0.1793559E-06 Eh
 * total energy  :  -151.0100242 Eh     change       -0.2130902E-06 Eh
 * total energy  :  -151.0100244 Eh     change       -0.1818103E-06 Eh
 * total energy  :  -151.0100245 Eh     change       -0.1255035E-06 Eh
 * total energy  :  -151.0100246 Eh     change       -0.1200140E-06 Eh
 * total energy  :  -151.0100247 Eh     change       -0.1080511E-06 Eh
 * total energy  :  -151.0100248 Eh     change       -0.1044106E-06 Eh
 * total energy  :  -151.0100248 Eh     change       -0.1385928E-08 Eh
   *** GEOMETRY OPTIMIZATION CONVERGED AFTER 68 ITERATIONS ***

 final structure:
================
92
 xtb: 6.7.1 (edcfbbe)
N            1.96388824499078      -11.23985922056062        0.22562998917195
C            1.41844877171479      -10.23445746487698        0.16192383759832
C            0.71020637058220       -9.00947538792662        0.07907149816461
N            1.38779521072072       -7.87592933848591        0.15207953400976
C            0.71294890292994       -6.73057858311507        0.07528874718516
C            1.43104798296338       -5.49023693865659        0.14142030177691
C            2.82677268277377       -5.41996603667368        0.27312687403325
C            3.43882851813445       -4.19144982160660        0.30781837392455
C            2.64998423774991       -3.02748467199991        0.20115060039242
C            3.19930942703106       -1.67578648070200        0.17948087899352
C            4.45000428470557       -1.34289926669073        0.70107804157860
C            4.90343033722587       -0.04246173080948        0.66949003011739
C            4.13059791722965        0.97239886751221        0.09489981475716
N            4.59127463572876        2.28150555273908        0.05712922437631
C            3.69446288143868        3.36077791583167        0.06425026387858
C            3.95054429662874        4.48478726977178       -0.71982277282850
C            3.07627422789629        5.55430266429306       -0.70888964588163
C            1.93256580297173        5.51599731011119        0.07103635025084
C            1.67035895419066        4.40015333059675        0.84888136897909
C            2.54615487820251        3.33160081127941        0.85515031415002
C            5.96759800508821        2.55041903319805       -0.01773256548952
C            6.79693474201256        1.78633887788127       -0.83688854160110
C            8.14888137090084        2.06231428258074       -0.90614273438834
C            8.69054317222917        3.10409192272313       -0.17102893360899
C            7.86835538096069        3.87067425930748        0.63852504191904
C            6.51654902632783        3.59763741039066        0.72014063439940
C            2.87960065741299        0.63791447349743       -0.43611038999651
C            2.42203309896555       -0.65574463968615       -0.38039459413584
N            1.33159195154251       -3.09684678679861        0.08525253296168
C            0.72595409778145       -4.27221552365895        0.05989831141432
C           -0.72079635015002       -4.27299312974346       -0.06194925582985
N           -1.32768005888984       -3.09827763509816       -0.08742294027142
C           -2.64618788156242       -3.03029532047003       -0.20289893937688
C           -3.19695737032748       -1.67918770239013       -0.18105818026819
C           -2.41993206627498       -0.65802745671988        0.37715742311177
C           -2.87896215187771        0.63509381731464        0.43333800407483
C           -4.13137876912619        0.96787614024689       -0.09538153227161
N           -4.59381192672842        2.27634694766856       -0.05680594050475
C           -3.69858457225056        3.35689853936234       -0.06604167118948
C           -3.95468974779323        4.48078737041308        0.71820257490538
C           -3.08204510196416        5.55160351934683        0.70507884993735
C           -1.93992000236161        5.51474940885944       -0.07723503254793
C           -1.67765141204755        4.39900848830867       -0.85520748481521
C           -2.55185444599228        3.32914257762700       -0.85927977550659
C           -5.97036559076459        2.54320948638033        0.02114867980189
C           -6.79666094397712        1.77794920303977        0.84227630754103
C           -8.14886205890885        2.05187389225708        0.91460643728241
C           -8.69378906377636        3.09275526809471        0.18063700539767
C           -7.87462762558456        3.86049651844831       -0.63088429253935
C           -6.52259725621891        3.58950719050219       -0.71557773245302
C           -4.90393948980335       -0.04805413517989       -0.66844143153911
C           -4.44894137770676       -1.34792332229761       -0.70061620141598
C           -3.43380978830226       -4.19513757619331       -0.30914143068858
C           -2.82043885936104       -5.42299625521134       -0.27446470343076
C           -1.42461054725705       -5.49178058718366       -0.14308616729852
C           -0.70518860788949       -6.73134451186043       -0.07684780545741
N           -1.37881562184463       -7.87742536989904       -0.15348270676989
C           -0.70001922066228       -9.01023982362326       -0.08033324828812
C           -1.40694595744137      -10.23599148716376       -0.16300525606651
N           -1.95126956570005      -11.24200764370629       -0.22665159297514
H            3.39153203336338       -6.33811495116607        0.33592346043414
H            4.51185281068600       -4.11902358520336        0.38912464484357
H            5.06265662869245       -2.09682783074337        1.17231162842724
H            5.86137350508261        0.20287074873738        1.10387845425097
H            4.83657235588332        4.51181779632252       -1.33705455255842
H            3.28620495903597        6.41922428833198       -1.32067802892242
H            1.25190946349857        6.35319223877385        0.07524440138479
H            0.78040044383686        4.36482952043565        1.45985281213377
H            2.34831639921804        2.46946815568499        1.47483114927131
H            6.37276329026858        0.98181897584613       -1.41977126426884
H            8.78187799390510        1.46530205284599       -1.54585708996435
H            9.74671782345730        3.31825479254332       -0.23011401223367
H            8.28341649409671        4.68289208934883        1.21666864138662
H            5.87599870807528        4.19137058883613        1.35580564750649
H            2.27602331745474        1.40452877712415       -0.89859952181654
H            1.45461610574195       -0.91476375836033       -0.78060929991534
H           -1.45150714621071       -0.91578746910201        0.77574484974256
H           -2.27548471713284        1.40257552645120        0.89452024663523
H           -4.83946727039986        4.50671715109903        1.33727209247802
H           -3.29199713958273        6.41642635984253        1.31699992493541
H           -1.26055823675208        6.35298728861092       -0.08318622884642
H           -0.78891022536812        4.36477747371000       -1.46800762247830
H           -2.35400653556323        2.46708724860984       -1.47906434216860
H           -6.36992813324788        0.97413487370519        1.42426271341417
H           -8.77947829745965        1.45396671416685        1.55583412603599
H           -9.75015028602679        3.30531659486202        0.24212089568095
H           -8.29225281439136        4.67201136771731       -1.20816758641823
H           -5.88441345612233        4.18414317144943       -1.35277711690457
H           -5.86298306799346        0.19600383116183       -1.10111913013335
H           -5.06152128707466       -2.10266839689769       -1.17062775151231
H           -4.50693491404891       -4.12392328754959       -0.39014648506198
H           -3.38425044141505       -6.34174784779682       -0.33696400200983

          :  Hamiltonian                  GFN2-xTB          :
         :: gradient norm              0.000040213134 Eh/a0 ::
         :: HOMO-LUMO gap              1.144689174497 eV    ::
         :: SCC energy              -153.827256261143 Eh    ::
         :: -> dispersion             -0.134263430590 Eh    ::
         :: repulsion energy           2.817231414642 Eh    ::

    * Orbital Energies and Occupations

         #    Occupation            Energy/Eh            Energy/eV
      -------------------------------------------------------------
         1        2.0000           -0.7067523             -19.2317
       ...           ...                  ...                  ...
       128        2.0000           -0.4166107             -11.3366
       129        2.0000           -0.4165956             -11.3361
       130        2.0000           -0.4141090             -11.2685
       131        2.0000           -0.4138898             -11.2625
       132        2.0000           -0.4129326             -11.2365
       133        2.0000           -0.4128539             -11.2343
       134        2.0000           -0.4056320             -11.0378
       135        2.0000           -0.4035541             -10.9813
       136        2.0000           -0.3789062             -10.3106
       137        2.0000           -0.3726289             -10.1397
       138        2.0000           -0.3715688             -10.1109
       139        2.0000           -0.3601657              -9.8006
       140        2.0000           -0.3589458              -9.7674 (HOMO)
       141                         -0.3168792              -8.6227 (LUMO)
       142                         -0.3130329              -8.5181
       143                         -0.2776404              -7.5550
       144                         -0.2750159              -7.4836
       145                         -0.2591938              -7.0530
       146                         -0.2398703              -6.5272
       147                         -0.2398215              -6.5259
       148                         -0.2371601              -6.4535
       149                         -0.2361550              -6.4261
       150                         -0.2358173              -6.4169
       151                         -0.2310947              -6.2884
       ...                                ...                  ...
       272                          1.1684960              31.7964
      -------------------------------------------------------------
                  HL-Gap            0.0420666 Eh            1.1447 eV

     #   Z          covCN         q      C6AA      α(0)
     1   7 N        0.911    -0.195    25.228     7.264
     2   6 C        1.909     0.112    28.333     8.596
     3   6 C        2.953     0.100    25.792     8.330
     4   7 N        1.853    -0.219    26.608     7.645
     5   6 C        2.961     0.085    26.115     8.382
     6   6 C        2.982    -0.018    28.448     8.749
     7   6 C        2.923    -0.011    28.296     8.723
     8   6 C        2.914    -0.043    29.060     8.840
     9   6 C        2.954     0.101    25.767     8.326
    10   6 C        2.982    -0.003    28.103     8.696
    11   6 C        2.920    -0.031    28.773     8.796
    12   6 C        2.921    -0.050    29.250     8.869
    13   6 C        2.922     0.069    26.461     8.436
    14   7 N        2.752    -0.068    22.553     7.053
    15   6 C        2.925     0.064    26.556     8.451
    16   6 C        2.923    -0.046    29.148     8.854
    17   6 C        2.919    -0.029    28.722     8.788
    18   6 C        2.919    -0.036    28.893     8.815
    19   6 C        2.919    -0.028    28.694     8.784
    20   6 C        2.922    -0.046    29.138     8.852
    21   6 C        2.926     0.064    26.559     8.451
    22   6 C        2.922    -0.045    29.129     8.851
    23   6 C        2.920    -0.028    28.712     8.787
    24   6 C        2.919    -0.036    28.891     8.814
    25   6 C        2.920    -0.028    28.707     8.786
    26   6 C        2.922    -0.045    29.120     8.849
    27   6 C        2.920    -0.049    29.210     8.863
    28   6 C        2.926    -0.026    28.657     8.779
    29   7 N        1.857    -0.217    26.582     7.642
    30   6 C        2.965     0.087    26.071     8.375
    31   6 C        2.965     0.087    26.071     8.375
    32   7 N        1.857    -0.217    26.582     7.642
    33   6 C        2.954     0.101    25.768     8.326
    34   6 C        2.982    -0.003    28.103     8.696
    35   6 C        2.926    -0.026    28.657     8.779
    36   6 C        2.920    -0.049    29.209     8.863
    37   6 C        2.922     0.069    26.461     8.436
    38   7 N        2.752    -0.068    22.553     7.053
    39   6 C        2.925     0.064    26.556     8.451
    40   6 C        2.923    -0.046    29.148     8.854
    41   6 C        2.919    -0.029    28.722     8.788
    42   6 C        2.919    -0.036    28.893     8.815
    43   6 C        2.919    -0.028    28.694     8.784
    44   6 C        2.922    -0.046    29.138     8.852
    45   6 C        2.926     0.064    26.559     8.451
    46   6 C        2.922    -0.045    29.129     8.851
    47   6 C        2.920    -0.028    28.712     8.787
    48   6 C        2.919    -0.036    28.891     8.814
    49   6 C        2.920    -0.028    28.707     8.786
    50   6 C        2.922    -0.045    29.120     8.849
    51   6 C        2.921    -0.050    29.250     8.869
    52   6 C        2.920    -0.031    28.773     8.796
    53   6 C        2.914    -0.043    29.060     8.840
    54   6 C        2.923    -0.011    28.296     8.723
    55   6 C        2.982    -0.018    28.448     8.749
    56   6 C        2.961     0.085    26.115     8.382
    57   7 N        1.853    -0.219    26.608     7.645
    58   6 C        2.953     0.100    25.792     8.330
    59   6 C        1.909     0.112    28.333     8.596
    60   7 N        0.911    -0.195    25.228     7.264
    61   1 H        0.926     0.059     2.215     2.328
    62   1 H        0.926     0.043     2.411     2.428
    63   1 H        0.926     0.035     2.510     2.478
    64   1 H        0.926     0.035     2.514     2.479
    65   1 H        0.926     0.033     2.547     2.496
    66   1 H        0.926     0.034     2.533     2.489
    67   1 H        0.926     0.032     2.560     2.502
    68   1 H        0.926     0.034     2.531     2.488
    69   1 H        0.926     0.036     2.503     2.474
    70   1 H        0.926     0.035     2.523     2.484
    71   1 H        0.926     0.035     2.518     2.481
    72   1 H        0.926     0.034     2.531     2.488
    73   1 H        0.926     0.035     2.519     2.482
    74   1 H        0.926     0.034     2.533     2.489
    75   1 H        0.926     0.038     2.481     2.463
    76   1 H        0.926     0.066     2.125     2.280
    77   1 H        0.926     0.066     2.125     2.279
    78   1 H        0.926     0.038     2.481     2.463
    79   1 H        0.926     0.033     2.547     2.496
    80   1 H        0.926     0.034     2.533     2.489
    81   1 H        0.926     0.032     2.560     2.502
    82   1 H        0.926     0.034     2.531     2.488
    83   1 H        0.926     0.036     2.503     2.474
    84   1 H        0.926     0.034     2.523     2.484
    85   1 H        0.926     0.035     2.518     2.481
    86   1 H        0.926     0.034     2.531     2.488
    87   1 H        0.926     0.035     2.519     2.482
    88   1 H        0.926     0.034     2.533     2.489
    89   1 H        0.926     0.035     2.514     2.479
    90   1 H        0.926     0.035     2.510     2.478
    91   1 H        0.926     0.043     2.411     2.428
    92   1 H        0.926     0.059     2.215     2.328

molecular dipole:
                 x           y           z       tot (Debye)
 q only:       -0.003       4.841       0.000
   full:       -0.003       4.824       0.001      12.261

 projected vibrational frequencies (cm⁻¹)
eigval :       -0.00    -0.00     0.00     0.00     0.00     0.00
eigval :        7.73     8.96    14.97    17.45    23.97    24.69
eigval :       27.42    39.53    40.84    44.19    47.63    52.01
eigval :       53.07    64.56    65.20    71.29    77.44    79.87
eigval :       89.44    94.67    94.89   105.95   106.85   108.15
eigval :      134.59   150.97   151.02   156.44   167.26   191.02
eigval :      205.57   207.32   225.14   234.27   236.70   245.25
eigval :      247.84   277.02   297.31   298.68   313.72   314.31
eigval :      321.83   337.12   337.90   342.19   377.40   378.33
eigval :      378.54   378.71   382.33   383.98   387.48   388.84
eigval :      395.92   398.90   400.91   412.08   417.33   429.85
eigval :      447.14   455.44   459.76   473.10   480.87   486.44
eigval :      489.31   501.71   501.93   508.13   538.09   540.29
eigval :      564.34   573.90   581.92   583.99   585.01   586.67
eigval :      590.86   593.58   593.61   605.92   610.97   615.56
eigval :      624.42   640.57   646.18   657.18   661.26   662.17
eigval :      666.12   667.09   669.41   682.58   694.03   698.42
eigval :      708.18   719.60   728.17   733.20   757.89   758.58
eigval :      758.82   759.33   762.92   767.71   775.79   815.48
eigval :      817.82   834.59   836.62   866.34   866.91   874.16
eigval :      876.30   876.33   876.96   877.69   894.21   895.82
eigval :      895.84   896.53   909.52   909.98   913.89   916.78
eigval :      916.99   925.14   925.36   927.25   927.52   928.21
eigval :      928.88   929.24   929.33   930.78   930.98   931.13
eigval :      934.44   936.06   945.57   983.33   985.66  1005.16
eigval :     1005.40  1010.27  1016.26  1058.83  1070.78  1082.65
eigval :     1082.70  1084.16  1084.62  1098.44  1103.75  1120.89
eigval :     1121.29  1122.68  1123.79  1136.19  1136.42  1148.59
eigval :     1154.04  1161.58  1177.52  1180.52  1180.53  1180.95
eigval :     1186.55  1187.12  1194.27  1195.22  1195.37  1195.66
eigval :     1210.10  1213.98  1221.35  1251.27  1262.69  1269.58
eigval :     1269.58  1277.33  1277.82  1280.95  1281.05  1295.17
eigval :     1295.35  1309.16  1309.77  1316.44  1316.61  1317.10
eigval :     1324.33  1325.30  1325.76  1329.24  1333.30  1336.92
eigval :     1338.98  1347.41  1371.95  1373.41  1406.43  1406.55
eigval :     1414.76  1421.47  1434.85  1436.13  1440.81  1441.30
eigval :     1443.42  1460.96  1469.26  1470.06  1470.66  1471.25
eigval :     1473.60  1474.32  1489.46  1493.06  1523.38  1524.39
eigval :     1548.28  1551.59  1552.94  1560.77  1578.09  1578.10
eigval :     1581.95  1582.02  1593.35  1593.79  1594.07  1594.64
eigval :     1600.82  1601.25  2366.97  2368.56  3078.01  3078.20
eigval :     3078.37  3078.49  3078.92  3079.27  3079.33  3079.77
eigval :     3080.68  3080.69  3087.33  3087.44  3087.84  3088.09
eigval :     3088.60  3088.76  3089.03  3089.57  3090.84  3090.88
eigval :     3091.59  3092.06  3093.03  3093.07  3099.45  3099.63
eigval :     3099.85  3101.02  3101.20  3101.39  3110.63  3111.42

   temp. (K)  partition function   enthalpy   heat capacity  entropy
                                   cal/mol     cal/K/mol   cal/K/mol   J/K/mol
 298.15  VIB  0.389E+24            28665.478    174.862    181.812
         ROT  0.108E+09              888.752      2.981     39.742
         INT  0.421E+32            29554.231    177.843    221.555
         TR   0.206E+29             1481.254      4.968     45.777
         TOT                       31035.4844   182.8110   267.3318  1118.5162

       T/K    H(0)-H(T)+PV         H(T)/Eh          T*S/Eh         G(T)/Eh
   ------------------------------------------------------------------------
    298.15    0.494582E-01    0.733074E+00    0.127018E+00    0.606056E+00
   ------------------------------------------------------------------------

         :::::::::::::::::::::::::::::::::::::::::::::::::::::
         ::                  THERMODYNAMIC                  ::
         :::::::::::::::::::::::::::::::::::::::::::::::::::::
         :: total free energy        -150.403969103125 Eh   ::
         ::.................................................::
         :: total energy             -151.010024846500 Eh   ::
         :: zero point energy           0.683615504870 Eh   ::
         :: G(RRHO) w/o ZPVE           -0.077559761496 Eh   ::
         :: G(RRHO) contrib.            0.606055743375 Eh   ::
         :::::::::::::::::::::::::::::::::::::::::::::::::::::

           -------------------------------------------------
          | TOTAL ENERGY             -151.010024846500 Eh   |
          | TOTAL ENTHALPY           -150.276951149011 Eh   |
          | TOTAL FREE ENERGY        -150.403969103125 Eh   |
          | GRADIENT NORM               0.000040165902 Eh/α |
          | HOMO-LUMO GAP               1.144689691633 eV   |
           -------------------------------------------------

 * finished run on 2025/08/24 at 01:14:41.547
