   * xtb version 6.7.1 (edcfbbe) compiled by 'albert@albert-system' on 2024-07-22

   ID    Z sym.   atoms
    1    6 C      1-5, 7-15, 17-48, 50-74
    2    7 N      6, 16, 49
    3    1 H      75-145

          program call               : xtb data2507/gas/TPA-PyF2/TPA-PyF2_gas_T1_crest.xyz --gfn 2 --spinpol --tblite --uhf 2 --ohess vtight --parallel 40 --molden --ceasefiles --namespace data2507/gas/TPA-PyF2/TPA-PyF2_gas_T1_finalOpt
 * total energy  :  -197.0213741 Eh     change       -0.1953092E-07 Eh
 * total energy  :  -197.0215872 Eh     change       -0.2131771E-03 Eh
 * total energy  :  -197.0217006 Eh     change       -0.1133758E-03 Eh
 * total energy  :  -197.0217099 Eh     change       -0.9241085E-05 Eh
 * total energy  :  -197.0217171 Eh     change       -0.7247706E-05 Eh
 * total energy  :  -197.0217226 Eh     change       -0.5471713E-05 Eh
 * total energy  :  -197.0217277 Eh     change       -0.5167835E-05 Eh
 * total energy  :  -197.0217308 Eh     change       -0.3089655E-05 Eh
 * total energy  :  -197.0217326 Eh     change       -0.1751093E-05 Eh
 * total energy  :  -197.0217340 Eh     change       -0.1468303E-05 Eh
 * total energy  :  -197.0217658 Eh     change       -0.1097916E-05 Eh
 * total energy  :  -197.0217668 Eh     change       -0.1005347E-05 Eh
 * total energy  :  -197.0217678 Eh     change       -0.9458111E-06 Eh
 * total energy  :  -197.0217689 Eh     change       -0.1167845E-05 Eh
 * total energy  :  -197.0217704 Eh     change       -0.1448375E-05 Eh
 * total energy  :  -197.0217719 Eh     change       -0.1533558E-05 Eh
 * total energy  :  -197.0217731 Eh     change       -0.1159415E-05 Eh
 * total energy  :  -197.0217738 Eh     change       -0.7545785E-06 Eh
 * total energy  :  -197.0217738 Eh     change       -0.1639290E-07 Eh
   *** GEOMETRY OPTIMIZATION CONVERGED AFTER 44 ITERATIONS ***

 final structure:
================
145
 xtb: 6.7.1 (edcfbbe)
C           -0.33019301557401       -8.36873530864100       -0.98185939140406
C           -0.29144782007252       -6.87250169445406       -0.92864011267341
C           -1.27731699263926       -6.11201579696402       -1.54828085432362
C           -1.23554606272747       -4.73354748944096       -1.52704246584117
C           -0.19661570062842       -4.06932187766769       -0.87278351838713
N           -0.16282876630974       -2.67730220284060       -0.85065993954566
C            1.03886323949127       -1.97018582281476       -0.76707442916888
C            1.10459617104879       -0.80410077341859       -0.00217683289753
C            2.26996101426194       -0.07294571636859        0.06153249801649
C            3.40618315788115       -0.47869170108203       -0.62976228260399
C            4.69911838238674        0.29593083771814       -0.48458226523551
C            5.55056841506148        0.27760647618566       -1.72939182699892
C            6.93802793296221        0.21848116618455       -1.66816391925077
C            7.66956996907600        0.27366261729245       -2.84303308491708
C            6.98560677395954        0.39891427168038       -4.04165441753321
N            5.66685171337316        0.46638724907904       -4.11352550798265
C            4.97495740879789        0.40762284869754       -2.99172559778726
C            5.40113594075258       -0.23994141048032        0.74897043894227
C            5.86649417471062       -1.51315887473878        0.97305627804369
C            6.46560808152646       -1.83359251192678        2.19387990361751
C            6.97312895960163       -3.25080356414042        2.40871091165283
C            8.04459698252630       -3.56238620930688        1.35374966624441
C            5.79759796463147       -4.22786562966119        2.26156999968108
C            7.59355710637489       -3.45728368724206        3.79299713644850
C            6.56850975749443       -0.83775499504499        3.16041053966210
C            6.09432087259800        0.44726614544081        2.94559726872024
C            5.50321433456572        0.75272546334182        1.73318230083405
C            4.92299282141890        1.97879219263597        1.21637168473782
C            4.76640735175218        3.23529298206513        1.77285517011839
C            4.15972189312638        4.23314269802469        1.02554056901512
C            3.71160448076054        4.01396111841787       -0.27400444403559
C            3.08388191233842        5.10654244754535       -1.12527863433674
C            4.05607979035967        5.44087333749851       -2.26606571333202
C            1.75291119902751        4.61347826983057       -1.71062317207210
C            2.80621582061709        6.38688778220814       -0.33226116948356
C            3.87681184903306        2.74101996541199       -0.82563580212770
C            4.46043295228567        1.74146773663030       -0.08537294487958
C            3.34887081116691       -1.65647157558316       -1.36736574370429
C            2.18195436249833       -2.39014560820225       -1.44672222214226
C           -1.35121380924821       -1.93408055521133       -0.79844957997948
C           -1.46409892986625       -0.76705689957467       -1.55584458390725
C           -2.56307888233171        0.04960205583315       -1.41450968572157
C           -3.57564164769674       -0.26891165459075       -0.51107319783566
C           -4.62659714697299        0.75895354960157       -0.16558050664910
C           -5.11611093419627        1.55040150616358       -1.35269068393962
C           -5.43302213581281        2.90018364752594       -1.24613662700116
C           -5.96074809275846        3.55801502695987       -2.34413027389499
C           -6.16328081320496        2.83747989828128       -3.51087036982747
N           -5.87009379425506        1.55218890984318       -3.62419148994896
C           -5.36370174296568        0.93172176903452       -2.57597788342719
C           -3.99462143091131        1.60274977993831        0.92923529766969
C           -2.83722702293817        2.31058884228283        0.89632170116675
C           -2.37642608597618        2.99757614990666        2.04517940916978
C           -1.08263335349161        3.77952705071412        1.95939806942905
C            0.05627883284466        2.83411509088909        1.53805263495352
C           -0.68697221796656        4.42915001403183        3.28838048140746
C           -1.24497244672278        4.89475555318813        0.91274885452268
C           -3.16099175083971        2.92112288614530        3.22430564281427
C           -4.32301566020611        2.21279537603347        3.29037647486119
C           -4.78631175201814        1.50792879039395        2.13801691829365
C           -5.88349609999101        0.69775133086097        1.90792309102990
C           -6.97844636610333        0.29138393418114        2.72940504812007
C           -7.92951761357518       -0.54028273926832        2.21832633947085
C           -7.88644882510440       -1.02744054354463        0.88811430572692
C           -8.93712461853465       -1.95008904738454        0.31068635847511
C          -10.03639086417015       -2.30827789413167        1.31471268595933
C           -9.59826134459861       -1.26540510818700       -0.89737434754254
C           -8.26472883158602       -3.25598264971482       -0.14554149469804
C           -6.80608659516906       -0.62113257339657        0.06517231786184
C           -5.84089897756502        0.19921973093033        0.54887677070535
C           -3.48952716032988       -1.46676969694119        0.19165955221960
C           -2.39890048815088       -2.29888390614608        0.04496021276643
C            0.78996848872889       -4.82689027675533       -0.24023962569911
C            0.73922357544809       -6.20540863774709       -0.27656031103756
H            0.20112570338787       -8.80142941807353       -0.13742512913583
H           -1.35610049683734       -8.73009786198796       -0.97755230613262
H            0.14579712332513       -8.72250906698770       -1.89740212407705
H           -2.08757904360563       -6.60895622493132       -2.06204456787684
H           -2.00376131892399       -4.15816884633456       -2.02217316312390
H            0.23507547224462       -0.47889143098856        0.54932008580428
H            2.29757391417701        0.82270343878322        0.66306097345521
H            7.43723679073797        0.12924895102043       -0.71374541958786
H            8.74758149371377        0.22438977384046       -2.82579196762855
H            7.50893337620535        0.44931571951050       -4.98736401104586
H            3.89917691718437        0.45678032280951       -3.10694294530233
H            5.76556075188149       -2.25698068453773        0.19685674372914
H            7.64323313554916       -3.49117485327699        0.34647319353584
H            8.87280235494006       -2.86187569050882        1.44126998044118
H            8.42928569574749       -4.57007219181380        1.49626258209260
H            5.02310291091257       -3.99510075520076        2.98971043234681
H            5.35756871508234       -4.17452658252854        1.26945455223566
H            6.13541059250818       -5.24830342821229        2.43016049881252
H            8.45231959305701       -2.80610431755451        3.93903622429118
H            7.93392005220803       -4.48663058596837        3.88714651585886
H            6.86600533759208       -3.27139519668414        4.57969204196794
H            7.02562107022501       -1.05328202594710        4.11234987822894
H            6.18712396226949        1.19557759703830        3.71888192627758
H            5.10929750897825        3.44160260937759        2.77608991121284
H            4.04596232561901        5.20366008963177        1.48080150584251
H            5.00139533912541        5.79963413939311       -1.86360774910852
H            3.63518405702623        6.21543622938393       -2.90369947702334
H            4.25828651370573        4.56450772090638       -2.87677472484768
H            1.90009803140717        3.78809925646159       -2.40109427971784
H            1.09058251444582        4.28139860854426       -0.91556044904801
H            1.26423006688029        5.41989389754610       -2.25350631740241
H            2.31279958639583        7.11284845163471       -0.97536310382513
H            3.72827529451532        6.83607347678848        0.02891138913807
H            2.15279687895210        6.18715995942649        0.51446645600832
H            3.54876394653812        2.53223034212674       -1.83198673674684
H            4.22092026209724       -1.99698508801747       -1.90691403252635
H            2.14692102934601       -3.28815375521903       -2.04575237454511
H           -0.67008018424484       -0.50186151553307       -2.23866255608210
H           -2.63559191942739        0.95170348846603       -2.00456087212976
H           -5.26434953820022        3.42241102719131       -0.31470779669206
H           -6.21296855044407        4.60635862348366       -2.29363682788606
H           -6.57754334775695        3.30237116958365       -4.39584595231544
H           -5.13167726108515       -0.11660907656615       -2.72078364546874
H           -2.26280369466531        2.35307728865659       -0.01735889395718
H            1.00124459103918        3.37416336892314        1.49669373578479
H           -0.12847532349088        2.39454503475881        0.56122589892055
H            0.15544305867963        2.02587432160526        2.26026331939861
H           -0.55188177647049        3.67935832710659        4.06451786876825
H           -1.43570739492634        5.14822990483207        3.61256263166469
H            0.25615227061772        4.95873118644628        3.16603328483148
H           -2.06127175461249        5.55647854126492        1.19557003135955
H           -0.33276773194984        5.48401517876589        0.84506738139609
H           -1.46412600423936        4.48650326419968       -0.07036633098661
H           -2.82736861895100        3.43864433709689        4.10958052797748
H           -4.89185722223085        2.16297289090747        4.20653006114627
H           -7.04187129006537        0.65080799715510        3.74537025075579
H           -8.74695319191773       -0.83399802846324        2.85727172472282
H          -10.75663965135679       -2.97291750111530        0.84140687878486
H           -9.62431236672563       -2.82194428665564        2.18043675049033
H          -10.56853011718014       -1.41970278500452        1.64647620210778
H          -10.07195721772255       -0.33601883788643       -0.58782652628055
H          -10.35827620579918       -1.91551081269458       -1.32605991982613
H           -8.87119592725878       -1.03390099605989       -1.67076269681776
H           -7.51603512893000       -3.07032435993832       -0.91051086352674
H           -7.77803806035205       -3.74185985482222        0.69791578296306
H           -9.00881768254784       -3.93637053965031       -0.55460288542813
H           -6.74868774645999       -0.96836367153918       -0.95587364949965
H           -4.27497946851825       -1.73233209333372        0.88389199167994
H           -2.32913565116727       -3.21355751044201        0.61544402466062
H            1.58671872957116       -4.32785341824992        0.29144805408401
H            1.51044945573426       -6.77511727963909        0.22190269732695

 projected vibrational frequencies (cm⁻¹)
eigval :       -0.00    -0.00    -0.00     0.00     0.00     0.00
eigval :        5.96     7.42    11.78    13.03    15.03    20.67
eigval :       22.58    26.36    27.67    29.67    33.98    34.99
eigval :       37.79    40.49    41.94    47.67    48.64    51.91
eigval :       54.32    57.59    59.20    61.07    67.87    72.14
eigval :       77.42    83.09    86.56    89.37   108.90   112.29
eigval :      128.90   132.95   135.08   142.14   149.35   155.20
eigval :      161.04   173.75   175.17   179.05   181.52   182.68
eigval :      189.10   196.14   199.36   202.82   212.07   214.96
eigval :      217.78   221.58   223.44   233.86   236.22   240.88
eigval :      250.97   255.46   260.40   263.53   270.55   280.47
eigval :      292.42   295.43   303.61   306.12   307.88   310.23
eigval :      315.99   317.37   320.39   321.07   324.48   330.30
eigval :      332.33   334.04   340.73   344.78   349.57   352.28
eigval :      357.21   363.84   366.15   366.62   369.53   370.54
eigval :      379.94   382.55   383.89   386.85   388.88   390.16
eigval :      391.72   415.63   428.25   430.91   432.28   439.08
eigval :      446.58   447.59   447.81   451.93   457.81   468.39
eigval :      475.95   477.47   479.94   495.11   501.17   512.88
eigval :      517.06   528.49   531.02   535.55   543.83   556.25
eigval :      575.22   577.50   591.95   594.50   597.75   605.00
eigval :      606.82   606.90   610.04   613.15   618.75   624.95
eigval :      627.27   646.67   658.29   660.10   666.84   674.03
eigval :      679.60   680.48   685.71   691.11   693.27   697.10
eigval :      704.95   716.28   717.85   727.62   733.24   767.76
eigval :      774.52   776.91   786.80   788.26   802.39   805.19
eigval :      809.00   816.14   817.79   822.24   830.33   863.15
eigval :      864.23   865.57   868.32   871.47   871.95   873.16
eigval :      875.23   882.60   887.57   890.23   894.46   894.88
eigval :      900.77   907.40   909.86   910.65   910.88   911.66
eigval :      913.53   915.51   916.11   917.76   920.60   926.30
eigval :      927.37   928.13   930.76   931.17   933.03   935.45
eigval :      943.24   948.45   954.24   955.29   959.09   959.97
eigval :      960.06   960.47   960.69   961.97   962.05   962.84
eigval :      963.06   963.48   964.08   966.27   970.22  1005.55
eigval :     1008.78  1011.56  1014.27  1016.78  1028.01  1028.55
eigval :     1029.29  1030.54  1031.91  1033.11  1033.40  1033.59
eigval :     1035.53  1035.93  1038.03  1085.30  1092.97  1096.28
eigval :     1097.47  1114.71  1118.31  1126.42  1127.16  1139.36
eigval :     1140.61  1141.21  1144.36  1145.75  1149.95  1165.40
eigval :     1173.97  1179.91  1181.47  1186.81  1189.60  1193.76
eigval :     1195.00  1195.75  1198.21  1198.75  1208.55  1210.45
eigval :     1212.97  1213.32  1221.78  1225.86  1226.89  1228.66
eigval :     1231.38  1234.18  1234.91  1236.36  1238.56  1246.08
eigval :     1249.44  1255.29  1259.66  1264.27  1267.05  1269.01
eigval :     1269.97  1274.70  1276.27  1278.24  1284.21  1285.73
eigval :     1287.98  1289.52  1295.76  1298.38  1298.65  1311.34
eigval :     1318.89  1320.81  1328.82  1329.76  1330.29  1335.12
eigval :     1358.02  1373.47  1379.37  1396.57  1400.22  1401.11
eigval :     1402.08  1402.36  1402.73  1403.78  1404.26  1404.30
eigval :     1405.22  1405.92  1406.57  1408.43  1414.47  1419.21
eigval :     1421.75  1426.02  1426.45  1428.45  1429.52  1433.79
eigval :     1446.32  1448.73  1452.30  1466.22  1474.16  1477.36
eigval :     1479.42  1480.14  1481.11  1482.85  1485.20  1490.49
eigval :     1490.73  1492.03  1492.14  1493.59  1494.58  1496.62
eigval :     1498.87  1500.23  1501.06  1501.44  1503.30  1503.84
eigval :     1505.62  1506.04  1508.30  1513.29  1514.02  1514.35
eigval :     1515.99  1516.41  1519.47  1519.82  1520.15  1522.93
eigval :     1536.33  1548.00  1555.20  1556.99  1560.90  1567.59
eigval :     1567.91  1571.09  1574.43  1575.52  1584.07  1592.16
eigval :     1594.44  1601.35  1609.86  1610.50  2992.77  3010.00
eigval :     3018.39  3019.59  3020.42  3021.10  3021.84  3023.02
eigval :     3023.06  3023.77  3024.65  3025.02  3025.37  3026.02
eigval :     3027.39  3027.76  3028.87  3029.50  3029.61  3030.47
eigval :     3031.48  3034.24  3034.26  3035.29  3035.77  3036.52
eigval :     3037.21  3038.34  3038.58  3038.70  3039.93  3041.77
eigval :     3043.24  3043.56  3044.79  3046.72  3047.92  3048.12
eigval :     3048.98  3049.94  3054.43  3057.68  3059.35  3069.48
eigval :     3073.92  3074.09  3074.61  3075.66  3076.96  3077.26
eigval :     3078.08  3078.31  3079.06  3080.03  3081.15  3082.17
eigval :     3083.19  3086.80  3088.15  3088.20  3088.24  3090.12
eigval :     3090.50  3090.96  3091.17  3095.71  3101.56  3106.07
eigval :     3107.11  3111.43  3114.10

   temp. (K)  partition function   enthalpy   heat capacity  entropy
                                   cal/mol     cal/K/mol   cal/K/mol   J/K/mol
 298.15  VIB  0.869E+35            42807.448    257.315    269.796
         ROT  0.268E+09              888.752      2.981     41.543
         INT  0.233E+44            43696.200    260.296    311.339
         TR   0.291E+29             1481.254      4.968     46.458
         TOT                       45177.4543   265.2644   357.7977  1497.0258

       T/K    H(0)-H(T)+PV         H(T)/Eh          T*S/Eh         G(T)/Eh
   ------------------------------------------------------------------------
    298.15    0.719949E-01    0.126794E+01    0.170001E+00    0.109794E+01
   ------------------------------------------------------------------------

         :::::::::::::::::::::::::::::::::::::::::::::::::::::
         ::                  THERMODYNAMIC                  ::
         :::::::::::::::::::::::::::::::::::::::::::::::::::::
         :: total free energy        -195.923836358673 Eh   ::
         ::.................................................::
         :: total energy             -197.021773836924 Eh   ::
         :: zero point energy           1.195943877677 Eh   ::
         :: G(RRHO) w/o ZPVE           -0.098006399427 Eh   ::
         :: G(RRHO) contrib.            1.097937478250 Eh   ::
         :::::::::::::::::::::::::::::::::::::::::::::::::::::

           -------------------------------------------------
          | TOTAL ENERGY             -197.021773836924 Eh   |
          | TOTAL ENTHALPY           -195.753835103164 Eh   |
          | TOTAL FREE ENERGY        -195.923836358673 Eh   |
          | GRADIENT NORM               0.000058974711 Eh/α |
           -------------------------------------------------

 * finished run on 2025/08/23 at 04:15:44.756
