   * xtb version 6.7.1 (edcfbbe) compiled by 'albert@albert-system' on 2024-07-22

   ID    Z sym.   atoms
    1    6 C      1-5, 7-15, 17-48, 50-74
    2    7 N      6, 16, 49
    3    1 H      75-145

          program call               : xtb data2507/gas/TPA-PyF2/TPA-PyF2.xyz --gfn 2 --ohess vtight --parallel 40 --molden --ceasefiles --namespace data2507/gas/TPA-PyF2/TPA-PyF2_gas_S0_preOpt
          :  Hamiltonian                  GFN2-xTB          :
 * total energy  :  -197.0803269 Eh     change       -0.4011355E-08 Eh
 * total energy  :  -197.1016060 Eh     change       -0.2127905E-01 Eh
 * total energy  :  -197.1104238 Eh     change       -0.8817816E-02 Eh
 * total energy  :  -197.1146668 Eh     change       -0.4242944E-02 Eh
 * total energy  :  -197.1172618 Eh     change       -0.2595093E-02 Eh
 * total energy  :  -197.1183878 Eh     change       -0.1125928E-02 Eh
 * total energy  :  -197.1189290 Eh     change       -0.5412588E-03 Eh
 * total energy  :  -197.1193565 Eh     change       -0.4274565E-03 Eh
 * total energy  :  -197.1197213 Eh     change       -0.3647793E-03 Eh
 * total energy  :  -197.1199303 Eh     change       -0.2090512E-03 Eh
 * total energy  :  -197.1209218 Eh     change       -0.1173533E-05 Eh
 * total energy  :  -197.1209229 Eh     change       -0.1096053E-05 Eh
 * total energy  :  -197.1209241 Eh     change       -0.1268650E-05 Eh
 * total energy  :  -197.1209258 Eh     change       -0.1671438E-05 Eh
 * total energy  :  -197.1209278 Eh     change       -0.1946529E-05 Eh
 * total energy  :  -197.1209298 Eh     change       -0.2045896E-05 Eh
 * total energy  :  -197.1209318 Eh     change       -0.2012324E-05 Eh
 * total energy  :  -197.1209340 Eh     change       -0.2184572E-05 Eh
 * total energy  :  -197.1209340 Eh     change       -0.6497316E-08 Eh
   *** GEOMETRY OPTIMIZATION CONVERGED AFTER 152 ITERATIONS ***

 final structure:
================
145
 xtb: 6.7.1 (edcfbbe)
C            0.30944805972345       -1.38168644921677        7.91413116068638
C            0.22428754193964       -1.10705880467858        6.44350794519580
C           -0.72456344406073       -0.22721124141777        5.93647690335685
C           -0.82050047206209        0.01728856555034        4.58132298600949
C            0.03211603342490       -0.62754993067700        3.68708367708041
N           -0.06072880518973       -0.38979697948511        2.30865467707060
C            1.10686057824120       -0.29474488657135        1.54558975225445
C            2.25302527096439        0.29777977863652        2.07361598750222
C            3.40374356588617        0.39685070345351        1.31809239025763
C            3.44123146940793       -0.07114367129747        0.01080773896294
C            4.71094529873145       -0.00113333772221       -0.80977488462287
C            4.44182603643419        0.32753255590069       -2.26072015784040
C            5.20271272786096       -0.21319620626545       -3.29033905052498
C            4.95472487037809        0.18292181805272       -4.59423279456994
C            3.95926669569536        1.11949032641355       -4.82187785758538
N            3.23377802680527        1.64838210564516       -3.85108450969071
C            3.46992841921459        1.26222618252848       -2.61191286966523
C            5.48470963410018       -1.29306686031774       -0.62587999180036
C            5.07806955696985       -2.57619763044508       -0.90380570070320
C            5.93792257008747       -3.65077011245920       -0.66350838468130
C            5.45808912574870       -5.05675197051154       -0.98858239918462
C            6.50319993381731       -6.13027193277515       -0.67345334465374
C            5.12827416459788       -5.13739885676762       -2.48621598084355
C            4.20016893466317       -5.35729805186619       -0.16108589794946
C            7.19835099609323       -3.38461727201398       -0.13831726597428
C            7.61499241475220       -2.09424554623961        0.15151714191270
C            6.75512914045432       -1.03934716379823       -0.09132537853539
C            6.89915120306373        0.39252409980160        0.10174464869061
C            7.94411501989005        1.15931847529169        0.58299610628381
C            7.79217491841388        2.53545143769432        0.65780134845849
C            6.61934399388932        3.16992805259479        0.26048942291037
C            6.42729014436567        4.67634859770042        0.33643141806260
C            5.23642390195630        4.97992557250403        1.25717039152784
C            7.65461152974733        5.40561259930226        0.88956499986782
C            6.14632361754408        5.21486663535942       -1.07373026906583
C            5.57245381153673        2.38473955093592       -0.22808298829456
C            5.71199874153965        1.01927525222794       -0.29902284065114
C            2.30131789343242       -0.67498684407203       -0.50969420166622
C            1.15127619876642       -0.79098884078158        0.24293208788165
C           -1.31259863607970       -0.22803473294333        1.71063878523237
C           -2.41977434849353       -0.93556404889810        2.17968420876402
C           -3.66038638291746       -0.75549532222851        1.60485022490167
C           -3.83750650645594        0.11960796733576        0.53772347636587
C           -5.19922006158944        0.26269532677647       -0.10810956643757
C           -6.30718486120102        0.33508862238424        0.91851064336385
C           -6.13506507861213        1.02905757201116        2.11212922134980
C           -7.19435037698487        1.12781408291236        2.99731076963366
C           -8.39648229526614        0.52849552627795        2.65458125615727
N           -8.57603344602976       -0.12715880401255        1.52138266325124
C           -7.56293838726667       -0.21527629790309        0.67924181212796
C           -5.39388572869732       -0.85746130777380       -1.11410554498224
C           -5.37245669333747       -2.21676219604615       -0.88966744034234
C           -5.57469453149956       -3.09733610758835       -1.95010652036301
C           -5.57762747858588       -4.60702208715645       -1.76508822258082
C           -4.47539381392967       -5.22335946167926       -2.63828894418285
C           -6.94678068780980       -5.15908356482886       -2.18698549759974
C           -5.32342597740481       -5.02442742069251       -0.31391372933422
C           -5.78826528834070       -2.56590673158993       -3.22211099104823
C           -5.80463676099345       -1.20356132153692       -3.45899975670256
C           -5.60615747213733       -0.33886281527863       -2.39635976545311
C           -5.57472273095850        1.11042917436527       -2.32391108127605
C           -5.73700581038636        2.08645640711890       -3.28937814518787
C           -5.64783743308206        3.42020055689060       -2.92181371804091
C           -5.40228615628388        3.80718442385896       -1.60827844305464
C           -5.28648005732037        5.26299594245200       -1.18421498577755
C           -5.49395591422956        6.23917618239204       -2.34523838323910
C           -6.34819269868796        5.56053732304629       -0.11579109417185
C           -3.88352338405248        5.49986391547613       -0.60630017449524
C           -5.24743917011528        2.81144311431181       -0.64084166478451
C           -5.32705360704893        1.48627628199874       -0.99736691149080
C           -2.72941898492627        0.80437714772954        0.05570908905839
C           -1.48812829206302        0.64646488803815        0.63870035331416
C            0.98413552805373       -1.51289368775246        4.18914893183900
C            1.07644799751260       -1.74121638284479        5.54753168680145
H            1.32189440598792       -1.65813712809321        8.19921564565187
H            0.00561483377462       -0.51012292570524        8.48964098696167
H           -0.35251278708343       -2.20713315324866        8.17956258517454
H           -1.39336228042110        0.28287875955166        6.61515972650004
H           -1.55611554618698        0.71371051092006        4.20609391973452
H            2.23525544407170        0.68483935319200        3.08181885073214
H            4.28034071489161        0.85835226417511        1.74785598552863
H            5.97760529389675       -0.93492775122141       -3.07415939629823
H            5.52671842810224       -0.22459873878722       -5.41377803755969
H            3.72874347383567        1.46642999345293       -5.82058600876806
H            2.84177099009178        1.71765592299577       -1.85639604238105
H            4.09205753007688       -2.74311419263178       -1.30977649319772
H            7.40899858319150       -5.97912929002194       -1.25619521236303
H            6.75503043140452       -6.13315311750280        0.38454606370893
H            6.10234192199588       -7.11013289254737       -0.92540114917682
H            4.34306144646356       -4.43762400471333       -2.75880096534860
H            6.01162068144513       -4.90666963812016       -3.07850787613272
H            4.79377490672582       -6.14040344693658       -2.74284548682680
H            4.42400283945660       -5.28426413787826        0.90130530836136
H            3.84533062389878       -6.36420874355895       -0.37108251827388
H            3.39844213903757       -4.65970569031110       -0.38716445789195
H            7.88515514565053       -4.19189751413788        0.05715613359609
H            8.59955516888490       -1.92134694370443        0.56064342893550
H            8.86857653946078        0.69783870536089        0.89776672168075
H            8.61889142298886        3.11384590366405        1.03675763336537
H            5.42040377563895        4.58194267308809        2.25326086833772
H            4.31866468898828        4.53864024823999        0.87863973028943
H            5.08947812766447        6.05498256034757        1.33698476490555
H            8.52470153515475        5.24339512614028        0.25755576661615
H            7.45660960314548        6.47526517137342        0.91900766166099
H            7.88187096686146        5.07898882238208        1.90183116060188
H            6.97949599665624        4.98679405314407       -1.73551168920877
H            6.01547323292174        6.29454642298924       -1.04291745733110
H            5.24744097495147        4.77522131163799       -1.49688633914100
H            4.64756776754010        2.83940859259900       -0.54867716244194
H            2.30762403749873       -1.05469535310961       -1.52142105060689
H            0.27672637262557       -1.26684697474468       -0.17598963848493
H           -2.30093370885498       -1.62728164876235        3.00075523446362
H           -4.50549654687383       -1.30228948340499        1.99799788521536
H           -5.17950955324014        1.47630700370021        2.34873246494154
H           -7.08858244517798        1.65829189851148        3.93155793992043
H           -9.25532592215346        0.57310106035082        3.31144094571241
H           -7.76405097094052       -0.75748842861138       -0.23580737190274
H           -5.20343609463525       -2.58144298322562        0.10950371197104
H           -3.50510326063276       -4.81687993251047       -2.36015580981519
H           -4.64127383574316       -5.01749600193551       -3.69200691781551
H           -4.44990961404835       -6.30267665432408       -2.50267347019449
H           -7.73418518445824       -4.70985626686245       -1.58522577634221
H           -6.97607079589353       -6.23742926506311       -2.04480622241985
H           -7.15501531145073       -4.94819560907747       -3.23221577714439
H           -5.33367625127363       -6.11038161133563       -0.24281209220136
H           -4.35259392000337       -4.67460859103673        0.03023808232880
H           -6.09746993860460       -4.63874021233902        0.34572725891768
H           -5.94814334168993       -3.23071254494090       -4.05775053319409
H           -5.97228467544036       -0.82439263046983       -4.45626949276938
H           -5.92978929549546        1.81914136387403       -4.31788003607766
H           -5.77528318312029        4.16458237377129       -3.69064480986520
H           -5.40364840031121        7.26029934535393       -1.97982968811428
H           -4.74393751580490        6.09307997122743       -3.11911412160909
H           -6.48411777497799        6.12503945822252       -2.78033520695095
H           -7.34339504888817        5.36955556102720       -0.51210589070242
H           -6.29155061863414        6.60375922705172        0.18825206280851
H           -6.21052953945316        4.94156014516052        0.76650474568765
H           -3.69951468641222        4.87141580853085        0.26085835841552
H           -3.12632911293116        5.27615213847406       -1.35515594392409
H           -3.77307276002302        6.53916587571181       -0.30381037633450
H           -5.05687645376005        3.07304435044175        0.38915651435248
H           -2.83783996144278        1.48259434529339       -0.77746378364901
H           -0.64462477933305        1.20742705126676        0.26443834651143
H            1.65083794333488       -2.01942783836565        3.50652338126882
H            1.82072333565219       -2.43158692019164        5.91811387160270

          :  Hamiltonian                  GFN2-xTB          :
         :: gradient norm              0.000062824396 Eh/a0 ::
         :: HOMO-LUMO gap              2.611650757605 eV    ::
         :: SCC energy              -200.632637985850 Eh    ::
         :: -> dispersion             -0.197665187933 Eh    ::
         :: repulsion energy           3.511703969649 Eh    ::

    * Orbital Energies and Occupations

         #    Occupation            Energy/Eh            Energy/eV
      -------------------------------------------------------------
         1        2.0000           -0.6620722             -18.0159
       ...           ...                  ...                  ...
       173        2.0000           -0.4024015             -10.9499
       174        2.0000           -0.4022192             -10.9449
       175        2.0000           -0.3964019             -10.7866
       176        2.0000           -0.3946102             -10.7379
       177        2.0000           -0.3938537             -10.7173
       178        2.0000           -0.3927481             -10.6872
       179        2.0000           -0.3915430             -10.6544
       180        2.0000           -0.3907247             -10.6322
       181        2.0000           -0.3706130             -10.0849
       182        2.0000           -0.3674165              -9.9979
       183        2.0000           -0.3632189              -9.8837
       184        2.0000           -0.3605945              -9.8123
       185        2.0000           -0.3441146              -9.3638 (HOMO)
       186                         -0.2481381              -6.7522 (LUMO)
       187                         -0.2447124              -6.6590
       188                         -0.2432251              -6.6185
       189                         -0.2429291              -6.6104
       190                         -0.2344426              -6.3795
       191                         -0.2318073              -6.3078
       192                         -0.2295620              -6.2467
       193                         -0.2271636              -6.1814
       194                         -0.2248035              -6.1172
       195                         -0.2198264              -5.9818
       196                         -0.2189721              -5.9585
       ...                                ...                  ...
       367                          0.7399053              20.1338
      -------------------------------------------------------------
                  HL-Gap            0.0959764 Eh            2.6117 eV

     #   Z          covCN         q      C6AA      α(0)
     1   6 C        3.757    -0.108    22.622     6.781
     2   6 C        2.965     0.010    27.794     8.648
     3   6 C        2.925    -0.040    28.994     8.830
     4   6 C        2.921    -0.049    29.207     8.862
     5   6 C        2.925     0.060    26.651     8.466
     6   7 N        2.752    -0.075    22.703     7.077
     7   6 C        2.924     0.063    26.596     8.457
     8   6 C        2.922    -0.049    29.223     8.865
     9   6 C        2.923    -0.036    28.891     8.814
    10   6 C        2.978     0.006    27.885     8.662
    11   6 C        3.947     0.008    20.370     6.413
    12   6 C        2.977     0.009    27.821     8.652
    13   6 C        2.933    -0.018    28.465     8.750
    14   6 C        2.913    -0.040    28.996     8.830
    15   6 C        2.913     0.056    26.754     8.482
    16   7 N        1.835    -0.224    26.726     7.661
    17   6 C        2.918     0.056    26.743     8.480
    18   6 C        3.055    -0.001    27.993     8.677
    19   6 C        2.922    -0.040    29.006     8.832
    20   6 C        2.975     0.006    27.894     8.663
    21   6 C        3.903     0.026    20.083     6.370
    22   6 C        3.761    -0.107    22.590     6.775
    23   6 C        3.762    -0.104    22.527     6.766
    24   6 C        3.762    -0.104    22.535     6.767
    25   6 C        2.925    -0.044    29.081     8.844
    26   6 C        2.914    -0.037    28.932     8.820
    27   6 C        3.035    -0.003    28.074     8.691
    28   6 C        3.035    -0.003    28.077     8.691
    29   6 C        2.914    -0.037    28.932     8.820
    30   6 C        2.925    -0.043    29.077     8.843
    31   6 C        2.975     0.006    27.872     8.660
    32   6 C        3.903     0.026    20.083     6.370
    33   6 C        3.762    -0.104    22.538     6.767
    34   6 C        3.761    -0.107    22.591     6.776
    35   6 C        3.762    -0.105    22.548     6.769
    36   6 C        2.922    -0.040    29.006     8.832
    37   6 C        3.059    -0.001    27.986     8.675
    38   6 C        2.923    -0.034    28.857     8.809
    39   6 C        2.921    -0.049    29.218     8.864
    40   6 C        2.923     0.062    26.610     8.459
    41   6 C        2.922    -0.051    29.263     8.871
    42   6 C        2.924    -0.035    28.866     8.811
    43   6 C        2.977     0.007    27.869     8.660
    44   6 C        3.947     0.008    20.370     6.413
    45   6 C        2.977     0.009    27.810     8.650
    46   6 C        2.933    -0.016    28.418     8.743
    47   6 C        2.912    -0.041    29.015     8.833
    48   6 C        2.913     0.056    26.753     8.481
    49   7 N        1.836    -0.223    26.705     7.658
    50   6 C        2.916     0.054    26.785     8.487
    51   6 C        3.055    -0.002    28.028     8.682
    52   6 C        2.920    -0.045    29.108     8.847
    53   6 C        2.975     0.006    27.877     8.661
    54   6 C        3.903     0.026    20.084     6.370
    55   6 C        3.761    -0.105    22.547     6.769
    56   6 C        3.762    -0.105    22.554     6.770
    57   6 C        3.761    -0.106    22.571     6.773
    58   6 C        2.928    -0.039    28.963     8.826
    59   6 C        2.913    -0.037    28.912     8.817
    60   6 C        3.036    -0.003    28.066     8.689
    61   6 C        3.035    -0.003    28.057     8.688
    62   6 C        2.914    -0.037    28.911     8.817
    63   6 C        2.925    -0.043    29.066     8.841
    64   6 C        2.975     0.006    27.890     8.663
    65   6 C        3.903     0.026    20.082     6.370
    66   6 C        3.761    -0.107    22.595     6.776
    67   6 C        3.762    -0.104    22.530     6.766
    68   6 C        3.762    -0.104    22.529     6.766
    69   6 C        2.922    -0.040    28.993     8.830
    70   6 C        3.058    -0.001    27.986     8.676
    71   6 C        2.923    -0.036    28.901     8.816
    72   6 C        2.922    -0.050    29.248     8.869
    73   6 C        2.921    -0.049    29.208     8.863
    74   6 C        2.925    -0.040    28.985     8.829
    75   1 H        0.925     0.042     2.423     2.434
    76   1 H        0.925     0.042     2.421     2.433
    77   1 H        0.924     0.046     2.370     2.407
    78   1 H        0.926     0.031     2.575     2.509
    79   1 H        0.926     0.030     2.585     2.514
    80   1 H        0.926     0.032     2.554     2.499
    81   1 H        0.926     0.034     2.528     2.487
    82   1 H        0.926     0.035     2.522     2.483
    83   1 H        0.926     0.033     2.541     2.493
    84   1 H        0.925     0.036     2.501     2.473
    85   1 H        0.925     0.035     2.520     2.482
    86   1 H        0.926     0.028     2.618     2.530
    87   1 H        0.925     0.036     2.509     2.477
    88   1 H        0.925     0.036     2.506     2.475
    89   1 H        0.925     0.036     2.502     2.474
    90   1 H        0.925     0.035     2.510     2.477
    91   1 H        0.925     0.033     2.551     2.498
    92   1 H        0.925     0.037     2.491     2.468
    93   1 H        0.925     0.033     2.543     2.494
    94   1 H        0.925     0.037     2.490     2.468
    95   1 H        0.925     0.036     2.501     2.473
    96   1 H        0.926     0.036     2.507     2.476
    97   1 H        0.926     0.028     2.611     2.527
    98   1 H        0.926     0.028     2.608     2.526
    99   1 H        0.926     0.036     2.501     2.473
   100   1 H        0.925     0.033     2.548     2.496
   101   1 H        0.925     0.037     2.490     2.468
   102   1 H        0.925     0.037     2.487     2.466
   103   1 H        0.925     0.036     2.509     2.477
   104   1 H        0.925     0.036     2.499     2.472
   105   1 H        0.925     0.036     2.510     2.477
   106   1 H        0.925     0.033     2.548     2.496
   107   1 H        0.925     0.037     2.483     2.464
   108   1 H        0.925     0.038     2.477     2.461
   109   1 H        0.926     0.029     2.597     2.520
   110   1 H        0.926     0.028     2.612     2.527
   111   1 H        0.926     0.033     2.546     2.495
   112   1 H        0.926     0.031     2.573     2.509
   113   1 H        0.926     0.028     2.609     2.526
   114   1 H        0.925     0.031     2.565     2.505
   115   1 H        0.926     0.032     2.556     2.500
   116   1 H        0.925     0.036     2.507     2.476
   117   1 H        0.925     0.038     2.480     2.462
   118   1 H        0.926     0.035     2.512     2.479
   119   1 H        0.925     0.033     2.545     2.495
   120   1 H        0.925     0.036     2.497     2.471
   121   1 H        0.925     0.037     2.495     2.470
   122   1 H        0.925     0.035     2.515     2.480
   123   1 H        0.925     0.037     2.494     2.469
   124   1 H        0.925     0.036     2.496     2.471
   125   1 H        0.925     0.035     2.511     2.478
   126   1 H        0.925     0.035     2.520     2.483
   127   1 H        0.925     0.036     2.504     2.474
   128   1 H        0.926     0.029     2.597     2.520
   129   1 H        0.926     0.029     2.600     2.521
   130   1 H        0.926     0.029     2.595     2.519
   131   1 H        0.926     0.037     2.495     2.470
   132   1 H        0.925     0.036     2.505     2.475
   133   1 H        0.925     0.036     2.497     2.471
   134   1 H        0.925     0.036     2.505     2.475
   135   1 H        0.925     0.033     2.538     2.491
   136   1 H        0.925     0.037     2.495     2.470
   137   1 H        0.925     0.035     2.523     2.484
   138   1 H        0.925     0.035     2.513     2.479
   139   1 H        0.925     0.034     2.529     2.487
   140   1 H        0.925     0.036     2.496     2.471
   141   1 H        0.926     0.026     2.644     2.543
   142   1 H        0.926     0.035     2.511     2.478
   143   1 H        0.926     0.032     2.556     2.500
   144   1 H        0.926     0.031     2.571     2.508
   145   1 H        0.926     0.031     2.572     2.508

molecular dipole:
                 x           y           z       tot (Debye)
 q only:        0.763      -0.155       0.498
   full:        1.367      -0.264       0.661       3.919

 projected vibrational frequencies (cm⁻¹)
eigval :       -0.00    -0.00     0.00     0.00     0.00     0.00
eigval :        4.99     5.34     9.65    10.46    12.64    17.36
eigval :       20.68    21.19    24.06    28.79    31.93    32.58
eigval :       33.93    35.14    38.37    39.99    41.84    47.96
eigval :       54.27    55.05    57.08    58.47    64.66    75.75
eigval :       79.66    80.96    84.94    90.39   113.61   127.61
eigval :      133.91   138.87   142.52   147.82   150.72   152.45
eigval :      159.26   176.61   177.95   178.76   183.81   186.76
eigval :      191.01   192.78   198.54   205.39   208.47   215.52
eigval :      217.76   219.59   221.40   229.23   239.15   242.85
eigval :      248.30   253.34   256.55   266.90   277.98   283.26
eigval :      293.87   296.83   301.39   307.34   317.11   320.60
eigval :      322.00   324.15   325.29   326.13   330.49   331.27
eigval :      335.11   341.20   344.05   352.28   356.65   360.22
eigval :      364.66   365.20   367.78   369.26   370.32   381.14
eigval :      384.40   385.08   385.89   389.16   391.95   396.97
eigval :      424.09   428.27   429.69   433.43   440.35   444.37
eigval :      447.75   449.22   450.65   457.37   458.81   477.71
eigval :      478.25   481.80   485.05   497.07   510.58   519.07
eigval :      530.03   530.21   542.97   543.95   555.25   556.73
eigval :      582.16   595.60   599.45   602.53   605.32   609.71
eigval :      613.04   614.31   618.66   620.48   625.92   626.07
eigval :      642.18   657.64   660.04   668.89   677.66   681.01
eigval :      689.11   690.96   691.33   697.17   705.21   718.60
eigval :      718.82   726.15   728.40   729.32   735.40   786.94
eigval :      787.78   802.23   803.62   805.55   811.82   816.03
eigval :      818.74   819.73   822.61   831.24   832.71   871.47
eigval :      871.51   872.04   872.50   874.85   877.49   885.41
eigval :      887.00   888.17   889.97   893.54   903.32   904.21
eigval :      909.56   910.29   911.13   912.48   914.43   914.73
eigval :      915.09   917.15   918.30   919.63   920.58   926.98
eigval :      930.77   931.23   933.40   935.02   942.26   945.75
eigval :      959.69   960.36   960.44   960.50   961.02   961.47
eigval :      962.20   962.66   963.21   963.46   963.57   963.66
eigval :      963.75   966.60   967.19   969.09  1008.85  1010.54
eigval :     1012.35  1015.08  1015.80  1018.65  1030.80  1032.72
eigval :     1033.18  1035.48  1035.52  1035.77  1035.84  1035.97
eigval :     1036.00  1037.04  1037.48  1097.92  1098.13  1116.29
eigval :     1116.48  1127.58  1127.95  1139.79  1140.21  1143.84
eigval :     1144.76  1145.27  1148.00  1149.68  1178.86  1180.32
eigval :     1187.07  1190.95  1191.68  1195.94  1196.03  1198.99
eigval :     1199.37  1199.81  1201.83  1213.63  1227.20  1227.21
eigval :     1227.31  1227.78  1230.04  1231.68  1232.51  1234.28
eigval :     1236.14  1236.36  1237.38  1240.43  1241.65  1244.03
eigval :     1255.26  1257.68  1260.30  1270.68  1271.09  1273.23
eigval :     1278.03  1279.08  1283.39  1284.56  1284.62  1285.65
eigval :     1289.72  1291.28  1300.16  1306.44  1316.15  1326.29
eigval :     1327.88  1328.59  1330.22  1331.68  1335.33  1372.62
eigval :     1376.24  1400.78  1402.70  1403.18  1403.62  1404.52
eigval :     1404.65  1405.32  1406.09  1406.58  1406.69  1406.83
eigval :     1407.19  1416.09  1417.38  1419.52  1421.05  1429.71
eigval :     1429.90  1430.02  1430.58  1434.30  1434.71  1449.26
eigval :     1449.53  1453.34  1454.32  1474.49  1479.62  1483.66
eigval :     1485.22  1487.11  1487.54  1492.23  1492.26  1492.43
eigval :     1492.45  1494.68  1494.75  1494.98  1495.09  1495.54
eigval :     1501.43  1501.68  1501.87  1502.05  1505.44  1505.89
eigval :     1506.18  1506.31  1514.93  1514.97  1515.01  1515.55
eigval :     1520.10  1520.25  1520.28  1521.01  1560.74  1566.55
eigval :     1568.78  1570.63  1574.62  1576.70  1577.11  1578.79
eigval :     1579.40  1593.66  1595.56  1600.53  1602.58  1605.65
eigval :     1606.86  1609.43  1611.10  1612.19  2992.18  3020.77
eigval :     3021.56  3021.81  3022.19  3023.02  3023.10  3023.15
eigval :     3023.50  3026.24  3026.36  3026.39  3026.88  3029.47
eigval :     3029.59  3029.67  3030.06  3030.70  3030.98  3031.18
eigval :     3031.20  3034.84  3035.09  3035.35  3035.44  3036.14
eigval :     3037.42  3037.69  3038.38  3038.67  3038.80  3045.28
eigval :     3045.91  3047.10  3047.43  3048.75  3049.34  3049.54
eigval :     3050.37  3051.12  3057.54  3058.50  3058.89  3065.47
eigval :     3071.66  3073.05  3073.33  3074.07  3074.48  3076.06
eigval :     3076.93  3080.50  3080.62  3082.03  3083.57  3084.91
eigval :     3086.17  3087.02  3087.91  3088.35  3088.87  3089.21
eigval :     3089.68  3090.14  3090.81  3094.11  3095.82  3113.79
eigval :     3114.26  3115.01  3122.12

   temp. (K)  partition function   enthalpy   heat capacity  entropy
                                   cal/mol     cal/K/mol   cal/K/mol   J/K/mol
 298.15  VIB  0.639E+36            42508.222    254.140    269.005
         ROT  0.309E+09              888.752      2.981     41.830
         INT  0.198E+45            43396.974    257.120    310.835
         TR   0.291E+29             1481.254      4.968     46.458
         TOT                       44878.2283   262.0886   357.2932  1494.9149

       T/K    H(0)-H(T)+PV         H(T)/Eh          T*S/Eh         G(T)/Eh
   ------------------------------------------------------------------------
    298.15    0.715180E-01    0.127247E+01    0.169762E+00    0.110271E+01
   ------------------------------------------------------------------------

         :::::::::::::::::::::::::::::::::::::::::::::::::::::
         ::                  THERMODYNAMIC                  ::
         :::::::::::::::::::::::::::::::::::::::::::::::::::::
         :: total free energy        -196.018228966608 Eh   ::
         ::.................................................::
         :: total energy             -197.120934016203 Eh   ::
         :: zero point energy           1.200948588531 Eh   ::
         :: G(RRHO) w/o ZPVE           -0.098243538936 Eh   ::
         :: G(RRHO) contrib.            1.102705049596 Eh   ::
         :::::::::::::::::::::::::::::::::::::::::::::::::::::

           -------------------------------------------------
          | TOTAL ENERGY             -197.120934016203 Eh   |
          | TOTAL ENTHALPY           -195.848467418483 Eh   |
          | TOTAL FREE ENERGY        -196.018228966608 Eh   |
          | GRADIENT NORM               0.000062823266 Eh/α |
          | HOMO-LUMO GAP               2.611651140259 eV   |
           -------------------------------------------------

 * finished run on 2025/08/23 at 02:32:49.922
