   * xtb version 6.7.1 (edcfbbe) compiled by 'albert@albert-system' on 2024-07-22

   ID    Z sym.   atoms
    1    6 C      1-5, 7-15, 17-48, 50-74
    2    7 N      6, 16, 49
    3    1 H      75-145

          program call               : xtb data2507/gas/TPA-PyF2/TPA-PyF2_gas_S0_finalOpt.xtbopt.xyz --gfn 2 --spinpol --tblite --uhf 2 --ohess vtight --parallel 40 --molden --ceasefiles --namespace data2507/gas/TPA-PyF2/TPA-PyF2_gas_T1_preOpt
 * total energy  :  -197.0156527 Eh     change        0.1431064E-06 Eh
 * total energy  :  -197.0177430 Eh     change       -0.2090345E-02 Eh
 * total energy  :  -197.0183400 Eh     change       -0.5969438E-03 Eh
 * total energy  :  -197.0184658 Eh     change       -0.1258567E-03 Eh
 * total energy  :  -197.0185638 Eh     change       -0.9799846E-04 Eh
 * total energy  :  -197.0186111 Eh     change       -0.4733107E-04 Eh
 * total energy  :  -197.0186553 Eh     change       -0.4417174E-04 Eh
 * total energy  :  -197.0186823 Eh     change       -0.2702656E-04 Eh
 * total energy  :  -197.0187096 Eh     change       -0.2726893E-04 Eh
 * total energy  :  -197.0187343 Eh     change       -0.2471769E-04 Eh
 * total energy  :  -197.0191146 Eh     change       -0.8962831E-06 Eh
 * total energy  :  -197.0191150 Eh     change       -0.3284690E-06 Eh
 * total energy  :  -197.0191154 Eh     change       -0.3991321E-06 Eh
 * total energy  :  -197.0191151 Eh     change        0.2783976E-06 Eh
 * total energy  :  -197.0191155 Eh     change       -0.4496552E-06 Eh
 * total energy  :  -197.0191160 Eh     change       -0.4752639E-06 Eh
 * total energy  :  -197.0191164 Eh     change       -0.3583812E-06 Eh
 * total energy  :  -197.0191165 Eh     change       -0.1575710E-06 Eh
 * total energy  :  -197.0191166 Eh     change       -0.8878439E-07 Eh
   *** GEOMETRY OPTIMIZATION CONVERGED AFTER 63 ITERATIONS ***

 final structure:
================
145
 xtb: 6.7.1 (edcfbbe)
C           -0.07985600786850       -8.39423524193450       -0.57257139167210
C           -0.08487111832015       -6.89917213542049       -0.59118240238338
C           -1.09528991035656       -6.20493803048368       -1.26255693864118
C           -1.10986766173887       -4.83111928745238       -1.30375020082692
C           -0.10013168003227       -4.09530468005458       -0.66635593042069
N           -0.11002556064972       -2.70824304609865       -0.71129358645783
C            1.06531871280482       -1.97831556682712       -0.66913972459338
C            1.09969306246403       -0.74525209228628        0.02322576180747
C            2.24097330889296        0.00434359777644        0.04911758093705
C            3.39944923614711       -0.41138796745955       -0.62941457756683
C            4.67838864835447        0.37173085263310       -0.49082342094140
C            5.55881510951011        0.33700712688260       -1.71111689563428
C            6.94580395423068        0.30682145875334       -1.61139802059407
C            7.70637707663420        0.34861786946713       -2.76892013228496
C            7.05128230319039        0.42539971682039       -3.98719104360217
N            5.73285377269865        0.46181188451371       -4.09321731976881
C            5.01220833441064        0.42183028088802       -2.98845997049581
C            5.31747591842712       -0.18427529160540        0.76873554002351
C            5.77415648928446       -1.45969156422863        1.00116673404200
C            6.28942788152292       -1.80284839355051        2.25146295004006
C            6.79860721076114       -3.21896708502644        2.46884301009873
C            7.94298664205390       -3.49742999308542        1.48326749058701
C            5.64804853689584       -4.20607539976992        2.22094373806216
C            7.32650692878404       -3.45073308829853        3.88712323984722
C            6.30814237873506       -0.82580616204197        3.25026377303979
C            5.84026651997396        0.45673540918647        3.03131247446590
C            5.33877541534233        0.79376493192202        1.78263714618526
C            4.80219204983017        2.02328087088566        1.25244765528536
C            4.60896862591890        3.27636510513340        1.81623382912629
C            4.05347905313446        4.28461185316531        1.04739592182257
C            3.69130029114247        4.08946583369311       -0.28457982694491
C            3.11399087558305        5.19443601734004       -1.15451906972892
C            4.14178106989902        5.53800319255334       -2.24279006933096
C            1.81130310870263        4.71405275237047       -1.81052831898553
C            2.80220715802034        6.46818739557930       -0.36354980979163
C            3.89557271650434        2.82441318097618       -0.84644866975352
C            4.42651682447694        1.81305879463693       -0.08665552858122
C            3.36830438782832       -1.64431346368117       -1.30665943313566
C            2.23665232054193       -2.41411254718983       -1.32867034658243
C           -1.30394168818129       -2.00206122108270       -0.74199211820268
C           -1.39282301471124       -0.81553928717778       -1.50470649347353
C           -2.49942167574948       -0.01999203853866       -1.41982022107568
C           -3.55738423867237       -0.34179834516058       -0.54746450197428
C           -4.60941987244757        0.68880252465578       -0.24179599721463
C           -5.07606423032431        1.46225482207141       -1.44797069819528
C           -5.40714510858049        2.81061873990046       -1.36994002628171
C           -5.90883863991315        3.44751615884010       -2.49340408652600
C           -6.06603045039646        2.70997334946041       -3.65582705540582
N           -5.75723318694920        1.42619397668108       -3.73958675118689
C           -5.28055099752473        0.82309018964356       -2.66746348710896
C           -3.97667455429511        1.54205918452323        0.84659038538475
C           -2.81805688443739        2.28122017978735        0.79148244485004
C           -2.35929728574805        2.95588222804927        1.92314952983699
C           -1.07978868039941        3.77263515098309        1.82111214892957
C            0.07302921205479        2.85315280087999        1.38900495669505
C           -0.68584480970258        4.43009654259968        3.14654539006232
C           -1.28371644751240        4.88342597759002        0.78035087616441
C           -3.10187873931168        2.85024190398686        3.10235873798091
C           -4.26419165718240        2.10505612538251        3.17234363184139
C           -4.71533672112686        1.43895395418810        2.04199840808271
C           -5.86413252241149        0.59962453364402        1.80729276097547
C           -6.91598608318474        0.21092621558250        2.62445866383012
C           -7.89810688875411       -0.61901050190713        2.11304589854913
C           -7.86969242017972       -1.07849311351279        0.79716213207426
C           -8.93838165536475       -1.98931987280664        0.21499332768081
C          -10.03550386313309       -2.34010369478625        1.22374128715950
C           -9.59699233882026       -1.28666867817950       -0.98115405507457
C           -8.28122177009859       -3.29765522206170       -0.24888641769545
C           -6.80746083715372       -0.67906323754361       -0.02066436585057
C           -5.82459661388912        0.13798503100302        0.47895622558450
C           -3.49085471957505       -1.55147088835458        0.16480394218073
C           -2.40545622294470       -2.37877520960393        0.05857588820610
C            0.91340326902900       -4.78562189165075        0.01468776184592
C            0.91322823238211       -6.16179000572367        0.04411664286606
H            0.65018399032626       -8.77367794138284        0.13766268204688
H           -1.06350564318367       -8.77835755496610       -0.30711826708635
H            0.16945106298803       -8.78169787869445       -1.56113469527573
H           -1.87341493527106       -6.76126555067097       -1.76433642279700
H           -1.88305550381039       -4.30550520012373       -1.84412919064353
H            0.22268179524364       -0.42589417431438        0.56598453384422
H            2.25822885016412        0.92839749710596        0.60545854655778
H            7.41748955101424        0.24939399001916       -0.64068245187902
H            8.78448432719953        0.32354926257406       -2.72439807392800
H            7.59716003435782        0.45989335440748       -4.92073788115422
H            3.93810697090763        0.44837967591373       -3.12783840023667
H            5.73630318537966       -2.18801513816507        0.20462998165370
H            7.61035471877930       -3.40627524377101        0.45278572127397
H            8.75533247575148       -2.79113986890113        1.64274432770442
H            8.32825636664260       -4.50465201977273        1.62896966287576
H            4.82453792447195       -3.99972780064309        2.90191036441412
H            5.27371431294031       -4.13206185164835        1.20335100661541
H            5.98684477072889       -5.22690343523490        2.38652065122864
H            8.16284919517508       -2.79097029551243        4.10613365548032
H            7.67560640222512       -4.47737568570814        3.98085467769410
H            6.54447248369228       -3.29329306003077        4.62635135792461
H            6.69298269460103       -1.06310381129593        4.22869097850389
H            5.86313909197539        1.18613144909789        3.82787311429079
H            4.88487225661934        3.46583166526046        2.84321227046912
H            3.90853455627772        5.24762341355368        1.51028011574512
H            5.06770901492481        5.88707466576932       -1.78992437721245
H            3.75623803976670        6.32227017970722       -2.89110724280568
H            4.37000909273588        4.66807987978945       -2.85343465428735
H            1.98813395398861        3.88567485735206       -2.49042913115411
H            1.10404247623630        4.38908077601832       -1.05179327513462
H            1.36002675596000        5.52431477359673       -2.37973100304666
H            2.35270539002427        7.20618942814174       -1.02512228481980
H            3.70611177582043        6.90389546108244        0.05544173252300
H            2.09954621946551        6.26499086927117        0.44195769809134
H            3.63729373420599        2.63292130873524       -1.87684078570712
H            4.24720999520656       -1.97750597022048       -1.83919150033661
H            2.21269402675418       -3.34035934251210       -1.88393535142098
H           -0.58033108528835       -0.56490869930537       -2.17099911254201
H           -2.56781771790859        0.86982384115321       -2.02828193313563
H           -5.27019990928263        3.34839611810031       -0.44246323655395
H           -6.17299148368312        4.49363029939065       -2.46559557827407
H           -6.45388873310500        3.15827027143802       -4.56093381845839
H           -5.03698842360788       -0.22593999530486       -2.78709658965096
H           -2.26756567443067        2.33690403520835       -0.13555911428027
H            1.00659810480581        3.41173084017227        1.33925402181493
H           -0.11169255360819        2.41101422519211        0.41323417304432
H            0.19600521020959        2.04656882061525        2.10953979133179
H           -0.51690492377368        3.68275518236915        3.91833140877684
H           -1.45143564906119        5.12538023544753        3.48317373811128
H            0.23928010082638        4.98766104799481        3.01243222372597
H           -2.11714545668273        5.52028484806147        1.07065139875801
H           -0.39038461188625        5.50020270528706        0.70661210025480
H           -1.49739832514371        4.47195023333258       -0.20271634015020
H           -2.77042672007922        3.35525741841000        3.99501132521065
H           -4.81070996794849        2.03757252672819        4.10179222022193
H           -6.97174542830587        0.55216084930771        3.64780381191378
H           -8.70493242968725       -0.90709241157475        2.76733424705149
H          -10.76816974406970       -2.99082173660327        0.75016641857182
H           -9.62489420391827       -2.86638356259427        2.08251587280993
H          -10.55250490750243       -1.44665523886885        1.56609312973287
H          -10.05033314505072       -0.35013959475986       -0.66254744786567
H          -10.37336841647409       -1.91905482317481       -1.40707296393271
H           -8.87318741245230       -1.06465194847597       -1.76047147687642
H           -7.53425972109088       -3.11542014323994       -1.01655469311323
H           -7.79479510155518       -3.79168471456773        0.59010388275553
H           -9.03237839415050       -3.97053917159232       -0.65751686698245
H           -6.75072525276201       -1.00812167260884       -1.04762333344956
H           -4.30555217403821       -1.81746970301607        0.82173613061970
H           -2.34950906677126       -3.29204898872958        0.63240209717358
H            1.67521468304649       -4.22659729316019        0.53720420378933
H            1.69600843011345       -6.67905406090045        0.57961314017185

 projected vibrational frequencies (cm⁻¹)
eigval :       -0.00    -0.00    -0.00     0.00     0.00     0.00
eigval :       -2.11     2.65     7.06    12.65    15.78    17.70
eigval :       22.78    26.14    29.27    29.74    33.26    35.81
eigval :       37.07    39.96    41.12    47.85    48.86    51.87
eigval :       52.89    55.45    59.17    60.91    66.27    76.69
eigval :       79.78    84.05    87.29    89.80   111.02   124.13
eigval :      131.66   133.24   140.69   143.09   151.47   154.64
eigval :      162.83   173.03   178.36   178.88   181.92   184.47
eigval :      189.04   195.74   202.17   204.58   209.74   215.55
eigval :      218.69   220.98   225.17   235.68   237.31   239.16
eigval :      247.11   255.83   260.21   266.54   272.98   280.15
eigval :      289.21   294.10   298.97   305.13   308.55   313.11
eigval :      316.13   319.22   319.90   322.67   325.77   327.29
eigval :      330.53   333.19   340.36   349.12   351.31   354.47
eigval :      357.79   363.57   364.15   365.61   366.63   373.17
eigval :      380.26   381.59   382.58   385.05   389.55   391.93
eigval :      423.27   425.17   429.29   430.19   436.42   442.66
eigval :      444.33   449.33   449.90   451.06   451.95   460.27
eigval :      464.39   476.78   477.23   485.11   486.89   516.12
eigval :      528.40   528.65   539.36   541.48   543.21   547.71
eigval :      578.05   587.11   587.37   592.49   598.12   602.78
eigval :      605.38   608.89   611.38   614.41   615.72   616.91
eigval :      620.15   643.16   645.67   647.67   650.24   652.46
eigval :      679.79   680.90   682.79   686.20   688.78   704.94
eigval :      712.36   714.93   715.97   718.01   727.06   755.69
eigval :      773.54   779.61   788.75   793.35   796.97   797.30
eigval :      799.92   805.98   811.09   811.44   822.26   822.58
eigval :      830.17   853.04   855.75   867.36   868.76   874.02
eigval :      876.22   880.90   882.03   884.53   885.31   891.44
eigval :      897.37   901.97   902.69   903.18   904.92   906.05
eigval :      906.45   906.74   908.30   908.81   909.02   910.03
eigval :      911.18   913.52   916.34   921.43   925.07   925.12
eigval :      943.58   945.10   958.21   958.62   958.99   959.28
eigval :      959.88   960.36   961.67   962.16   962.58   962.69
eigval :      963.02   963.10   963.76   965.10   988.11   989.23
eigval :      998.96   999.59  1000.10  1004.48  1004.99  1007.77
eigval :     1025.32  1033.13  1034.27  1034.91  1035.03  1035.08
eigval :     1035.39  1036.47  1036.97  1083.95  1090.26  1092.55
eigval :     1095.19  1103.99  1122.56  1124.07  1125.74  1135.66
eigval :     1138.22  1138.83  1139.50  1140.33  1142.07  1145.72
eigval :     1158.02  1165.42  1174.57  1176.79  1179.84  1182.22
eigval :     1188.60  1190.42  1191.61  1203.61  1205.70  1222.72
eigval :     1224.89  1225.53  1225.59  1225.74  1226.23  1229.98
eigval :     1230.91  1232.93  1233.85  1234.77  1234.89  1235.68
eigval :     1242.13  1249.72  1250.64  1252.71  1257.79  1258.84
eigval :     1263.83  1264.22  1265.45  1279.64  1284.44  1285.02
eigval :     1286.95  1288.52  1288.88  1290.80  1291.19  1298.22
eigval :     1309.94  1324.89  1327.82  1328.92  1330.68  1331.66
eigval :     1338.43  1342.48  1344.93  1375.72  1387.84  1389.08
eigval :     1396.07  1397.30  1402.12  1402.71  1403.12  1404.43
eigval :     1404.73  1404.81  1405.44  1405.86  1407.36  1416.13
eigval :     1419.21  1426.31  1427.57  1427.78  1429.63  1430.14
eigval :     1434.37  1434.48  1439.33  1441.64  1443.75  1444.27
eigval :     1445.13  1447.26  1447.85  1448.57  1453.94  1465.44
eigval :     1475.03  1482.10  1485.01  1486.03  1491.59  1491.88
eigval :     1492.25  1494.29  1494.89  1497.17  1498.50  1499.54
eigval :     1500.74  1501.02  1501.36  1502.84  1503.11  1505.40
eigval :     1505.74  1506.16  1507.74  1509.44  1513.04  1513.88
eigval :     1513.97  1514.63  1516.34  1519.45  1520.01  1520.26
eigval :     1522.96  1532.43  1537.23  1539.56  1541.59  1570.64
eigval :     1574.42  1588.58  1595.32  1598.25  2993.20  3012.86
eigval :     3018.97  3019.18  3019.30  3019.65  3020.09  3020.87
eigval :     3021.25  3021.31  3022.26  3024.20  3024.52  3024.82
eigval :     3025.06  3026.86  3027.12  3027.84  3028.00  3028.38
eigval :     3029.32  3029.92  3033.89  3034.01  3034.60  3036.56
eigval :     3037.05  3037.22  3037.37  3039.18  3040.82  3041.52
eigval :     3042.47  3042.84  3042.86  3045.31  3046.29  3046.45
eigval :     3047.56  3048.71  3052.02  3058.77  3059.09  3072.52
eigval :     3072.95  3073.48  3073.58  3073.66  3073.94  3077.50
eigval :     3077.77  3078.13  3078.51  3079.27  3080.49  3081.68
eigval :     3084.01  3085.51  3086.56  3086.94  3087.74  3089.64
eigval :     3089.85  3091.40  3091.69  3092.46  3105.90  3107.63
eigval :     3110.48  3111.54  3111.83

   temp. (K)  partition function   enthalpy   heat capacity  entropy
                                   cal/mol     cal/K/mol   cal/K/mol   J/K/mol
 298.15  VIB  0.106E+37            42885.994    258.484    272.271
         ROT  0.264E+09              888.752      2.981     41.516
         INT  0.281E+45            43774.746    261.465    313.786
         TR   0.291E+29             1481.254      4.968     46.458
         TOT                       45256.0004   266.4330   360.2447  1507.2639

       T/K    H(0)-H(T)+PV         H(T)/Eh          T*S/Eh         G(T)/Eh
   ------------------------------------------------------------------------
    298.15    0.721200E-01    0.126356E+01    0.171164E+00    0.109240E+01
   ------------------------------------------------------------------------

         :::::::::::::::::::::::::::::::::::::::::::::::::::::
         ::                  THERMODYNAMIC                  ::
         :::::::::::::::::::::::::::::::::::::::::::::::::::::
         :: total free energy        -195.926720171867 Eh   ::
         ::.................................................::
         :: total energy             -197.019116692070 Eh   ::
         :: zero point energy           1.191440386175 Eh   ::
         :: G(RRHO) w/o ZPVE           -0.099043865972 Eh   ::
         :: G(RRHO) contrib.            1.092396520203 Eh   ::
         :::::::::::::::::::::::::::::::::::::::::::::::::::::

           -------------------------------------------------
          | TOTAL ENERGY             -197.019116692070 Eh   |
          | TOTAL ENTHALPY           -195.755556278642 Eh   |
          | TOTAL FREE ENERGY        -195.926720171867 Eh   |
          | GRADIENT NORM               0.000128982080 Eh/α |
           -------------------------------------------------

 * finished run on 2025/08/23 at 03:18:54.546
