   * xtb version 6.7.1 (edcfbbe) compiled by 'albert@albert-system' on 2024-07-22

   ID    Z sym.   atoms
    1    6 C      1-5, 7-15, 17-48, 50-74
    2    7 N      6, 16, 49
    3    1 H      75-145

          program call               : xtb data2507/gas/TPA-PyF2/TPA-PyF2_gas_S0_crest.xyz --gfn 2 --ohess vtight --parallel 40 --molden --ceasefiles --namespace data2507/gas/TPA-PyF2/TPA-PyF2_gas_S0_finalOpt
          :  Hamiltonian                  GFN2-xTB          :
 * total energy  :  -197.1238731 Eh     change       -0.3463583E-08 Eh
 * total energy  :  -197.1238741 Eh     change       -0.1011356E-05 Eh
 * total energy  :  -197.1238759 Eh     change       -0.1807703E-05 Eh
 * total energy  :  -197.1238810 Eh     change       -0.5095669E-05 Eh
 * total energy  :  -197.1238879 Eh     change       -0.6917006E-05 Eh
 * total energy  :  -197.1238932 Eh     change       -0.5210983E-05 Eh
 * total energy  :  -197.1238973 Eh     change       -0.4157801E-05 Eh
 * total energy  :  -197.1239011 Eh     change       -0.3793539E-05 Eh
 * total energy  :  -197.1239042 Eh     change       -0.3137135E-05 Eh
 * total energy  :  -197.1239069 Eh     change       -0.2688668E-05 Eh
 * total energy  :  -197.1239547 Eh     change       -0.1107624E-05 Eh
 * total energy  :  -197.1239556 Eh     change       -0.8386918E-06 Eh
 * total energy  :  -197.1239562 Eh     change       -0.6239983E-06 Eh
 * total energy  :  -197.1239567 Eh     change       -0.4702431E-06 Eh
 * total energy  :  -197.1239571 Eh     change       -0.4228048E-06 Eh
 * total energy  :  -197.1239576 Eh     change       -0.5099677E-06 Eh
 * total energy  :  -197.1239581 Eh     change       -0.4992297E-06 Eh
 * total energy  :  -197.1239586 Eh     change       -0.4765890E-06 Eh
 * total energy  :  -197.1239586 Eh     change       -0.8362690E-08 Eh
   *** GEOMETRY OPTIMIZATION CONVERGED AFTER 44 ITERATIONS ***

 final structure:
================
145
 xtb: 6.7.1 (edcfbbe)
C           -0.31439993933967       -8.36149805127818       -0.78490912285280
C           -0.27041520107643       -6.86357296035596       -0.76314395351055
C           -1.25177262431064       -6.11789289526417       -1.40696069528455
C           -1.21165381970029       -4.73903832090033       -1.41507298221926
C           -0.18193172424364       -4.05921807139355       -0.76424690101040
N           -0.15024925931245       -2.66414846568738       -0.77186444455683
C            1.05301992343739       -1.95647780448538       -0.70175315694140
C            1.12659792199889       -0.78179969779313        0.04754130194523
C            2.29614956689680       -0.05497963155513        0.10143352202392
C            3.42916694817697       -0.47574406909822       -0.58421878094847
C            4.73202091291049        0.28625551899043       -0.44828384733836
C            5.56464319669568        0.26936441248014       -1.70591746931284
C            6.95237450251704        0.20425158659280       -1.66567722455792
C            7.66676683014411        0.26281196342888       -2.85083827087930
C            6.96550993310672        0.39845566993260       -4.03832429611198
N            5.64625056888934        0.47109424306046       -4.09045167625034
C            4.97067968073079        0.40748199533215       -2.95894019158798
C            5.44779646242798       -0.26411302456193        0.77005203126835
C            5.89948089485904       -1.54470145365911        0.98120548185304
C            6.51134668381601       -1.87970679178836        2.19132374664564
C            6.99728477177971       -3.30646580126340        2.39281809110331
C            8.04456506054349       -3.63405186881705        1.31865537901063
C            5.80144828250465       -4.26103540447082        2.26269261223065
C            7.63741442488574       -3.52906947228232        3.76560428833136
C            6.64427762044928       -0.89028152573527        3.16048437568006
C            6.18455922878314        0.40242374261430        2.95881158936774
C            5.57832137757554        0.72110707483302        1.75784988056635
C            5.00286518860973        1.95706735923623        1.25697200576850
C            4.86992465274358        3.21189936357259        1.82230717130463
C            4.25965561601998        4.21976572381437        1.09126518617354
C            3.78567881538043        4.01180885555746       -0.20084533382573
C            3.15869603329938        5.11892510084222       -1.03421104924308
C            4.15628271344377        5.50298887366683       -2.13672320600220
C            1.85273923786520        4.62580003167441       -1.67360800215959
C            2.83740982513295        6.36759984057884       -0.20720792885019
C            3.93077997053641        2.74145376319036       -0.76282898535538
C            4.51579181389383        1.73137526553387       -0.03729563813675
C            3.36347288546681       -1.66002357415403       -1.30957995621503
C            2.19223799520748       -2.38805505997069       -1.37913776983999
C           -1.33972959004352       -1.92301340701585       -0.72874501284950
C           -1.45659525534558       -0.76904414115954       -1.50280628268027
C           -2.56139735706808        0.04443596620213       -1.37866549890306
C           -3.57978087722592       -0.27035080639152       -0.48374058328262
C           -4.65756488239484        0.75061938955648       -0.19445601577105
C           -5.14917203262471        1.45556152902274       -1.43544469739404
C           -5.49842812725993        2.80055214698610       -1.42668307795072
C           -6.01225189850389        3.37188988761185       -2.57904770061911
C           -6.17025352272703        2.57119396731705       -3.69913496990360
N           -5.84726946374754        1.28909799357290       -3.71897952012270
C           -5.35178254428926        0.75181532296197       -2.62065586552032
C           -4.08557127864957        1.68786410528908        0.85575324420999
C           -2.93246406863942        2.43365708319580        0.79306465266441
C           -2.52712644147554        3.19234885586443        1.89340071368602
C           -1.22751005818026        3.97771415868661        1.79850670673677
C           -0.07606049618735        2.99942417313098        1.51794344772807
C           -0.89842184845310        4.73993381181627        3.08490658246108
C           -1.34414924711107        4.99718454858151        0.65622875654817
C           -3.32731096709046        3.18417268768655        3.03159348334250
C           -4.49202469396434        2.43510853542594        3.10435735380496
C           -4.87081680045587        1.67103598610478        2.01579312813090
C           -5.98578130240168        0.76435456348814        1.80666694593876
C           -7.04400656040556        0.40045332462451        2.61833087345991
C           -7.96970286868121       -0.51861663440964        2.14832915490942
C           -7.86750763847016       -1.08582381302242        0.88200376708492
C           -8.86771902232344       -2.09825389852820        0.34677972660758
C           -9.98224777995292       -2.41910528633572        1.34633615482315
C           -9.51476736461187       -1.53432873906336       -0.92632055848570
C           -8.12837292301186       -3.40414692855024        0.02117710627455
C           -6.79650093122860       -0.70652139853474        0.06904400061166
C           -5.87060362390825        0.19872870347351        0.52946338134101
C           -3.49170523418975       -1.45433484555020        0.23656434303279
C           -2.39046179398048       -2.27934384753809        0.11196621888172
C            0.79867828940296       -4.80108987710422       -0.10790951771740
C            0.75220459066565       -6.18132013502987       -0.11717609279736
H            0.34564712499499       -8.78074049115913       -0.02943005895464
H           -1.32644482058479       -8.71992140575056       -0.60618132629276
H            0.00322006607172       -8.73316862438632       -1.75978974168792
H           -2.05675728498593       -6.62758279248005       -1.91708940380900
H           -1.97769719472475       -4.17602586023635       -1.92797519533308
H            0.25879274971698       -0.44290160198033        0.59400713045754
H            2.32807655241409        0.84786778415003        0.69255679828886
H            7.46534577471612        0.10789591348197       -0.71918283780743
H            8.74472660876903        0.20879418428711       -2.84993445923282
H            7.47521109302148        0.45327534093652       -4.99127919803157
H            3.89348957652862        0.45951943715276       -3.05754704265299
H            5.77575894193506       -2.28332330931679        0.20358428694120
H            7.62697704834860       -3.55327727498482        0.31878043172356
H            8.88655725346196       -2.94858865976870        1.39323580060786
H            8.41362810641082       -4.64881347614937        1.45208678307225
H            5.04475522344660       -4.01779908240476        3.00595647850944
H            5.34412092640844       -4.19445884614552        1.27930734512308
H            6.12336190504714       -5.28838038266625        2.42016859913276
H            8.50953394156030       -2.89317793652669        3.89963187200565
H            7.96160418364996       -4.56447288642034        3.85004794723726
H            6.92647136789202       -3.33410604992392        4.56519015154860
H            7.11316099939789       -1.11671771061938        4.10417731925690
H            6.29994412709337        1.14561899128891        3.73411454297802
H            5.23332619733363        3.40982986750283        2.82005297974500
H            4.16392952149075        5.18886776356852        1.55368433308970
H            5.08196806636716        5.87032553460019       -1.69805894348728
H            3.73787713397191        6.28436428375367       -2.76770024194222
H            4.39375334450877        4.64498520188822       -2.76100530444767
H            2.03525556343581        3.84884413281840       -2.41013450263179
H            1.18500914004745        4.22865542464221       -0.91367303346470
H            1.35200895492026        5.44978861192659       -2.17787209821838
H            2.33095500501358        7.09913128439745       -0.83376445442751
H            3.74214609674060        6.83200957687457        0.17736763075058
H            2.18218170387137        6.12349481710182        0.62656570657963
H            3.58561945935351        2.54081831676143       -1.76488678297552
H            4.23283080692908       -2.01125661019136       -1.84701966314586
H            2.15288158917876       -3.29504707287351       -1.96421639860058
H           -0.65861373592022       -0.50429886069603       -2.18095230303652
H           -2.63204235493855        0.93828638116739       -1.98177731338376
H           -5.36807597699380        3.39048533193860       -0.53036429722705
H           -6.28775744931205        4.41516110259640       -2.60369544601585
H           -6.57234052549635        2.96658890172150       -4.62264738790479
H           -5.09227414248550       -0.29734798136235       -2.69135175675004
H           -2.33861034050984        2.41812607386775       -0.10787127294415
H            0.87377265583733        3.53079594809428        1.48407778930399
H           -0.21143055754082        2.48156710982623        0.57178790527406
H           -0.02004125209046        2.25176473346717        2.30691555834645
H           -0.78698264868099        4.05885919363099        3.92537257012983
H           -1.66950396135221        5.47115380516372        3.31647139263079
H            0.04212670333879        5.27292257986107        2.95909677693129
H           -2.17945187915239        5.67047743205282        0.83903619397738
H           -0.43481070253954        5.59010287675320        0.58611104562931
H           -1.50590372481248        4.50670478178678       -0.29992884901629
H           -3.04608795017553        3.76398013265111        3.89559502326844
H           -5.08601922982322        2.44329338657265        4.00642903797421
H           -7.15312944601273        0.82334284672403        3.60623844531654
H           -8.78616073083369       -0.78848211733859        2.79803958207146
H          -10.66270219213831       -3.14632766665877        0.90778786792423
H           -9.57779151717414       -2.84754164607513        2.26060998695456
H          -10.55667311876915       -1.52889772854123        1.59207720113225
H          -10.02597774047242       -0.59949665351423       -0.70508867390892
H          -10.24226088473690       -2.24061082463324       -1.32084000962093
H           -8.77472147794492       -1.34141320367846       -1.69800922766032
H           -7.36402761227898       -3.25019632216296       -0.73535055105432
H           -7.64879700213445       -3.79772855550808        0.91535484109466
H           -8.82951735962852       -4.14853694968579       -0.35020142574450
H           -6.68428317432638       -1.12084134631846       -0.92135064337187
H           -4.27905509844531       -1.72147585658113        0.92584375640756
H           -2.32200284286393       -3.18589931669318        0.69523264951439
H            1.59264779452723       -4.29003283589069        0.41678413504136
H            1.52221453261987       -6.73778801335158        0.39836013569997

          :  Hamiltonian                  GFN2-xTB          :
         :: gradient norm              0.000050603268 Eh/a0 ::
         :: HOMO-LUMO gap              2.556383385726 eV    ::
         :: SCC energy              -200.636021545052 Eh    ::
         :: -> dispersion             -0.203465448163 Eh    ::
         :: repulsion energy           3.512062956504 Eh    ::

    * Orbital Energies and Occupations

         #    Occupation            Energy/Eh            Energy/eV
      -------------------------------------------------------------
         1        2.0000           -0.6610643             -17.9885
       ...           ...                  ...                  ...
       173        2.0000           -0.4020327             -10.9399
       174        2.0000           -0.3990357             -10.8583
       175        2.0000           -0.3964733             -10.7886
       176        2.0000           -0.3956106             -10.7651
       177        2.0000           -0.3947424             -10.7415
       178        2.0000           -0.3935813             -10.7099
       179        2.0000           -0.3906810             -10.6310
       180        2.0000           -0.3899144             -10.6101
       181        2.0000           -0.3707204             -10.0878
       182        2.0000           -0.3706193             -10.0851
       183        2.0000           -0.3631882              -9.8829
       184        2.0000           -0.3627164              -9.8700
       185        2.0000           -0.3422097              -9.3120 (HOMO)
       186                         -0.2482644              -6.7556 (LUMO)
       187                         -0.2478502              -6.7443
       188                         -0.2432890              -6.6202
       189                         -0.2430739              -6.6144
       190                         -0.2342803              -6.3751
       191                         -0.2338091              -6.3623
       192                         -0.2309078              -6.2833
       193                         -0.2262731              -6.1572
       194                         -0.2244323              -6.1071
       195                         -0.2189926              -5.9591
       196                         -0.2174845              -5.9181
       ...                                ...                  ...
       367                          0.7387523              20.1025
      -------------------------------------------------------------
                  HL-Gap            0.0939453 Eh            2.5564 eV

     #   Z          covCN         q      C6AA      α(0)
     1   6 C        3.757    -0.108    22.612     6.780
     2   6 C        2.965     0.008    27.841     8.655
     3   6 C        2.925    -0.040    28.992     8.830
     4   6 C        2.922    -0.051    29.260     8.871
     5   6 C        2.921     0.060    26.652     8.466
     6   7 N        2.753    -0.076    22.721     7.079
     7   6 C        2.927     0.063    26.590     8.457
     8   6 C        2.923    -0.050    29.237     8.867
     9   6 C        2.923    -0.036    28.900     8.816
    10   6 C        2.981     0.006    27.884     8.662
    11   6 C        3.947     0.008    20.371     6.413
    12   6 C        2.974     0.008    27.834     8.654
    13   6 C        2.933    -0.018    28.466     8.750
    14   6 C        2.913    -0.040    28.999     8.830
    15   6 C        2.913     0.056    26.755     8.482
    16   7 N        1.835    -0.224    26.737     7.663
    17   6 C        2.917     0.056    26.749     8.481
    18   6 C        3.059    -0.001    27.983     8.675
    19   6 C        2.922    -0.040    29.002     8.831
    20   6 C        2.975     0.006    27.892     8.663
    21   6 C        3.903     0.026    20.084     6.370
    22   6 C        3.762    -0.104    22.526     6.766
    23   6 C        3.762    -0.104    22.527     6.766
    24   6 C        3.761    -0.107    22.589     6.775
    25   6 C        2.925    -0.044    29.083     8.844
    26   6 C        2.914    -0.037    28.929     8.820
    27   6 C        3.034    -0.004    28.079     8.691
    28   6 C        3.035    -0.003    28.069     8.690
    29   6 C        2.914    -0.038    28.937     8.821
    30   6 C        2.926    -0.044    29.087     8.844
    31   6 C        2.975     0.006    27.884     8.662
    32   6 C        3.903     0.026    20.083     6.370
    33   6 C        3.762    -0.104    22.529     6.766
    34   6 C        3.761    -0.107    22.590     6.775
    35   6 C        3.761    -0.104    22.528     6.766
    36   6 C        2.921    -0.041    29.021     8.834
    37   6 C        3.057    -0.000    27.976     8.674
    38   6 C        2.923    -0.035    28.871     8.811
    39   6 C        2.921    -0.049    29.222     8.865
    40   6 C        2.930     0.063    26.586     8.456
    41   6 C        2.923    -0.047    29.159     8.855
    42   6 C        2.924    -0.034    28.858     8.810
    43   6 C        2.983     0.007    27.856     8.658
    44   6 C        3.948     0.009    20.363     6.412
    45   6 C        2.976     0.009    27.822     8.652
    46   6 C        2.932    -0.018    28.459     8.749
    47   6 C        2.913    -0.040    28.993     8.830
    48   6 C        2.914     0.056    26.752     8.481
    49   7 N        1.835    -0.223    26.712     7.659
    50   6 C        2.917     0.056    26.748     8.481
    51   6 C        3.060    -0.001    27.994     8.677
    52   6 C        2.922    -0.041    29.020     8.834
    53   6 C        2.975     0.005    27.903     8.665
    54   6 C        3.903     0.026    20.089     6.371
    55   6 C        3.761    -0.099    22.431     6.752
    56   6 C        3.761    -0.106    22.569     6.772
    57   6 C        3.761    -0.103    22.516     6.764
    58   6 C        2.925    -0.043    29.078     8.843
    59   6 C        2.914    -0.037    28.931     8.820
    60   6 C        3.034    -0.003    28.073     8.691
    61   6 C        3.035    -0.003    28.076     8.691
    62   6 C        2.914    -0.037    28.929     8.820
    63   6 C        2.925    -0.043    29.075     8.843
    64   6 C        2.975     0.007    27.870     8.660
    65   6 C        3.903     0.026    20.083     6.370
    66   6 C        3.761    -0.107    22.591     6.776
    67   6 C        3.762    -0.105    22.548     6.769
    68   6 C        3.762    -0.104    22.539     6.768
    69   6 C        2.921    -0.041    29.009     8.832
    70   6 C        3.056    -0.001    27.991     8.676
    71   6 C        2.923    -0.036    28.895     8.815
    72   6 C        2.921    -0.047    29.168     8.857
    73   6 C        2.921    -0.052    29.283     8.874
    74   6 C        2.925    -0.040    28.992     8.830
    75   1 H        0.925     0.040     2.452     2.449
    76   1 H        0.925     0.042     2.419     2.432
    77   1 H        0.924     0.045     2.386     2.416
    78   1 H        0.926     0.030     2.580     2.512
    79   1 H        0.926     0.030     2.590     2.517
    80   1 H        0.926     0.030     2.579     2.511
    81   1 H        0.926     0.035     2.522     2.483
    82   1 H        0.926     0.034     2.524     2.484
    83   1 H        0.926     0.033     2.546     2.495
    84   1 H        0.925     0.036     2.506     2.475
    85   1 H        0.925     0.036     2.503     2.474
    86   1 H        0.926     0.027     2.624     2.533
    87   1 H        0.925     0.036     2.508     2.477
    88   1 H        0.925     0.032     2.552     2.498
    89   1 H        0.925     0.037     2.492     2.469
    90   1 H        0.925     0.033     2.543     2.494
    91   1 H        0.925     0.036     2.502     2.474
    92   1 H        0.925     0.037     2.492     2.469
    93   1 H        0.925     0.036     2.509     2.477
    94   1 H        0.925     0.036     2.504     2.474
    95   1 H        0.925     0.036     2.505     2.475
    96   1 H        0.926     0.036     2.508     2.477
    97   1 H        0.926     0.028     2.612     2.527
    98   1 H        0.926     0.028     2.614     2.528
    99   1 H        0.926     0.034     2.528     2.486
   100   1 H        0.925     0.032     2.556     2.500
   101   1 H        0.925     0.038     2.472     2.459
   102   1 H        0.925     0.037     2.494     2.470
   103   1 H        0.925     0.036     2.507     2.476
   104   1 H        0.925     0.040     2.446     2.446
   105   1 H        0.925     0.035     2.513     2.479
   106   1 H        0.925     0.035     2.512     2.478
   107   1 H        0.925     0.035     2.523     2.484
   108   1 H        0.925     0.032     2.558     2.501
   109   1 H        0.926     0.031     2.577     2.510
   110   1 H        0.926     0.028     2.610     2.526
   111   1 H        0.926     0.034     2.523     2.484
   112   1 H        0.926     0.034     2.536     2.490
   113   1 H        0.926     0.030     2.591     2.517
   114   1 H        0.926     0.034     2.523     2.484
   115   1 H        0.926     0.033     2.540     2.492
   116   1 H        0.925     0.036     2.497     2.471
   117   1 H        0.925     0.036     2.506     2.476
   118   1 H        0.926     0.029     2.607     2.525
   119   1 H        0.925     0.035     2.515     2.480
   120   1 H        0.925     0.035     2.523     2.484
   121   1 H        0.925     0.031     2.569     2.507
   122   1 H        0.925     0.036     2.507     2.476
   123   1 H        0.925     0.036     2.509     2.477
   124   1 H        0.925     0.035     2.517     2.481
   125   1 H        0.925     0.032     2.557     2.501
   126   1 H        0.925     0.039     2.462     2.454
   127   1 H        0.925     0.035     2.512     2.479
   128   1 H        0.926     0.036     2.506     2.476
   129   1 H        0.926     0.029     2.607     2.525
   130   1 H        0.926     0.029     2.607     2.525
   131   1 H        0.926     0.036     2.499     2.472
   132   1 H        0.925     0.036     2.498     2.472
   133   1 H        0.925     0.036     2.510     2.477
   134   1 H        0.925     0.036     2.510     2.477
   135   1 H        0.925     0.033     2.548     2.496
   136   1 H        0.925     0.038     2.481     2.463
   137   1 H        0.925     0.038     2.477     2.461
   138   1 H        0.925     0.037     2.488     2.466
   139   1 H        0.925     0.033     2.547     2.496
   140   1 H        0.925     0.037     2.486     2.466
   141   1 H        0.926     0.030     2.591     2.517
   142   1 H        0.926     0.035     2.521     2.483
   143   1 H        0.926     0.034     2.533     2.489
   144   1 H        0.926     0.029     2.594     2.519
   145   1 H        0.926     0.029     2.600     2.522

molecular dipole:
                 x           y           z       tot (Debye)
 q only:        0.040      -0.138       0.782
   full:        0.319       0.031       1.427       3.716

 projected vibrational frequencies (cm⁻¹)
eigval :       -0.00    -0.00    -0.00     0.00     0.00     0.00
eigval :        5.09     7.38     7.82    11.96    13.22    21.72
eigval :       22.47    25.12    26.88    29.17    33.25    34.90
eigval :       37.49    41.07    41.73    47.97    49.42    52.69
eigval :       54.94    55.98    56.82    61.52    67.89    76.73
eigval :       81.89    82.79    86.60    89.20   108.27   126.91
eigval :      129.17   134.37   142.89   145.23   152.20   157.49
eigval :      162.18   173.94   179.10   180.79   181.85   184.99
eigval :      191.50   199.22   202.05   204.46   213.86   215.71
eigval :      218.99   224.17   229.05   236.40   239.78   241.71
eigval :      252.40   257.37   262.42   269.46   278.05   280.84
eigval :      294.93   297.24   303.27   307.20   308.40   314.43
eigval :      318.60   320.34   320.71   325.95   329.61   332.72
eigval :      334.03   341.29   346.35   350.42   354.89   359.17
eigval :      365.55   366.00   367.70   369.84   371.17   381.23
eigval :      383.69   384.29   385.37   389.33   391.87   393.60
eigval :      428.41   429.87   432.33   433.99   440.44   446.58
eigval :      448.06   450.97   452.78   458.04   458.37   478.21
eigval :      478.51   480.59   482.93   493.94   509.67   518.77
eigval :      530.22   531.01   543.29   543.94   556.17   559.30
eigval :      583.43   595.56   596.82   600.98   607.09   609.24
eigval :      613.17   614.23   619.10   620.00   625.80   626.08
eigval :      642.78   658.13   660.59   667.09   676.99   680.14
eigval :      689.40   691.43   692.44   698.19   704.50   717.85
eigval :      718.49   725.86   728.80   730.33   735.50   786.95
eigval :      787.19   801.26   803.92   805.70   811.36   816.29
eigval :      818.17   819.18   822.07   830.60   831.18   870.09
eigval :      871.28   871.75   872.31   875.74   881.35   884.88
eigval :      887.09   888.35   889.75   892.67   903.66   909.62
eigval :      910.13   910.60   910.81   911.16   913.22   913.47
eigval :      915.16   916.24   917.27   919.84   920.62   926.28
eigval :      930.67   931.46   931.71   932.96   944.99   947.57
eigval :      958.76   959.40   959.73   960.32   960.54   961.64
eigval :      961.97   962.44   962.93   963.64   963.69   963.78
eigval :      964.40   965.03   966.72   967.30  1008.79  1011.01
eigval :     1012.85  1014.38  1015.78  1019.07  1031.43  1032.28
eigval :     1033.06  1033.56  1034.60  1035.46  1035.79  1035.91
eigval :     1036.19  1037.01  1039.13  1097.34  1097.83  1115.99
eigval :     1116.17  1127.50  1127.73  1139.82  1140.23  1143.28
eigval :     1144.28  1144.59  1146.10  1150.16  1179.67  1180.50
eigval :     1186.15  1191.20  1192.07  1194.91  1196.15  1198.52
eigval :     1199.03  1199.51  1202.10  1213.61  1225.74  1226.66
eigval :     1227.16  1227.32  1228.19  1231.13  1233.63  1234.33
eigval :     1235.26  1236.16  1236.78  1237.57  1245.39  1248.41
eigval :     1254.71  1258.25  1261.76  1269.45  1270.29  1272.57
eigval :     1277.55  1279.92  1284.14  1284.48  1285.08  1285.50
eigval :     1289.39  1289.68  1299.65  1299.98  1314.97  1326.41
eigval :     1328.83  1329.82  1329.92  1330.32  1344.51  1375.23
eigval :     1375.92  1400.52  1401.59  1402.71  1403.26  1404.28
eigval :     1404.62  1405.48  1406.51  1406.76  1407.17  1407.45
eigval :     1408.49  1415.60  1416.86  1419.36  1422.23  1428.41
eigval :     1430.04  1430.29  1431.79  1434.02  1434.22  1449.37
eigval :     1449.77  1453.36  1453.76  1474.42  1474.76  1483.42
eigval :     1484.80  1486.27  1487.09  1487.25  1492.36  1492.38
eigval :     1493.02  1494.69  1495.05  1497.11  1497.46  1499.31
eigval :     1501.57  1501.66  1502.00  1503.78  1506.08  1506.10
eigval :     1508.03  1509.84  1514.78  1514.93  1515.20  1516.85
eigval :     1520.14  1520.20  1520.65  1524.99  1561.53  1566.94
eigval :     1569.69  1571.38  1574.73  1576.95  1577.18  1578.75
eigval :     1579.00  1595.02  1595.06  1600.07  1602.55  1606.26
eigval :     1606.85  1610.93  1611.80  1612.24  2994.75  3014.90
eigval :     3020.55  3021.30  3021.75  3022.13  3023.00  3023.37
eigval :     3023.47  3024.38  3024.91  3025.85  3026.13  3026.37
eigval :     3027.37  3029.30  3029.40  3029.45  3030.20  3030.62
eigval :     3031.36  3031.49  3035.27  3035.36  3035.46  3038.28
eigval :     3038.54  3038.82  3039.49  3040.46  3040.82  3041.26
eigval :     3045.48  3045.84  3047.38  3048.32  3049.00  3049.71
eigval :     3049.86  3051.08  3054.83  3058.41  3058.86  3070.15
eigval :     3072.76  3072.89  3073.09  3073.18  3073.55  3076.53
eigval :     3077.03  3080.15  3080.71  3081.50  3083.23  3085.78
eigval :     3086.18  3088.01  3088.44  3089.05  3089.96  3090.12
eigval :     3090.27  3091.90  3093.28  3096.61  3099.31  3111.07
eigval :     3113.16  3113.67  3114.48

   temp. (K)  partition function   enthalpy   heat capacity  entropy
                                   cal/mol     cal/K/mol   cal/K/mol   J/K/mol
 298.15  VIB  0.989E+35            42403.276    255.045    267.848
         ROT  0.270E+09              888.752      2.981     41.562
         INT  0.267E+44            43292.029    258.025    309.410
         TR   0.291E+29             1481.254      4.968     46.458
         TOT                       44773.2827   262.9935   355.8686  1488.9542

       T/K    H(0)-H(T)+PV         H(T)/Eh          T*S/Eh         G(T)/Eh
   ------------------------------------------------------------------------
    298.15    0.713508E-01    0.127247E+01    0.169085E+00    0.110338E+01
   ------------------------------------------------------------------------

         :::::::::::::::::::::::::::::::::::::::::::::::::::::
         ::                  THERMODYNAMIC                  ::
         :::::::::::::::::::::::::::::::::::::::::::::::::::::
         :: total free energy        -196.020575454475 Eh   ::
         ::.................................................::
         :: total energy             -197.123958588547 Eh   ::
         :: zero point energy           1.201117015551 Eh   ::
         :: G(RRHO) w/o ZPVE           -0.097733881479 Eh   ::
         :: G(RRHO) contrib.            1.103383134073 Eh   ::
         :::::::::::::::::::::::::::::::::::::::::::::::::::::

           -------------------------------------------------
          | TOTAL ENERGY             -197.123958588547 Eh   |
          | TOTAL ENTHALPY           -195.851490805281 Eh   |
          | TOTAL FREE ENERGY        -196.020575454475 Eh   |
          | GRADIENT NORM               0.000050610779 Eh/α |
          | HOMO-LUMO GAP               2.556382571564 eV   |
           -------------------------------------------------

 * finished run on 2025/08/23 at 03:17:56.222
