   * xtb version 6.7.1 (edcfbbe) compiled by 'albert@albert-system' on 2024-07-22

   ID    Z sym.   atoms
    1    7 N      1, 9, 36, 38, 51
    2    6 C      2-8, 10-15, 17-35, 37, 39-50, 52
    3   14 Si     16
    4    1 H      53-83

          program call               : xtb data2507/gas/SiTCNCz/SiTCNCz_gas_T1_crest.xyz --gfn 2 --spinpol --tblite --uhf 2 --ohess vtight --parallel 40 --molden --ceasefiles --namespace data2507/gas/SiTCNCz/SiTCNCz_gas_T1_finalOpt
 * total energy  :  -130.5380312 Eh     change       -0.5752383E-08 Eh
 * total energy  :  -130.5380982 Eh     change       -0.6705776E-04 Eh
 * total energy  :  -130.5381282 Eh     change       -0.2998446E-04 Eh
 * total energy  :  -130.5381389 Eh     change       -0.1070229E-04 Eh
 * total energy  :  -130.5381526 Eh     change       -0.1370862E-04 Eh
 * total energy  :  -130.5381564 Eh     change       -0.3727509E-05 Eh
 * total energy  :  -130.5381609 Eh     change       -0.4502221E-05 Eh
 * total energy  :  -130.5381620 Eh     change       -0.1188218E-05 Eh
 * total energy  :  -130.5381638 Eh     change       -0.1717438E-05 Eh
 * total energy  :  -130.5381653 Eh     change       -0.1488535E-05 Eh
 * total energy  :  -130.5381690 Eh     change       -0.5927236E-06 Eh
 * total energy  :  -130.5381694 Eh     change       -0.4621593E-06 Eh
 * total energy  :  -130.5381693 Eh     change        0.1083523E-06 Eh
 * total energy  :  -130.5381697 Eh     change       -0.3501387E-06 Eh
 * total energy  :  -130.5381702 Eh     change       -0.5868312E-06 Eh
 * total energy  :  -130.5381706 Eh     change       -0.3816502E-06 Eh
 * total energy  :  -130.5381710 Eh     change       -0.3910870E-06 Eh
 * total energy  :  -130.5381713 Eh     change       -0.3170465E-06 Eh
 * total energy  :  -130.5381713 Eh     change       -0.9024546E-08 Eh
   *** GEOMETRY OPTIMIZATION CONVERGED AFTER 22 ITERATIONS ***

 final structure:
================
83
 xtb: 6.7.1 (edcfbbe)
N            6.00917903170517       -6.77554989307316       -0.03763488685896
C            6.03775653538516       -5.63126614381862        0.03302884105560
C            6.08047283695912       -4.22072894797617        0.12076023061035
C            7.31793018199765       -3.57011846483378        0.21286434435887
C            7.34667758435919       -2.18756216391897        0.30295580345067
C            6.17863853926050       -1.45588319067727        0.29750771706120
C            4.93091125570286       -2.09879775728664        0.19897706994968
C            3.71293838359042       -1.34996078954728        0.18863794793812
N            2.54315952208895       -1.97662350454307        0.18544312746322
C            1.42385138047650       -1.28746220471181        0.19177435658495
C            0.14452075764240       -1.93765016021329        0.13967204746204
C            0.01515905792824       -3.33192126085826        0.13592131447714
C           -1.23615888054373       -3.90289989033548        0.04404561264741
C           -2.37214217852821       -3.10958059437429       -0.04881571057083
C           -2.26514164293733       -1.72040550622909       -0.03890308517502
Si          -3.79099596535339       -0.58940900474302       -0.13855415973521
C           -4.53420466795010       -0.42737544708314        1.59730853815099
C           -3.74713951042360       -0.58778566128056        2.73373242406063
C           -4.28449798268158       -0.44047910994380        3.99977657615212
C           -5.62519354144571       -0.12841349557630        4.15104969160621
C           -6.42308422694072        0.03456888840751        3.03074092497797
C           -5.88001411741196       -0.11414217942829        1.76750528328513
C           -5.07198200538146       -1.34207296962553       -1.31262974715105
C           -5.19280509492064       -0.90574544131690       -2.62860207744173
C           -6.12415960103251       -1.46786030051511       -3.48292233100667
C           -6.95324570747911       -2.48207093247150       -3.03407076678565
C           -6.84845533720444       -2.92668123409689       -1.72644582620935
C           -5.91618241363393       -2.36028682842114       -0.87680323471857
C           -3.23452882342317        1.12010087755651       -0.74128039346750
C           -3.74141714832594        2.28152405872672       -0.16653038096757
C           -3.31839768645769        3.52990071175433       -0.58682630686136
C           -2.36747712156538        3.63981639505283       -1.58680263785555
C           -1.85646382370055        2.49502111749919       -2.17435578399238
C           -2.29272272661494        1.25026446426423       -1.75891697816122
C           -1.01186769053126       -1.15225012518796        0.06234830954491
N            1.45538423927414        0.08481594341356        0.19693543300574
C            2.63181055131398        0.68651086353075        0.18180923866433
N            2.65139965486443        2.05409908452756        0.14628516040886
C            3.70939942783520        2.84746224015008       -0.28814714117012
C            4.96317625931135        2.47679100809639       -0.74190271668022
C            5.83429208133927        3.48188636648542       -1.12579841585572
C            5.46262020273887        4.82111628019857       -1.07386889298226
C            4.20320113773519        5.19379668504077       -0.64005040625794
C            3.31712715450205        4.20233513228763       -0.24687073214058
C            1.96132708451647        4.22871756600186        0.24120992188061
C            1.06538997019581        5.25545585622989        0.49803957579145
C           -0.18271222075687        4.93430561193262        1.00021269693634
C           -0.53268773367048        3.61333812913513        1.25674021958333
C            0.34659274607256        2.57513857315376        1.00471128706867
C            1.58675186926671        2.88894447572033        0.47623510709919
N            3.76750567084477        0.02596671416659        0.18971931116192
C            4.89848287062418       -3.49768173330279        0.11393827401413
H            8.22944910046903       -4.14796174079534        0.21556832294350
H            8.29686526194691       -1.67935150638434        0.38027728676983
H            6.20342552939584       -0.38070621916147        0.38278002699084
H            0.90361607752034       -3.94092359975127        0.20034603098667
H           -1.33525074579365       -4.97887191435206        0.03802590099259
H           -3.34400334256270       -3.57152449049656       -0.13587686915960
H           -2.70108812979419       -0.83599043492372        2.62089393804783
H           -3.65825056434710       -0.57019508213505        4.87081651470080
H           -6.04768595208170       -0.01437698361946        5.13880225688225
H           -7.47014418441198        0.27737301816928        3.14316026462849
H           -6.50747675155514        0.01117244842593        0.89604734012739
H           -4.55197752805720       -0.11099044860144       -2.98313694829979
H           -6.20492323002884       -1.11490399137923       -4.50106845154831
H           -7.68029490802484       -2.92351627908968       -3.70009253294045
H           -7.49580486920721       -3.71515851402679       -1.36996016702099
H           -5.84612146992271       -2.70463607057824        0.14573579077829
H           -4.47383545703958        2.20264366147038        0.62471810746548
H           -3.72598686181878        4.42003012475342       -0.12908578901851
H           -2.02479406946237        4.61296316358958       -1.90667643325055
H           -1.11588353984037        2.57389287121523       -2.95736110632452
H           -1.89139876868248        0.36187363798469       -2.22634222241473
H           -0.89440950142940       -0.07938312712875        0.06139649355687
H            5.24391331237158        1.43743252556718       -0.79737866807519
H            6.82007207506351        3.21887960234795       -1.47867084787168
H            6.16709816445638        5.57795663464165       -1.38456861145362
H            3.91212138627520        6.23252621455874       -0.60749998318195
H            1.34282892268663        6.28211643303190        0.31375213129142
H           -0.89318114387734        5.71959979337310        1.21005358237354
H           -1.50554212796653        3.38919661788126        1.66636595365625
H            0.07878492793334        1.55482827178203        1.22394102969549
H            3.94638565596867       -4.00048627491728        0.04059596806573

 projected vibrational frequencies (cm⁻¹)
eigval :       -0.00    -0.00    -0.00     0.00     0.00     0.00
eigval :        5.54     9.39    12.62    21.04    21.56    26.44
eigval :       28.68    31.89    36.28    38.90    43.56    45.65
eigval :       47.56    53.09    58.78    76.05    86.83    97.46
eigval :      111.40   116.67   135.19   141.60   146.60   156.74
eigval :      160.73   167.28   174.64   178.24   188.51   192.92
eigval :      211.43   214.68   219.90   225.25   226.45   231.98
eigval :      263.45   274.34   288.48   313.01   355.34   356.36
eigval :      358.02   360.63   362.55   375.42   385.78   393.49
eigval :      402.06   409.65   417.90   420.74   425.88   431.79
eigval :      440.29   446.16   475.32   477.87   478.10   502.60
eigval :      513.79   518.14   537.74   538.73   541.30   564.33
eigval :      573.03   585.74   588.60   588.99   589.43   594.03
eigval :      606.60   625.50   640.05   640.94   642.94   648.51
eigval :      661.01   662.18   662.50   663.07   675.62   689.96
eigval :      704.65   706.60   711.83   725.47   734.84   736.06
eigval :      736.26   754.27   770.21   773.82   776.84   780.53
eigval :      807.09   860.18   866.01   869.04   872.21   874.04
eigval :      878.78   881.67   882.34   885.78   887.90   903.64
eigval :      905.02   906.57   907.23   909.98   912.50   919.07
eigval :      919.55   922.01   922.97   931.92   932.58   933.49
eigval :      934.52   935.70   937.79   954.57   966.25   974.96
eigval :      975.42   975.78   980.21  1011.07  1015.45  1062.77
eigval :     1066.35  1068.48  1084.63  1085.35  1086.03  1089.98
eigval :     1106.98  1114.96  1121.13  1121.40  1122.93  1123.72
eigval :     1139.14  1143.69  1145.17  1146.07  1146.86  1153.72
eigval :     1171.38  1177.27  1180.49  1182.37  1182.57  1182.94
eigval :     1186.41  1197.56  1206.64  1207.03  1210.05  1217.41
eigval :     1224.18  1248.70  1249.28  1263.11  1279.69  1286.82
eigval :     1287.75  1290.52  1290.87  1294.01  1311.10  1311.96
eigval :     1312.42  1323.39  1334.64  1346.92  1352.48  1359.59
eigval :     1366.56  1372.11  1391.82  1408.63  1416.71  1418.29
eigval :     1419.20  1419.82  1420.75  1425.94  1447.17  1462.71
eigval :     1463.26  1464.40  1467.54  1469.03  1480.78  1528.28
eigval :     1529.70  1551.11  1559.95  1572.12  1574.73  1575.70
eigval :     1576.63  1586.60  1588.78  1589.67  1592.42  1593.03
eigval :     1604.58  2373.79  3062.17  3064.01  3064.21  3064.24
eigval :     3065.14  3067.26  3072.36  3072.61  3073.12  3073.52
eigval :     3077.55  3078.36  3078.45  3079.20  3083.43  3084.36
eigval :     3086.82  3087.57  3088.02  3088.39  3089.79  3090.77
eigval :     3093.51  3097.29  3097.60  3098.60  3100.48  3100.55
eigval :     3102.60  3106.06  3112.16

   temp. (K)  partition function   enthalpy   heat capacity  entropy
                                   cal/mol     cal/K/mol   cal/K/mol   J/K/mol
 298.15  VIB  0.302E+23            26157.975    155.763    166.611
         ROT  0.105E+09              888.752      2.981     39.675
         INT  0.316E+31            27046.728    158.744    206.286
         TR   0.172E+29             1481.254      4.968     45.419
         TOT                       28527.9816   163.7121   251.7055  1053.1357

       T/K    H(0)-H(T)+PV         H(T)/Eh          T*S/Eh         G(T)/Eh
   ------------------------------------------------------------------------
    298.15    0.454622E-01    0.665318E+00    0.119593E+00    0.545724E+00
   ------------------------------------------------------------------------

         :::::::::::::::::::::::::::::::::::::::::::::::::::::
         ::                  THERMODYNAMIC                  ::
         :::::::::::::::::::::::::::::::::::::::::::::::::::::
         :: total free energy        -129.992446962228 Eh   ::
         ::.................................................::
         :: total energy             -130.538171345010 Eh   ::
         :: zero point energy           0.619855548221 Eh   ::
         :: G(RRHO) w/o ZPVE           -0.074131165439 Eh   ::
         :: G(RRHO) contrib.            0.545724382781 Eh   ::
         :::::::::::::::::::::::::::::::::::::::::::::::::::::

           -------------------------------------------------
          | TOTAL ENERGY             -130.538171345010 Eh   |
          | TOTAL ENTHALPY           -129.872853564293 Eh   |
          | TOTAL FREE ENERGY        -129.992446962228 Eh   |
          | GRADIENT NORM               0.000101600060 Eh/α |
           -------------------------------------------------

 * finished run on 2025/08/30 at 19:16:33.892
