   * xtb version 6.7.1 (edcfbbe) compiled by 'albert@albert-system' on 2024-07-22

   ID    Z sym.   atoms
    1    7 N      1, 9, 36, 38, 51
    2    6 C      2-8, 10-15, 17-35, 37, 39-50, 52
    3   14 Si     16
    4    1 H      53-83

          program call               : xtb data2507/gas/SiTCNCz/SiTCNCz_gas_S0_finalOpt.xtbopt.xyz --gfn 2 --spinpol --tblite --uhf 2 --ohess vtight --parallel 40 --molden --ceasefiles --namespace data2507/gas/SiTCNCz/SiTCNCz_gas_T1_preOpt
 * total energy  :  -130.5307715 Eh     change       -0.1360803E-08 Eh
 * total energy  :  -130.5355815 Eh     change       -0.4810059E-02 Eh
 * total energy  :  -130.5374698 Eh     change       -0.1888304E-02 Eh
 * total energy  :  -130.5375376 Eh     change       -0.6770620E-04 Eh
 * total energy  :  -130.5376547 Eh     change       -0.1171936E-03 Eh
 * total energy  :  -130.5377237 Eh     change       -0.6896345E-04 Eh
 * total energy  :  -130.5377560 Eh     change       -0.3232798E-04 Eh
 * total energy  :  -130.5377898 Eh     change       -0.3372991E-04 Eh
 * total energy  :  -130.5378039 Eh     change       -0.1409347E-04 Eh
 * total energy  :  -130.5378350 Eh     change       -0.3112208E-04 Eh
 * total energy  :  -130.5379576 Eh     change       -0.1970721E-06 Eh
 * total energy  :  -130.5379575 Eh     change        0.1939202E-07 Eh
 * total energy  :  -130.5379577 Eh     change       -0.1956274E-06 Eh
 * total energy  :  -130.5379577 Eh     change        0.4645116E-07 Eh
 * total energy  :  -130.5379578 Eh     change       -0.1409559E-06 Eh
 * total energy  :  -130.5379578 Eh     change        0.1665643E-07 Eh
 * total energy  :  -130.5379579 Eh     change       -0.1302468E-06 Eh
 * total energy  :  -130.5379581 Eh     change       -0.1284428E-06 Eh
 * total energy  :  -130.5379581 Eh     change       -0.6602247E-07 Eh
   *** GEOMETRY OPTIMIZATION CONVERGED AFTER 56 ITERATIONS ***

 final structure:
================
83
 xtb: 6.7.1 (edcfbbe)
N            5.72337725606854       -6.93483289533911        0.35537622409283
C            5.80565375053774       -5.79107868853424        0.33590076377180
C            5.91523838613760       -4.38166864730494        0.31252129644545
C            7.18353639525851       -3.78669953959226        0.28573124029778
C            7.27863334079293       -2.40419956696142        0.26659585894049
C            6.14591156732906       -1.61914568449900        0.26966323593452
C            4.86724396779581       -2.20661583184443        0.29087404462046
C            3.68630798986968       -1.40201934753565        0.28798954546615
N            2.48973638933910       -1.96513079665911        0.40273849428704
C            1.40494197313437       -1.22398337977431        0.38910819426979
C            0.09991357649768       -1.81922228681273        0.48005546150741
C           -0.06628678593254       -3.17405305831121        0.79155818680835
C           -1.33417657201450       -3.70815510431252        0.87593175799172
C           -2.44848888531786       -2.91622713670320        0.63674604443274
C           -2.30278806347816       -1.57063276020006        0.30071734715004
Si          -3.82720836802010       -0.52219505252134       -0.12751239836657
C           -5.13108828340339       -0.81020138488920        1.21719454690395
C           -4.76285576336309       -0.84474684318798        2.55974594838095
C           -5.70617787024063       -1.03290827113681        3.55314220136337
C           -7.04076713446733       -1.19275580546208        3.21862535435408
C           -7.42333919081265       -1.16478626607149        1.88812864859135
C           -6.47515148407897       -0.97553373558125        0.89865514806840
C           -4.49595159542830       -1.04440436072361       -1.82283991166223
C           -5.35772967957994       -0.19689686411186       -2.51532906627859
C           -5.88393137783885       -0.56073653016850       -3.74106556004218
C           -5.55249037827285       -1.78341443224865       -4.30121358597623
C           -4.69074518274115       -2.63440470167482       -3.63025637524882
C           -4.16897869097826       -2.26568591581556       -2.40309287374704
C           -3.38165980383852        1.31698816479780       -0.23000768576037
C           -3.91922737583653        2.24950530961774        0.65138515646682
C           -3.62122458530669        3.59565145445020        0.53382081495351
C           -2.76671980051813        4.03247401023757       -0.46435536296691
C           -2.21614125808383        3.11694519294468       -1.34548448219330
C           -2.52882120005499        1.77515829246032       -1.23165704115496
C           -1.03361179550766       -1.03286898334605        0.23842816840065
N            1.49463903462663        0.13957845123151        0.26166223289364
C            2.69870279981842        0.67888859914769        0.18603771251660
N            2.78704585079877        2.04222931487942        0.10391890111484
C            3.86991678478637        2.76533008067445       -0.38401889813957
C            5.06086996802632        2.31317876618540       -0.92554931827871
C            5.97781191140074        3.26027107256243       -1.34800767009808
C            5.71033478101333        4.62163984322290       -1.24885142540630
C            4.51266043102348        5.07628344847647       -0.72656149765614
C            3.58229635420445        4.14405857592250       -0.29325359279216
C            2.26776937116497        4.25712497761994        0.28720342944283
C            1.47447783912218        5.33944850971861        0.63636170524212
C            0.24633665891656        5.09624290082806        1.22467141472585
C           -0.18799251008008        3.79755309756326        1.46613403540962
C            0.58489563226936        2.70384557298152        1.11746602269685
C            1.80889749305478        2.94252741090312        0.51653363731578
N            3.80211758327214       -0.03377605744544        0.18619706015924
C            4.76789907599049       -3.60483165538073        0.31537611550049
H            8.06721340174297       -4.40629050481713        0.28264338724827
H            8.25331011883665       -1.93847413910279        0.25106167657142
H            6.22222963512598       -0.54294588353690        0.26882616747273
H            0.80782815812335       -3.78029423240165        0.97275611755073
H           -1.46268425212121       -4.75071975262899        1.12926894659014
H           -3.43816007136726       -3.34263806975011        0.71435180587726
H           -3.72146445797038       -0.72554616172466        2.82474078317279
H           -5.40205903734216       -1.05664590141593        4.58984834566570
H           -7.77969300872388       -1.34137162052925        3.99260641039453
H           -8.46292082874028       -1.29176864263869        1.62187411652062
H           -6.77876513153541       -0.95838615662825       -0.13840949024885
H           -5.61340458990637        0.76190608907211       -2.08566318665806
H           -6.55261561334702        0.10949748032117       -4.26220564259194
H           -5.96177253458380       -2.06990289535213       -5.25909713089679
H           -4.42477508643341       -3.58720751722094       -4.06512223617015
H           -3.49253304872997       -2.93294144820017       -1.88836281727680
H           -4.58600086184957        1.91411301341870        1.43347307025421
H           -4.05669756508852        4.30639272609646        1.22217041418501
H           -2.52974727076021        5.08222861104206       -0.55680730293367
H           -1.54690050284595        3.45286520908546       -2.12442495918433
H           -2.11384617137730        1.06831836134987       -1.93665560939048
H           -0.88782418365482        0.00683871834397       -0.01396777708767
H            5.25991920630349        1.25750820625415       -1.01653202467203
H            6.91671173225201        2.93419418988571       -1.76939641987430
H            6.44752408945288        5.33161100794597       -1.59253403124870
H            4.30302642150401        6.13266910952355       -0.65707018268147
H            1.81584085400265        6.34788813071774        0.45903550721974
H           -0.38176867161201        5.92563001503359        1.51326819314774
H           -1.14330864752912        3.63480611512740        1.94030694408634
H            0.24935684345394        1.69871327850549        1.31555252856577
H            3.79169773551850       -4.06477034159670        0.33232879304328

 projected vibrational frequencies (cm⁻¹)
eigval :       -0.00    -0.00    -0.00     0.00     0.00     0.00
eigval :        6.14    10.71    13.34    15.31    22.33    26.11
eigval :       27.57    30.50    36.15    37.10    40.75    42.72
eigval :       46.55    53.39    62.61    74.21    85.45    98.54
eigval :      114.05   118.83   134.60   142.58   145.09   155.58
eigval :      163.05   170.20   175.21   181.42   182.30   190.75
eigval :      210.89   214.32   219.56   221.20   226.75   233.25
eigval :      264.40   274.85   290.53   312.72   353.83   356.38
eigval :      357.47   358.98   360.29   371.48   387.70   393.31
eigval :      402.09   411.98   415.60   421.01   425.60   431.76
eigval :      439.11   447.60   473.06   476.37   481.42   503.40
eigval :      513.54   517.80   537.33   538.56   542.14   564.03
eigval :      573.97   585.56   588.60   589.09   589.40   594.98
eigval :      606.28   624.99   640.83   641.76   644.86   650.41
eigval :      660.87   661.58   662.40   663.18   675.69   691.73
eigval :      703.19   706.16   711.83   725.48   734.74   735.45
eigval :      735.53   754.32   771.09   776.30   778.22   781.83
eigval :      807.93   859.86   867.45   868.64   872.51   877.44
eigval :      879.76   881.33   884.34   885.89   888.00   904.30
eigval :      905.04   905.90   907.64   907.97   912.23   918.81
eigval :      921.60   922.63   924.43   931.05   932.77   933.70
eigval :      934.15   934.83   934.98   953.17   965.76   974.70
eigval :      974.89   975.97   980.61  1011.06  1015.07  1059.82
eigval :     1065.62  1068.48  1084.33  1085.25  1085.45  1090.17
eigval :     1107.94  1114.68  1120.73  1121.61  1122.48  1123.40
eigval :     1138.88  1143.56  1144.42  1144.49  1146.77  1153.92
eigval :     1171.84  1176.66  1180.38  1182.17  1182.28  1182.93
eigval :     1186.02  1197.10  1206.51  1207.10  1209.46  1217.56
eigval :     1225.00  1249.16  1249.64  1263.00  1279.93  1287.04
eigval :     1288.04  1289.43  1290.48  1293.62  1311.17  1311.43
eigval :     1312.18  1322.53  1334.58  1345.99  1352.70  1359.54
eigval :     1367.97  1372.08  1392.26  1408.73  1416.26  1418.74
eigval :     1419.16  1420.14  1420.66  1426.07  1447.10  1463.20
eigval :     1463.89  1464.30  1467.16  1468.07  1480.60  1527.80
eigval :     1530.72  1551.66  1559.70  1571.28  1575.25  1575.67
eigval :     1575.99  1585.90  1588.45  1589.88  1591.00  1592.98
eigval :     1603.94  2373.40  3061.43  3062.96  3063.43  3063.62
eigval :     3067.26  3068.02  3069.43  3072.37  3073.00  3073.09
eigval :     3077.34  3078.21  3079.14  3079.29  3080.10  3083.38
eigval :     3083.43  3084.18  3087.63  3087.84  3088.40  3090.92
eigval :     3094.06  3097.06  3097.50  3098.59  3099.69  3099.97
eigval :     3102.03  3105.71  3108.16

   temp. (K)  partition function   enthalpy   heat capacity  entropy
                                   cal/mol     cal/K/mol   cal/K/mol   J/K/mol
 298.15  VIB  0.374E+23            26173.519    155.580    166.589
         ROT  0.108E+09              888.752      2.981     39.736
         INT  0.403E+31            27062.271    158.561    206.325
         TR   0.172E+29             1481.254      4.968     45.419
         TOT                       28543.5253   163.5290   251.7440  1053.2969

       T/K    H(0)-H(T)+PV         H(T)/Eh          T*S/Eh         G(T)/Eh
   ------------------------------------------------------------------------
    298.15    0.454870E-01    0.665251E+00    0.119612E+00    0.545639E+00
   ------------------------------------------------------------------------

         :::::::::::::::::::::::::::::::::::::::::::::::::::::
         ::                  THERMODYNAMIC                  ::
         :::::::::::::::::::::::::::::::::::::::::::::::::::::
         :: total free energy        -129.992318866573 Eh   ::
         ::.................................................::
         :: total energy             -130.537958166737 Eh   ::
         :: zero point energy           0.619763989804 Eh   ::
         :: G(RRHO) w/o ZPVE           -0.074124689641 Eh   ::
         :: G(RRHO) contrib.            0.545639300164 Eh   ::
         :::::::::::::::::::::::::::::::::::::::::::::::::::::

           -------------------------------------------------
          | TOTAL ENERGY             -130.537958166737 Eh   |
          | TOTAL ENTHALPY           -129.872707173940 Eh   |
          | TOTAL FREE ENERGY        -129.992318866573 Eh   |
          | GRADIENT NORM               0.000126626945 Eh/α |
           -------------------------------------------------

 * finished run on 2025/08/30 at 19:02:13.017
