   * xtb version 6.7.1 (edcfbbe) compiled by 'albert@albert-system' on 2024-07-22

   ID    Z sym.   atoms
    1    7 N      1, 9, 36, 38, 51
    2    6 C      2-8, 10-15, 17-35, 37, 39-50, 52
    3   14 Si     16
    4    1 H      53-83

          program call               : xtb data2507/gas/SiTCNCz/SiTCNCz_gas_S0_crest.xyz --gfn 2 --ohess vtight --parallel 40 --molden --ceasefiles --namespace data2507/gas/SiTCNCz/SiTCNCz_gas_S0_finalOpt
          :  Hamiltonian                  GFN2-xTB          :
 * total energy  :  -130.6185710 Eh     change       -0.4235119E-09 Eh
 * total energy  :  -130.6185718 Eh     change       -0.8269418E-06 Eh
 * total energy  :  -130.6185684 Eh     change        0.3362016E-05 Eh
 * total energy  :  -130.6185735 Eh     change       -0.5040710E-05 Eh
 * total energy  :  -130.6185741 Eh     change       -0.6432414E-06 Eh
 * total energy  :  -130.6185753 Eh     change       -0.1168260E-05 Eh
 * total energy  :  -130.6185778 Eh     change       -0.2538531E-05 Eh
 * total energy  :  -130.6185802 Eh     change       -0.2357701E-05 Eh
 * total energy  :  -130.6185819 Eh     change       -0.1689227E-05 Eh
 * total energy  :  -130.6185831 Eh     change       -0.1249053E-05 Eh
 * total energy  :  -130.6185851 Eh     change       -0.3855322E-06 Eh
 * total energy  :  -130.6185856 Eh     change       -0.5234854E-06 Eh
 * total energy  :  -130.6185861 Eh     change       -0.4521100E-06 Eh
 * total energy  :  -130.6185865 Eh     change       -0.3966474E-06 Eh
 * total energy  :  -130.6185868 Eh     change       -0.3668546E-06 Eh
 * total energy  :  -130.6185871 Eh     change       -0.2729388E-06 Eh
 * total energy  :  -130.6185873 Eh     change       -0.2129504E-06 Eh
 * total energy  :  -130.6185875 Eh     change       -0.2364925E-06 Eh
 * total energy  :  -130.6185875 Eh     change       -0.4123251E-08 Eh
   *** GEOMETRY OPTIMIZATION CONVERGED AFTER 22 ITERATIONS ***

 final structure:
================
83
 xtb: 6.7.1 (edcfbbe)
N            5.64638729944684       -6.92165845959779       -0.15519834524111
C            5.74043949915047       -5.78359053827594       -0.05794036727605
C            5.86554687350144       -4.37911463793377        0.06354039324504
C            7.13423285969814       -3.80086516087731        0.14599551066583
C            7.25252397295507       -2.42840124309387        0.26833640318934
C            6.12285299492769       -1.63032303590715        0.30563916871477
C            4.85530364347632       -2.20353153574495        0.21939941421003
C            3.65385373887213       -1.36310012920059        0.25809466693110
N            2.48296922848289       -1.96966555090733        0.41212613997428
C            1.41993396590501       -1.16859850228329        0.44228431604754
C            0.09411446024845       -1.76864899892470        0.56340228640918
C           -0.05340953362925       -3.09484940038057        0.96267769785676
C           -1.32102610299179       -3.63321453023330        1.07898145719945
C           -2.43439790172014       -2.86354896850833        0.78435809727008
C           -2.30752552420731       -1.54131243458265        0.36264658340223
Si          -3.83632558044772       -0.52341764725711       -0.10992535442689
C           -5.16443307268201       -0.80553643823636        1.21161146524170
C           -4.82027422120577       -0.82628856627822        2.56097409127542
C           -5.77938195773559       -1.01186237370106        3.53959414127795
C           -7.10711576179227       -1.18219447156889        3.18374847756241
C           -7.46657704487421       -1.16737052467712        1.84662317947213
C           -6.50225630091986       -0.98025697546631        0.87247149335341
C           -4.47116381560813       -1.08460574819115       -1.80558040917830
C           -5.31246564401948       -0.25399956606519       -2.54182415982965
C           -5.80827368179265       -0.64790525104663       -3.77100853041936
C           -5.46734484560956       -1.88590473701623       -4.29018840188535
C           -4.62685749700889       -2.72182035368146       -3.57476018591130
C           -4.13547737344155       -2.32232313939156       -2.34474982807332
C           -3.40914043702423        1.31850915864859       -0.22966687121360
C           -3.94263530135478        2.25186308094809        0.65322491157788
C           -3.64652407941758        3.59804638027174        0.53259552346997
C           -2.79843657480559        4.03468667950400       -0.47111593497503
C           -2.25365320235823        3.11887509933400       -1.35525033572328
C           -2.56433079688548        1.77689609999697       -1.23795024986957
C           -1.03273170248999       -1.00654514903787        0.26625528436120
N            1.48505133216127        0.15409432214923        0.36134756518986
C            2.69985045796694        0.67328595523559        0.21199056048747
N            2.80266319208068        2.03015885866166        0.13206320621968
C            3.90352210976049        2.74882309799955       -0.33843868974453
C            5.09996463103444        2.29838832650279       -0.86977556339886
C            6.01946162814517        3.24456015284066       -1.28979933957235
C            5.75872663002589        4.60673855768521       -1.19166968922238
C            4.55858268838170        5.06085706320883       -0.67843363764862
C            3.62429521684582        4.12835698509254       -0.25277173746649
C            2.30285290117546        4.25422287306217        0.30629730857021
C            1.52655686440299        5.35310619702622        0.64380461068917
C            0.28594976060378        5.13502096960233        1.21197332867649
C           -0.17200909693343        3.84330340837184        1.44484030721870
C            0.58227792485394        2.73429603384411        1.10295062265031
C            1.82255883101012        2.94677854292887        0.52512019058821
N            3.81693601122125       -0.05210068833444        0.13778880757700
C            4.72549320449269       -3.58215992199461        0.10097493670017
H            8.01082372438649       -4.43116857720170        0.11534755884947
H            8.23210292026212       -1.97942760972137        0.33664557980752
H            6.20427425082104       -0.55982735518917        0.41100712267401
H            0.82628342457360       -3.67777886170317        1.18699759874910
H           -1.44332340325489       -4.65770851014189        1.39979516454280
H           -3.42207655375700       -3.29163366745817        0.88521570361820
H           -3.78444328907467       -0.69742683934110        2.84321148202702
H           -5.49320700665829       -1.02456834330670        4.58171777539051
H           -7.85857348427206       -1.32778150225296        3.94625641303801
H           -8.50079889062380       -1.30247035340776        1.56375711680238
H           -6.78785867527311       -0.97295421166668       -0.16988319447385
H           -5.57559391224263        0.71634449000877       -2.14379080266029
H           -6.46077906764135        0.01037958970903       -4.32682648342858
H           -5.85305419545785       -2.19641779664942       -5.25044011099426
H           -4.35394631718227       -3.68687232902763       -3.97743227589161
H           -3.47581902826534       -2.97843951622017       -1.79468123588070
H           -4.60435366841075        1.91682872466385        1.43981429078036
H           -4.07808799640199        4.30916214939340        1.22312572645492
H           -2.56200137327950        5.08440594051251       -0.56530351982488
H           -1.58944230909153        3.45451135481577       -2.13859325609015
H           -2.15402072266180        1.06999954742535       -1.94575735719977
H           -0.89489566348498        0.01538737765889       -0.05123204559622
H            5.30438721767708        1.24498722709368       -0.95713977446254
H            6.96010193279641        2.91457421397735       -1.70527110430944
H            6.50158131625396        5.31507371628018       -1.52698049695815
H            4.34648542356356        6.11704386846912       -0.61164425051995
H            1.89302979403691        6.35395527077438        0.47284107152672
H           -0.33318871109723        5.97566388308499        1.48785056951770
H           -1.13838854710051        3.69592884995522        1.90200847613240
H            0.21597595808753        1.73918503299388        1.28667860102399
H            3.74093535280386       -4.01883904414730        0.03596763325659

          :  Hamiltonian                  GFN2-xTB          :
         :: gradient norm              0.000184748452 Eh/a0 ::
         :: HOMO-LUMO gap              2.239303902289 eV    ::
         :: SCC energy              -133.074592269530 Eh    ::
         :: -> dispersion             -0.120746434971 Eh    ::
         :: repulsion energy           2.456004720563 Eh    ::

    * Orbital Energies and Occupations

         #    Occupation            Energy/Eh            Energy/eV
      -------------------------------------------------------------
         1        2.0000           -0.7576511             -20.6167
       ...           ...                  ...                  ...
       110        2.0000           -0.4067121             -11.0672
       111        2.0000           -0.4058500             -11.0437
       112        2.0000           -0.4041806             -10.9983
       113        2.0000           -0.4038031             -10.9880
       114        2.0000           -0.4033670             -10.9762
       115        2.0000           -0.4026575             -10.9569
       116        2.0000           -0.3900738             -10.6144
       117        2.0000           -0.3873561             -10.5405
       118        2.0000           -0.3863571             -10.5133
       119        2.0000           -0.3856309             -10.4936
       120        2.0000           -0.3824139             -10.4060
       121        2.0000           -0.3804788             -10.3534
       122        2.0000           -0.3776029             -10.2751 (HOMO)
       123                         -0.2953100              -8.0358 (LUMO)
       124                         -0.2800337              -7.6201
       125                         -0.2733646              -7.4386
       126                         -0.2527144              -6.8767
       127                         -0.2434548              -6.6247
       128                         -0.2389832              -6.5031
       129                         -0.2369579              -6.4480
       130                         -0.2356549              -6.4125
       131                         -0.2325885              -6.3291
       132                         -0.2282987              -6.2123
       133                         -0.2225449              -6.0558
       ...                                ...                  ...
       244                          1.1686087              31.7995
      -------------------------------------------------------------
                  HL-Gap            0.0822929 Eh            2.2393 eV

     #   Z          covCN         q      C6AA      α(0)
     1   7 N        0.911    -0.227    25.969     7.370
     2   6 C        1.912     0.114    28.300     8.591
     3   6 C        2.973     0.023    27.493     8.601
     4   6 C        2.926    -0.017    28.424     8.743
     5   6 C        2.917    -0.024    28.607     8.771
     6   6 C        2.923    -0.018    28.470     8.750
     7   6 C        2.984     0.006    27.891     8.663
     8   6 C        2.992     0.203    23.684     7.983
     9   7 N        1.844    -0.304    28.725     7.943
    10   6 C        2.989     0.205    23.651     7.978
    11   6 C        2.983    -0.001    28.054     8.688
    12   6 C        2.923    -0.022    28.563     8.764
    13   6 C        2.916    -0.028    28.695     8.784
    14   6 C        2.937    -0.025    28.622     8.774
    15   6 C        2.861    -0.093    30.325     9.026
    16  14 Si       3.614     0.486    98.236    19.025
    17   6 C        2.863    -0.093    30.340     9.029
    18   6 C        2.938    -0.030    28.761     8.796
    19   6 C        2.917    -0.029    28.729     8.789
    20   6 C        2.921    -0.028    28.693     8.784
    21   6 C        2.917    -0.029    28.723     8.788
    22   6 C        2.936    -0.032    28.791     8.800
    23   6 C        2.863    -0.093    30.324     9.026
    24   6 C        2.939    -0.030    28.758     8.795
    25   6 C        2.917    -0.029    28.725     8.789
    26   6 C        2.921    -0.028    28.689     8.784
    27   6 C        2.918    -0.029    28.720     8.788
    28   6 C        2.935    -0.031    28.784     8.799
    29   6 C        2.863    -0.093    30.325     9.026
    30   6 C        2.935    -0.032    28.793     8.800
    31   6 C        2.918    -0.029    28.717     8.788
    32   6 C        2.921    -0.026    28.645     8.777
    33   6 C        2.917    -0.028    28.688     8.783
    34   6 C        2.939    -0.029    28.720     8.789
    35   6 C        2.942    -0.029    28.723     8.790
    36   7 N        1.849    -0.313    28.951     7.975
    37   6 C        2.923     0.258    22.668     7.808
    38   7 N        2.808    -0.037    21.963     6.960
    39   6 C        3.054     0.053    26.755     8.483
    40   6 C        2.911    -0.045    29.115     8.848
    41   6 C        2.925    -0.032    28.790     8.799
    42   6 C        2.920    -0.036    28.898     8.815
    43   6 C        2.913    -0.032    28.798     8.800
    44   6 C        3.063    -0.010    28.198     8.708
    45   6 C        3.063    -0.010    28.212     8.710
    46   6 C        2.913    -0.032    28.807     8.801
    47   6 C        2.920    -0.035    28.874     8.812
    48   6 C        2.925    -0.030    28.748     8.793
    49   6 C        2.911    -0.044    29.094     8.845
    50   6 C        3.054     0.054    26.747     8.482
    51   7 N        1.846    -0.316    29.033     7.986
    52   6 C        2.931    -0.016    28.404     8.740
    53   1 H        0.926     0.048     2.346     2.395
    54   1 H        0.926     0.046     2.370     2.407
    55   1 H        0.926     0.063     2.166     2.301
    56   1 H        0.926     0.052     2.289     2.366
    57   1 H        0.926     0.037     2.490     2.467
    58   1 H        0.926     0.028     2.614     2.528
    59   1 H        0.925     0.020     2.739     2.588
    60   1 H        0.926     0.028     2.609     2.526
    61   1 H        0.926     0.029     2.594     2.518
    62   1 H        0.926     0.029     2.607     2.525
    63   1 H        0.926     0.021     2.711     2.575
    64   1 H        0.925     0.019     2.742     2.589
    65   1 H        0.926     0.028     2.608     2.526
    66   1 H        0.926     0.030     2.591     2.517
    67   1 H        0.926     0.029     2.603     2.523
    68   1 H        0.926     0.021     2.720     2.579
    69   1 H        0.926     0.021     2.718     2.578
    70   1 H        0.926     0.027     2.625     2.534
    71   1 H        0.926     0.029     2.597     2.520
    72   1 H        0.926     0.027     2.628     2.535
    73   1 H        0.925     0.020     2.730     2.584
    74   1 H        0.926     0.047     2.362     2.403
    75   1 H        0.926     0.055     2.263     2.353
    76   1 H        0.926     0.035     2.512     2.478
    77   1 H        0.926     0.034     2.528     2.486
    78   1 H        0.926     0.036     2.498     2.471
    79   1 H        0.926     0.036     2.497     2.471
    80   1 H        0.926     0.034     2.533     2.489
    81   1 H        0.926     0.036     2.496     2.471
    82   1 H        0.926     0.056     2.242     2.341
    83   1 H        0.926     0.067     2.121     2.277

molecular dipole:
                 x           y           z       tot (Debye)
 q only:       -0.442       1.279       0.082
   full:       -0.351       1.632       0.110       4.252

 projected vibrational frequencies (cm⁻¹)
eigval :       -0.00    -0.00    -0.00     0.00     0.00     0.00
eigval :        6.81    10.51    13.34    17.87    20.08    25.68
eigval :       27.72    30.51    36.57    37.98    41.94    43.55
eigval :       46.24    51.65    61.14    72.88    85.93    97.56
eigval :      112.22   123.17   133.68   143.24   149.96   155.75
eigval :      160.36   170.70   176.89   183.66   189.10   200.28
eigval :      215.21   215.84   219.11   220.24   228.27   237.63
eigval :      266.74   277.87   304.16   323.91   351.68   357.85
eigval :      359.07   360.71   377.59   382.01   393.07   397.86
eigval :      410.34   416.16   421.09   422.07   427.69   435.41
eigval :      438.92   450.53   477.23   480.17   486.98   514.56
eigval :      518.32   536.34   541.12   548.53   565.27   587.60
eigval :      589.08   589.61   589.89   614.97   622.63   626.41
eigval :      644.10   649.54   651.80   662.93   663.10   663.57
eigval :      666.89   675.39   680.05   687.97   705.50   708.72
eigval :      713.52   717.61   735.61   735.87   736.47   752.88
eigval :      764.03   768.42   775.70   784.93   799.62   805.11
eigval :      837.60   874.94   877.01   881.68   882.79   883.59
eigval :      890.97   896.26   899.51   905.14   905.51   907.05
eigval :      908.19   909.37   910.09   916.07   924.55   927.65
eigval :      931.08   932.44   933.30   933.40   934.42   934.77
eigval :      935.30   935.53   936.80   975.60   976.95   977.38
eigval :      983.18   991.80  1017.34  1023.77  1051.81  1069.58
eigval :     1074.90  1084.74  1085.81  1085.91  1106.06  1116.04
eigval :     1119.03  1121.15  1122.01  1122.99  1141.35  1145.24
eigval :     1146.40  1149.99  1150.46  1151.58  1171.64  1177.85
eigval :     1178.47  1182.74  1182.81  1183.30  1184.01  1191.73
eigval :     1207.14  1207.71  1210.28  1218.20  1224.38  1227.84
eigval :     1240.51  1249.27  1260.03  1269.15  1284.26  1287.66
eigval :     1288.49  1290.11  1298.65  1311.46  1311.65  1312.48
eigval :     1322.59  1323.09  1350.97  1356.20  1363.64  1373.81
eigval :     1408.86  1418.05  1419.60  1420.11  1421.46  1422.56
eigval :     1426.23  1450.14  1457.34  1464.19  1465.43  1465.74
eigval :     1470.63  1475.52  1483.54  1513.88  1528.62  1569.87
eigval :     1572.15  1576.53  1576.72  1577.30  1581.15  1582.22
eigval :     1584.69  1591.22  1593.53  1593.69  1594.80  1598.96
eigval :     1610.65  2378.55  3061.24  3061.42  3062.28  3062.56
eigval :     3065.61  3066.09  3066.24  3071.75  3071.81  3071.98
eigval :     3076.74  3077.58  3077.79  3079.63  3079.94  3080.51
eigval :     3085.04  3086.62  3087.02  3087.40  3088.56  3091.38
eigval :     3095.22  3096.92  3099.74  3100.08  3103.63  3108.33
eigval :     3108.85  3127.96  3133.47

   temp. (K)  partition function   enthalpy   heat capacity  entropy
                                   cal/mol     cal/K/mol   cal/K/mol   J/K/mol
 298.15  VIB  0.222E+23            25811.372    153.106    164.497
         ROT  0.108E+09              888.752      2.981     39.733
         INT  0.238E+31            26700.124    156.087    204.230
         TR   0.172E+29             1481.254      4.968     45.419
         TOT                       28181.3780   161.0553   249.6492  1044.5325

       T/K    H(0)-H(T)+PV         H(T)/Eh          T*S/Eh         G(T)/Eh
   ------------------------------------------------------------------------
    298.15    0.449099E-01    0.669769E+00    0.118616E+00    0.551153E+00
   ------------------------------------------------------------------------

         :::::::::::::::::::::::::::::::::::::::::::::::::::::
         ::                  THERMODYNAMIC                  ::
         :::::::::::::::::::::::::::::::::::::::::::::::::::::
         :: total free energy        -130.067434731313 Eh   ::
         ::.................................................::
         :: total energy             -130.618587548965 Eh   ::
         :: zero point energy           0.624859347581 Eh   ::
         :: G(RRHO) w/o ZPVE           -0.073706529928 Eh   ::
         :: G(RRHO) contrib.            0.551152817653 Eh   ::
         :::::::::::::::::::::::::::::::::::::::::::::::::::::

           -------------------------------------------------
          | TOTAL ENERGY             -130.618587548965 Eh   |
          | TOTAL ENTHALPY           -129.948818316944 Eh   |
          | TOTAL FREE ENERGY        -130.067434731313 Eh   |
          | GRADIENT NORM               0.000184901353 Eh/α |
          | HOMO-LUMO GAP               2.239303287820 eV   |
           -------------------------------------------------

 * finished run on 2025/08/30 at 19:01:56.972
