   * xtb version 6.7.1 (edcfbbe) compiled by 'albert@albert-system' on 2024-07-22

   ID    Z sym.   atoms
    1    7 N      1, 9, 36, 38, 51
    2    6 C      2-8, 10-15, 17-35, 37, 39-50, 52
    3   14 Si     16
    4    1 H      53-83

          program call               : xtb data2507/gas/SiTCNCz/SiTCNCz.xyz --gfn 2 --ohess vtight --parallel 40 --molden --ceasefiles --namespace data2507/gas/SiTCNCz/SiTCNCz_gas_S0_preOpt
          :  Hamiltonian                  GFN2-xTB          :
 * total energy  :  -130.5944309 Eh     change       -0.5130403E-09 Eh
 * total energy  :  -130.6112317 Eh     change       -0.1680076E-01 Eh
 * total energy  :  -130.6156735 Eh     change       -0.4441814E-02 Eh
 * total energy  :  -130.6165127 Eh     change       -0.8392579E-03 Eh
 * total energy  :  -130.6164386 Eh     change        0.7413577E-04 Eh
 * total energy  :  -130.6170049 Eh     change       -0.5663434E-03 Eh
 * total energy  :  -130.6170615 Eh     change       -0.5659917E-04 Eh
 * total energy  :  -130.6171123 Eh     change       -0.5080959E-04 Eh
 * total energy  :  -130.6171660 Eh     change       -0.5362586E-04 Eh
 * total energy  :  -130.6172135 Eh     change       -0.4749533E-04 Eh
 * total energy  :  -130.6176181 Eh     change       -0.6633190E-06 Eh
 * total energy  :  -130.6176185 Eh     change       -0.4690975E-06 Eh
 * total energy  :  -130.6176190 Eh     change       -0.5131327E-06 Eh
 * total energy  :  -130.6176195 Eh     change       -0.4999461E-06 Eh
 * total energy  :  -130.6176200 Eh     change       -0.5079271E-06 Eh
 * total energy  :  -130.6176207 Eh     change       -0.6400257E-06 Eh
 * total energy  :  -130.6176214 Eh     change       -0.7206224E-06 Eh
 * total energy  :  -130.6176221 Eh     change       -0.6790852E-06 Eh
 * total energy  :  -130.6176221 Eh     change       -0.5806186E-08 Eh
   *** GEOMETRY OPTIMIZATION CONVERGED AFTER 122 ITERATIONS ***

 final structure:
================
83
 xtb: 6.7.1 (edcfbbe)
N            5.62218474875680       -7.45239303312532        0.07532821063995
C            5.73826555487251       -6.31956399303287        0.20505087452786
C            5.89177297759759       -4.92211618469486        0.36764965304344
C            7.15880896752439       -4.38879274908570        0.61440991157255
C            7.30496705043627       -3.02321799682321        0.77638239556129
C            6.20527135478386       -2.18784114477132        0.69063875751865
C            4.94006374676584       -2.71583273850251        0.44028549454260
C            3.76886418358216       -1.83710365438443        0.34904255918780
N            2.57031496520691       -2.40723681738053        0.39362747245830
C            1.53621623572121       -1.57208911306159        0.32721809390786
C            0.18164585086031       -2.11372627371109        0.39396624808647
C           -0.05300958195958       -3.42627609388880        0.79898974580819
C           -1.35279706269713       -3.88515378193087        0.89962707358426
C           -2.41804508768637       -3.04212418667431        0.62152683027213
C           -2.20460230165523       -1.73130459040788        0.20776770930454
Si          -3.58826189118978       -0.47937704556391       -0.13159510019553
C           -3.09151136549417        0.43985699995478       -1.71231506964818
C           -2.98585602747012        1.82658800637285       -1.74479194889003
C           -2.57707654360763        2.48491597014682       -2.89059988018997
C           -2.27066122788679        1.76329393265280       -4.03165378784459
C           -2.37001396418557        0.38174131981655       -4.01779373152061
C           -2.77178287548339       -0.27043920298607       -2.86673366516934
C           -3.65625622094882        0.76941055183356        1.29360935108265
C           -4.78462191338854        1.56555796762209        1.47425431569792
C           -4.82714671182172        2.53029424815919        2.46426610698263
C           -3.73439586253896        2.71946287414171        3.29430160284717
C           -2.60705737908621        1.93149732567522        3.13420540371128
C           -2.57319057976384        0.96516366688257        2.14461669290034
C           -5.26529248434672       -1.34067912155887       -0.28809051433568
C           -5.91811185213489       -1.46270861067167       -1.51020026680410
C           -7.14069516086659       -2.10348139612217       -1.60447159015695
C           -7.73381925908066       -2.63542928101282       -0.47209221182951
C           -7.10054366724274       -2.51787820890720        0.75421413824174
C           -5.87962009923502       -1.87501545458069        0.84200820502064
C           -0.89521662452992       -1.29106889663265        0.08045076033260
N            1.65209711640185       -0.25414200829018        0.22346961066253
C            2.89026962795796        0.22748213654719        0.17271340282626
N            3.04088659531232        1.57732989834478        0.05919071987473
C            4.22326273521124        2.25352367692776       -0.25447713598250
C            5.48384449524816        1.75978582452337       -0.54429825323567
C            6.48465220586172        2.66901185163445       -0.84288339676396
C            6.24350435152334        4.03795328822148       -0.86044612873222
C            4.98263399013213        4.53508207228121       -0.59040872973623
C            3.96722984470302        3.63967995428008       -0.28965759884748
C            2.57117975248481        3.81636032850867        0.01682285966229
C            1.77179127335571        4.94401541287580        0.13216454498816
C            0.43893027768959        4.77950520938247        0.45907726513096
C           -0.08551116809559        3.51147818148498        0.68087954848390
C            0.69820786136132        2.37549862080081        0.57143578611646
C            2.02945089193702        2.53128585772843        0.22368263112194
N            3.98515394381192       -0.53362202158834        0.23365881013254
C            4.78169383778168       -4.08745974465268        0.28205031973530
H            8.01194535806699       -5.04806682419720        0.67865908070526
H            8.28257166897531       -2.60882849954610        0.97235075659868
H            6.30841311141347       -1.12276257691805        0.82680673760863
H            0.78616715259320       -4.06124893959270        1.03704695387885
H           -1.53974396179480       -4.90339896857711        1.20892137712725
H           -3.43046828508140       -3.40712183771999        0.72081163271977
H           -3.22399601363315        2.39584101827328       -0.85751957675992
H           -2.49456310111699        3.56238568255223       -2.89357353496841
H           -1.95200217417235        2.27482861151681       -4.92840982066444
H           -2.12896220097484       -0.18647875808023       -4.90506181912911
H           -2.83359265220966       -1.35007464491885       -2.85717005151185
H           -5.63920608960279        1.42292778758107        0.82748845483893
H           -5.71165153704000        3.13881232240466        2.58810790616553
H           -3.76241127045825        3.47677058721893        4.06440316458630
H           -1.75162479313641        2.07281410732562        3.77939149485569
H           -1.69257819054239        0.34934213992156        2.03152573850147
H           -5.46293058089555       -1.04489425408495       -2.39677083319524
H           -7.63346668606176       -2.18805718984233       -2.56255533931958
H           -8.68799815300995       -3.13706185918871       -0.54373423824605
H           -7.56144866485343       -2.92710723461060        1.64198172956867
H           -5.39328479028067       -1.77747530322723        1.80285939909638
H           -0.69673466064691       -0.29287808933987       -0.27856656121657
H            5.67570907607492        0.70086015555469       -0.54414514487147
H            7.47524872656429        2.30333519629554       -1.06943529502127
H            7.04992855391288        4.71682823622894       -1.09450768726852
H            4.78603399311330        5.59607267724162       -0.61491476045459
H            2.18827961915670        5.92686852695947       -0.02818206711848
H           -0.20185101617170        5.64385320317766        0.55097161091137
H           -1.12586584459450        3.40253533677241        0.95000097929127
H            0.28319094257221        1.40133924075071        0.75615805019698
H            3.79882693934159       -4.48966268266779        0.09098356740860

          :  Hamiltonian                  GFN2-xTB          :
         :: gradient norm              0.000053618995 Eh/a0 ::
         :: HOMO-LUMO gap              2.244858553959 eV    ::
         :: SCC energy              -133.073558598018 Eh    ::
         :: -> dispersion             -0.120073657195 Eh    ::
         :: repulsion energy           2.455936509137 Eh    ::

    * Orbital Energies and Occupations

         #    Occupation            Energy/Eh            Energy/eV
      -------------------------------------------------------------
         1        2.0000           -0.7582456             -20.6329
       ...           ...                  ...                  ...
       110        2.0000           -0.4077334             -11.0950
       111        2.0000           -0.4062234             -11.0539
       112        2.0000           -0.4049225             -11.0185
       113        2.0000           -0.4040835             -10.9957
       114        2.0000           -0.4033799             -10.9765
       115        2.0000           -0.4028042             -10.9609
       116        2.0000           -0.3898725             -10.6090
       117        2.0000           -0.3871852             -10.5358
       118        2.0000           -0.3869504             -10.5295
       119        2.0000           -0.3862599             -10.5107
       120        2.0000           -0.3822378             -10.4012
       121        2.0000           -0.3805326             -10.3548
       122        2.0000           -0.3775334             -10.2732 (HOMO)
       123                         -0.2950364              -8.0283 (LUMO)
       124                         -0.2798935              -7.6163
       125                         -0.2732605              -7.4358
       126                         -0.2525245              -6.8715
       127                         -0.2450321              -6.6677
       128                         -0.2389289              -6.5016
       129                         -0.2371238              -6.4525
       130                         -0.2357508              -6.4151
       131                         -0.2321396              -6.3168
       132                         -0.2283136              -6.2127
       133                         -0.2231156              -6.0713
       ...                                ...                  ...
       244                          1.1685365              31.7975
      -------------------------------------------------------------
                  HL-Gap            0.0824970 Eh            2.2449 eV

     #   Z          covCN         q      C6AA      α(0)
     1   7 N        0.911    -0.227    25.969     7.370
     2   6 C        1.912     0.114    28.300     8.591
     3   6 C        2.973     0.023    27.492     8.601
     4   6 C        2.926    -0.017    28.426     8.743
     5   6 C        2.917    -0.024    28.609     8.771
     6   6 C        2.923    -0.018    28.468     8.750
     7   6 C        2.984     0.006    27.886     8.662
     8   6 C        2.992     0.204    23.681     7.983
     9   7 N        1.843    -0.304    28.732     7.944
    10   6 C        2.988     0.205    23.650     7.977
    11   6 C        2.983    -0.002    28.058     8.689
    12   6 C        2.923    -0.022    28.563     8.764
    13   6 C        2.917    -0.027    28.688     8.783
    14   6 C        2.931    -0.025    28.638     8.776
    15   6 C        2.861    -0.093    30.327     9.027
    16  14 Si       3.619     0.487    98.148    19.013
    17   6 C        2.863    -0.093    30.338     9.028
    18   6 C        2.936    -0.030    28.760     8.795
    19   6 C        2.917    -0.028    28.710     8.787
    20   6 C        2.921    -0.027    28.684     8.783
    21   6 C        2.917    -0.029    28.724     8.789
    22   6 C        2.938    -0.030    28.760     8.795
    23   6 C        2.862    -0.093    30.335     9.028
    24   6 C        2.938    -0.030    28.759     8.795
    25   6 C        2.917    -0.029    28.731     8.790
    26   6 C        2.921    -0.028    28.702     8.785
    27   6 C        2.917    -0.028    28.711     8.787
    28   6 C        2.935    -0.031    28.774     8.797
    29   6 C        2.863    -0.093    30.338     9.028
    30   6 C        2.935    -0.032    28.801     8.801
    31   6 C        2.918    -0.029    28.723     8.789
    32   6 C        2.921    -0.028    28.690     8.784
    33   6 C        2.917    -0.029    28.729     8.789
    34   6 C        2.940    -0.031    28.775     8.798
    35   6 C        2.954    -0.027    28.685     8.785
    36   7 N        1.850    -0.314    28.983     7.979
    37   6 C        2.919     0.258    22.673     7.808
    38   7 N        2.806    -0.037    21.959     6.960
    39   6 C        3.052     0.053    26.758     8.484
    40   6 C        2.911    -0.045    29.128     8.850
    41   6 C        2.924    -0.032    28.790     8.799
    42   6 C        2.920    -0.036    28.893     8.815
    43   6 C        2.913    -0.032    28.798     8.800
    44   6 C        3.063    -0.010    28.195     8.707
    45   6 C        3.063    -0.010    28.206     8.709
    46   6 C        2.913    -0.032    28.806     8.801
    47   6 C        2.920    -0.035    28.878     8.812
    48   6 C        2.924    -0.030    28.753     8.793
    49   6 C        2.912    -0.045    29.117     8.848
    50   6 C        3.052     0.053    26.755     8.483
    51   7 N        1.846    -0.316    29.041     7.987
    52   6 C        2.931    -0.016    28.401     8.740
    53   1 H        0.926     0.048     2.346     2.395
    54   1 H        0.926     0.046     2.370     2.408
    55   1 H        0.926     0.062     2.177     2.307
    56   1 H        0.926     0.053     2.287     2.365
    57   1 H        0.926     0.037     2.486     2.465
    58   1 H        0.926     0.030     2.580     2.512
    59   1 H        0.926     0.021     2.726     2.582
    60   1 H        0.926     0.028     2.612     2.528
    61   1 H        0.926     0.029     2.601     2.522
    62   1 H        0.926     0.028     2.615     2.529
    63   1 H        0.925     0.019     2.742     2.589
    64   1 H        0.926     0.020     2.735     2.586
    65   1 H        0.926     0.028     2.612     2.527
    66   1 H        0.926     0.029     2.602     2.522
    67   1 H        0.926     0.028     2.613     2.528
    68   1 H        0.926     0.021     2.718     2.578
    69   1 H        0.926     0.023     2.687     2.564
    70   1 H        0.926     0.029     2.603     2.523
    71   1 H        0.926     0.030     2.590     2.516
    72   1 H        0.926     0.029     2.605     2.524
    73   1 H        0.925     0.020     2.727     2.583
    74   1 H        0.926     0.044     2.402     2.424
    75   1 H        0.926     0.057     2.240     2.341
    76   1 H        0.926     0.035     2.511     2.478
    77   1 H        0.926     0.034     2.527     2.486
    78   1 H        0.926     0.036     2.497     2.471
    79   1 H        0.926     0.036     2.496     2.471
    80   1 H        0.926     0.034     2.529     2.487
    81   1 H        0.926     0.036     2.506     2.476
    82   1 H        0.926     0.059     2.206     2.322
    83   1 H        0.926     0.067     2.123     2.278

molecular dipole:
                 x           y           z       tot (Debye)
 q only:       -0.448       1.285       0.114
   full:       -0.328       1.658       0.171       4.319

 projected vibrational frequencies (cm⁻¹)
eigval :       -0.00    -0.00     0.00     0.00     0.00     0.00
eigval :       -4.84     9.91    11.77    16.22    19.84    22.44
eigval :       27.90    29.73    35.79    36.29    37.22    45.42
eigval :       46.11    48.33    49.90    70.61    87.03    97.31
eigval :      101.27   121.16   133.16   139.94   151.88   159.92
eigval :      160.65   165.31   174.34   184.94   191.24   198.29
eigval :      212.63   214.92   219.88   227.30   228.43   240.02
eigval :      265.98   275.91   302.33   325.20   351.84   357.79
eigval :      359.52   360.88   379.58   381.90   391.89   398.22
eigval :      409.75   417.68   420.01   423.58   427.68   434.55
eigval :      440.26   449.59   477.52   479.48   488.67   512.24
eigval :      517.09   536.74   539.97   548.25   565.97   587.75
eigval :      589.25   589.84   589.98   614.80   623.67   626.17
eigval :      643.10   649.29   652.05   661.91   663.02   663.70
eigval :      667.83   675.30   680.11   688.21   705.99   709.55
eigval :      713.79   717.68   735.07   736.34   736.70   753.25
eigval :      763.77   768.24   775.08   784.24   799.28   804.65
eigval :      837.25   873.11   876.01   881.05   883.43   884.21
eigval :      890.73   895.92   900.00   905.21   905.44   907.40
eigval :      908.05   909.27   909.64   917.00   924.51   927.53
eigval :      930.83   932.73   932.82   933.17   934.21   934.33
eigval :      935.44   936.12   936.88   975.64   977.11   977.76
eigval :      983.33   991.96  1017.45  1023.15  1051.92  1068.72
eigval :     1074.27  1084.68  1085.70  1085.83  1105.54  1114.82
eigval :     1119.06  1120.82  1121.96  1122.94  1141.03  1145.30
eigval :     1145.60  1150.32  1151.15  1153.36  1171.53  1177.18
eigval :     1177.94  1182.68  1182.80  1183.02  1183.61  1190.39
eigval :     1206.57  1207.81  1210.17  1217.35  1223.14  1227.15
eigval :     1241.13  1249.21  1260.20  1268.01  1281.76  1286.69
eigval :     1287.85  1290.01  1298.48  1310.79  1311.93  1312.48
eigval :     1322.62  1323.88  1350.24  1356.32  1364.01  1373.36
eigval :     1407.71  1414.98  1419.16  1419.97  1421.50  1421.85
eigval :     1425.75  1450.02  1458.39  1464.13  1465.37  1465.63
eigval :     1469.82  1475.86  1483.09  1513.62  1528.38  1570.10
eigval :     1572.53  1575.94  1576.71  1577.42  1581.21  1582.12
eigval :     1584.37  1590.73  1593.20  1594.02  1595.07  1598.60
eigval :     1610.60  2378.22  3059.68  3060.89  3062.87  3066.29
eigval :     3067.01  3067.14  3070.23  3071.23  3072.57  3072.96
eigval :     3077.53  3078.58  3078.80  3079.33  3079.82  3081.32
eigval :     3085.03  3086.43  3086.60  3086.92  3087.58  3088.16
eigval :     3095.22  3095.25  3095.46  3097.52  3103.30  3108.11
eigval :     3108.93  3133.68  3150.47

   temp. (K)  partition function   enthalpy   heat capacity  entropy
                                   cal/mol     cal/K/mol   cal/K/mol   J/K/mol
 298.15  VIB  0.773E+23            25869.426    152.696    165.574
         ROT  0.103E+09              888.752      2.981     39.642
         INT  0.795E+31            26758.178    155.677    205.216
         TR   0.172E+29             1481.254      4.968     45.419
         TOT                       28239.4322   160.6455   250.6356  1048.6594

       T/K    H(0)-H(T)+PV         H(T)/Eh          T*S/Eh         G(T)/Eh
   ------------------------------------------------------------------------
    298.15    0.450024E-01    0.669755E+00    0.119085E+00    0.550670E+00
   ------------------------------------------------------------------------

         :::::::::::::::::::::::::::::::::::::::::::::::::::::
         ::                  THERMODYNAMIC                  ::
         :::::::::::::::::::::::::::::::::::::::::::::::::::::
         :: total free energy        -130.066952369909 Eh   ::
         ::.................................................::
         :: total energy             -130.617622088870 Eh   ::
         :: zero point energy           0.624752382857 Eh   ::
         :: G(RRHO) w/o ZPVE           -0.074082663896 Eh   ::
         :: G(RRHO) contrib.            0.550669718960 Eh   ::
         :::::::::::::::::::::::::::::::::::::::::::::::::::::

           -------------------------------------------------
          | TOTAL ENERGY             -130.617622088870 Eh   |
          | TOTAL ENTHALPY           -129.947867306301 Eh   |
          | TOTAL FREE ENERGY        -130.066952369909 Eh   |
          | GRADIENT NORM               0.000053630926 Eh/α |
          | HOMO-LUMO GAP               2.244857651551 eV   |
           -------------------------------------------------

 * finished run on 2025/08/30 at 18:52:41.356
