   * xtb version 6.7.1 (edcfbbe) compiled by 'albert@albert-system' on 2024-07-22

   ID    Z sym.   atoms
    1    6 C      1-6, 8-39, 41-46
    2    7 N      7
    3    8 O      40
    4    1 H      47-85

          program call               : xtb data2507/gas/DPFPhe/DPFPhe_gas_S0_finalOpt.xtbopt.xyz --gfn 2 --spinpol --tblite --uhf 2 --ohess vtight --parallel 40 --molden --ceasefiles --namespace data2507/gas/DPFPhe/DPFPhe_gas_T1_preOpt
 * total energy  :  -121.0283261 Eh     change        0.1735685E-08 Eh
 * total energy  :  -121.0390510 Eh     change       -0.1072496E-01 Eh
 * total energy  :  -121.0420553 Eh     change       -0.3004236E-02 Eh
 * total energy  :  -121.0421841 Eh     change       -0.1288163E-03 Eh
 * total energy  :  -121.0422517 Eh     change       -0.6760539E-04 Eh
 * total energy  :  -121.0422770 Eh     change       -0.2533342E-04 Eh
 * total energy  :  -121.0423183 Eh     change       -0.4132374E-04 Eh
 * total energy  :  -121.0423509 Eh     change       -0.3254109E-04 Eh
 * total energy  :  -121.0423887 Eh     change       -0.3780050E-04 Eh
 * total energy  :  -121.0424192 Eh     change       -0.3047850E-04 Eh
 * total energy  :  -121.0427560 Eh     change       -0.3053473E-06 Eh
 * total energy  :  -121.0427565 Eh     change       -0.4721709E-06 Eh
 * total energy  :  -121.0427568 Eh     change       -0.3721967E-06 Eh
 * total energy  :  -121.0427566 Eh     change        0.2581658E-06 Eh
 * total energy  :  -121.0427568 Eh     change       -0.2495267E-06 Eh
 * total energy  :  -121.0427571 Eh     change       -0.2595786E-06 Eh
 * total energy  :  -121.0427574 Eh     change       -0.3107690E-06 Eh
 * total energy  :  -121.0427574 Eh     change        0.3908596E-08 Eh
 * total energy  :  -121.0427575 Eh     change       -0.7465860E-07 Eh
   *** GEOMETRY OPTIMIZATION CONVERGED AFTER 69 ITERATIONS ***

 final structure:
================
85
 xtb: 6.7.1 (edcfbbe)
C            3.10064865605128        2.56132219158659       -2.08164668140082
C            3.67635390755227        1.31664395348935       -1.41870384496190
C            3.47280518445118        0.07257573170737       -2.27948062588921
C            4.08819081802920       -1.17026052964332       -1.64101491942840
C            3.91217301600167       -2.43635015298363       -2.48097634430676
C            2.46062836270862       -2.93646067828876       -2.52610178964247
N            1.96874972700350       -3.30207133976611       -1.21596522737347
C            1.23853608901737       -2.38905302132861       -0.44648531994543
C            0.43195936076478       -1.40242826204880       -1.02175127621099
C           -0.28459559906630       -0.36616864380431       -0.23759667119554
C           -0.21776026870862       -0.54621129192597        1.24949538072495
C           -0.90733567408164        0.33083136559914        2.09672344376195
C           -1.67210953529106        1.53844147215565        1.66973426779131
C           -2.81151199613675        1.28471210663994        0.70543304690160
C           -3.86635140549236        0.41210879314444        0.83969739083859
C           -4.82815809841259        0.34411803296389       -0.17161982709985
C           -5.96539097409844       -0.57925502894380       -0.05055681884121
C           -6.40531970530964       -1.31605244552868       -1.14801982538910
C           -7.47752948189249       -2.18064876636982       -1.03175468234846
C           -8.13199248888747       -2.32009702328454        0.18065233330332
C           -7.70411455387292       -1.59189248762977        1.27811386432116
C           -6.62842772977574       -0.73128005067090        1.16523585102229
C           -4.70504859233201        1.16600856486122       -1.29286806280338
C           -3.64959557074272        2.04945324757210       -1.42851188849244
C           -2.69475970351898        2.10852235266634       -0.42587465449069
C           -1.48453576701309        2.89824714895275       -0.30005354694113
C           -0.90996058816174        3.83795019109369       -1.14130440726372
C            0.28574984265284        4.42469129048517       -0.76805566617783
C            0.92192605768216        4.08738002798308        0.42754962097295
C            2.20096186996519        4.71278681833655        0.79179423795378
C            3.21992841026131        3.95737515261689        1.36937866891074
C            4.42898171242960        4.54017823199052        1.69871472524223
C            4.63902495318616        5.88902001375189        1.46538391057545
C            3.63122248661479        6.65134328946330        0.89881022544858
C            2.42375526244648        6.06877296174058        0.56188505004223
C            0.33583290684702        3.14302748674698        1.27414868237573
C           -0.85556831681808        2.56149056123163        0.90887686919474
C            0.51953022049986       -1.58469478405809        1.76389009619519
C            1.25287375867922       -2.49350583421348        0.93737365403390
O            1.94164025210973       -3.47052879750552        1.61010834414084
C            2.53696424776575       -4.44014635535550        0.85270124529240
C            3.11970684264285       -5.49390186413213        1.53415624705079
C            3.74890152379499       -6.51665546043634        0.83853948361191
C            3.77934211124000       -6.47619514094858       -0.53840081031597
C            3.19631107355638       -5.41776915654580       -1.22539523127162
C            2.56993938751022       -4.37737085194865       -0.55046104720918
H            3.56018310852817        2.72125018855342       -3.05494729381514
H            2.02636566199422        2.45786223966784       -2.22138135618894
H            3.28178141765210        3.43975350492020       -1.46716018316825
H            3.19234971693488        1.16427224087357       -0.45134576540731
H            4.74347170172361        1.46409781501817       -1.23707348348740
H            3.92484154325582        0.23421713531608       -3.26149263972583
H            2.40122860839182       -0.07339562356690       -2.42297084171510
H            5.15734261826615       -0.99686364309335       -1.49629770564781
H            3.64800612102020       -1.32291284176619       -0.65318707380982
H            4.24319805117165       -2.24569400183033       -3.50404334901602
H            4.54135398115516       -3.22664552723697       -2.06529608223235
H            2.38688453918122       -3.79928668252809       -3.19349684921751
H            1.82350305772372       -2.15863400997702       -2.93724279917188
H            0.26819023297314       -1.37374674519790       -2.08591295605323
H           -1.33764705605717       -0.33614685173552       -0.55255519508818
H            0.11423080701837        0.63101343919885       -0.49017936731105
H           -0.86931169150496        0.12413794236362        3.15573870011870
H           -2.08019462420381        2.01708681228839        2.56868618706390
H           -3.93931861353679       -0.23376577108230        1.70250336440979
H           -5.88862397920142       -1.22412158036147       -2.09253232881201
H           -7.80379406712563       -2.74989436395852       -1.89025373701912
H           -8.97163276086354       -2.99352450485643        0.26988704234645
H           -8.21304410422638       -1.69386596704359        2.22575226198632
H           -6.31001343334987       -0.15301282019959        2.02057067989431
H           -5.46495136898536        1.12316321474709       -2.05958306667450
H           -3.57469635791292        2.68292489658759       -2.30005934474390
H           -1.38297114182642        4.10623777534413       -2.07451175599235
H            0.75304701783047        5.14205660510345       -1.42683273691870
H            3.06935602081456        2.90126921113785        1.53881744141843
H            5.21218847814107        3.93903568978977        2.13737752472571
H            5.58340688238421        6.34439412091149        1.72461307326293
H            3.78690150963597        7.70547099104305        0.71995914455814
H            1.63636026553556        6.67295276938047        0.13500184861703
H            0.80716426048200        2.88636050182868        2.21149251483382
H            0.59718548340529       -1.73482170046644        2.82906492742880
H            3.07911453101737       -5.48871787531532        2.61178724603201
H            4.20718289394440       -7.33082326281238        1.37765882118405
H            4.26069941023624       -7.26352003656658       -1.09830982111905
H            3.23855905178343       -5.42155485236321       -2.30203857932654

 projected vibrational frequencies (cm⁻¹)
eigval :       -0.00    -0.00    -0.00     0.00     0.00     0.00
eigval :       10.38    14.75    16.39    21.84    33.29    39.43
eigval :       43.75    45.30    49.72    51.85    55.04    60.11
eigval :       71.26    76.77    85.23    86.92   101.50   113.64
eigval :      123.12   132.60   145.77   152.27   162.02   183.78
eigval :      192.25   195.23   212.14   221.56   244.94   245.85
eigval :      256.87   269.01   279.18   289.37   306.28   333.62
eigval :      342.72   350.02   370.70   372.42   374.40   375.79
eigval :      398.90   403.58   408.52   412.37   426.86   428.90
eigval :      431.92   440.80   456.18   467.85   486.34   487.77
eigval :      500.76   509.39   523.66   532.21   535.25   546.17
eigval :      550.89   558.10   581.93   585.33   587.17   591.26
eigval :      600.61   610.66   614.88   649.94   660.55   665.31
eigval :      669.54   671.44   677.80   683.04   706.94   729.18
eigval :      733.61   735.61   756.65   761.18   762.75   769.01
eigval :      771.90   791.62   798.38   824.64   828.85   835.80
eigval :      838.74   850.36   863.15   866.18   875.90   876.82
eigval :      885.63   887.37   887.65   896.21   902.41   902.98
eigval :      904.75   908.43   910.03   914.36   916.39   917.15
eigval :      930.12   930.91   931.96   932.36   938.71   964.72
eigval :      979.18   981.55   995.88  1006.19  1028.10  1047.99
eigval :     1070.63  1073.91  1074.69  1077.94  1086.81  1087.09
eigval :     1091.52  1099.33  1104.73  1108.94  1122.56  1122.68
eigval :     1126.79  1131.45  1136.45  1138.59  1147.87  1154.87
eigval :     1163.45  1166.45  1174.74  1176.85  1182.51  1182.74
eigval :     1185.82  1192.09  1201.43  1202.13  1211.11  1219.06
eigval :     1223.38  1235.26  1240.25  1241.58  1250.34  1257.12
eigval :     1273.13  1276.83  1278.41  1282.01  1282.16  1286.49
eigval :     1289.47  1290.13  1295.31  1306.71  1309.49  1319.33
eigval :     1319.53  1323.38  1325.16  1325.24  1347.06  1349.81
eigval :     1350.46  1352.80  1364.16  1378.63  1413.58  1417.99
eigval :     1420.27  1420.80  1432.04  1432.31  1439.19  1442.13
eigval :     1458.42  1460.50  1475.86  1480.06  1483.98  1488.12
eigval :     1489.32  1492.74  1494.11  1498.86  1500.06  1506.42
eigval :     1506.92  1536.63  1565.26  1565.83  1578.13  1582.30
eigval :     1585.89  1586.81  1589.11  1595.52  1602.91  1605.20
eigval :     2803.32  2880.44  2904.35  2952.31  2958.10  2964.24
eigval :     2970.38  2972.81  2979.63  2985.59  2988.77  2995.18
eigval :     3026.29  3030.36  3043.21  3050.62  3070.53  3071.34
eigval :     3071.72  3073.29  3074.81  3074.89  3076.97  3080.11
eigval :     3081.57  3082.25  3083.21  3084.91  3085.58  3086.53
eigval :     3087.38  3088.87  3092.26  3093.08  3097.31  3099.93
eigval :     3101.96  3110.07  3114.01

   temp. (K)  partition function   enthalpy   heat capacity  entropy
                                   cal/mol     cal/K/mol   cal/K/mol   J/K/mol
 298.15  VIB  0.518E+19            23500.561    145.877    148.018
         ROT  0.802E+08              888.752      2.981     39.150
         INT  0.416E+27            24389.314    148.858    187.168
         TR   0.141E+29             1481.254      4.968     45.027
         TOT                       25870.5676   153.8263   232.1951   971.5044

       T/K    H(0)-H(T)+PV         H(T)/Eh          T*S/Eh         G(T)/Eh
   ------------------------------------------------------------------------
    298.15    0.412274E-01    0.727338E+00    0.110323E+00    0.617014E+00
   ------------------------------------------------------------------------

         :::::::::::::::::::::::::::::::::::::::::::::::::::::
         ::                  THERMODYNAMIC                  ::
         :::::::::::::::::::::::::::::::::::::::::::::::::::::
         :: total free energy        -120.425743177043 Eh   ::
         ::.................................................::
         :: total energy             -121.042757475857 Eh   ::
         :: zero point energy           0.686110325739 Eh   ::
         :: G(RRHO) w/o ZPVE           -0.069096026925 Eh   ::
         :: G(RRHO) contrib.            0.617014298814 Eh   ::
         :::::::::::::::::::::::::::::::::::::::::::::::::::::

           -------------------------------------------------
          | TOTAL ENERGY             -121.042757475857 Eh   |
          | TOTAL ENTHALPY           -120.315419776358 Eh   |
          | TOTAL FREE ENERGY        -120.425743177043 Eh   |
          | GRADIENT NORM               0.000054759650 Eh/α |
           -------------------------------------------------

 * finished run on 2025/09/09 at 12:04:49.439
