   * xtb version 6.7.1 (edcfbbe) compiled by 'albert@albert-system' on 2024-07-22

   ID    Z sym.   atoms
    1    6 C      1-6, 8-39, 41-46
    2    7 N      7
    3    8 O      40
    4    1 H      47-85

          program call               : xtb data2507/gas/DPFPhe/DPFPhe_gas_S0_crest.xyz --gfn 2 --ohess vtight --parallel 40 --molden --ceasefiles --namespace data2507/gas/DPFPhe/DPFPhe_gas_S0_finalOpt
          :  Hamiltonian                  GFN2-xTB          :
 * total energy  :  -121.1135876 Eh     change       -0.1907139E-08 Eh
 * total energy  :  -121.1135893 Eh     change       -0.1775556E-05 Eh
 * total energy  :  -121.1135909 Eh     change       -0.1592964E-05 Eh
 * total energy  :  -121.1135939 Eh     change       -0.2931971E-05 Eh
 * total energy  :  -121.1135983 Eh     change       -0.4411629E-05 Eh
 * total energy  :  -121.1136044 Eh     change       -0.6171018E-05 Eh
 * total energy  :  -121.1136125 Eh     change       -0.8103680E-05 Eh
 * total energy  :  -121.1136220 Eh     change       -0.9481689E-05 Eh
 * total energy  :  -121.1136317 Eh     change       -0.9654545E-05 Eh
 * total energy  :  -121.1136409 Eh     change       -0.9182378E-05 Eh
 * total energy  :  -121.1137809 Eh     change       -0.7667069E-06 Eh
 * total energy  :  -121.1137818 Eh     change       -0.9421540E-06 Eh
 * total energy  :  -121.1137832 Eh     change       -0.1383399E-05 Eh
 * total energy  :  -121.1137852 Eh     change       -0.1985014E-05 Eh
 * total energy  :  -121.1137873 Eh     change       -0.2136137E-05 Eh
 * total energy  :  -121.1137892 Eh     change       -0.1805007E-05 Eh
 * total energy  :  -121.1137906 Eh     change       -0.1446494E-05 Eh
 * total energy  :  -121.1137919 Eh     change       -0.1312892E-05 Eh
 * total energy  :  -121.1137919 Eh     change       -0.7444868E-08 Eh
   *** GEOMETRY OPTIMIZATION CONVERGED AFTER 44 ITERATIONS ***

 final structure:
================
85
 xtb: 6.7.1 (edcfbbe)
C            3.15582849116062        2.73466665594254       -2.40811943436937
C            3.56770154157427        1.55394893828192       -1.53910862993049
C            3.63500264026133        0.25286682037500       -2.33474505190733
C            4.12125217247017       -0.91146184066165       -1.47463239711480
C            4.10164056400811       -2.25527581303551       -2.20606185108034
C            2.69242201328872       -2.85162326584654       -2.32955101246725
N            2.14589362700531       -3.21146354333197       -1.03835099042977
C            1.25187456801299       -2.36447893246764       -0.37682751177780
C            0.57071246893680       -1.36053773445912       -0.95540594640674
C           -0.33864724416242       -0.42250063572140       -0.23388962023576
C           -0.37871120802753       -0.59435771924761        1.25700348648293
C           -1.01790128835629        0.26117807841880        2.07119826846814
C           -1.74228521519143        1.50314026461000        1.63633698538050
C           -2.87787203413070        1.27259544526333        0.66744104845180
C           -3.95166348739167        0.42170752002726        0.79145203312424
C           -4.90679351236895        0.37412431216304       -0.22709674544022
C           -6.06505354115832       -0.52415420608250       -0.11598516068085
C           -6.51182906672936       -1.25115562415241       -1.21723248783567
C           -7.60467532441811       -2.09082851913605       -1.11080491629756
C           -8.27332687710095       -2.21477437352549        0.09551947018677
C           -7.83868987143927       -1.49639878919747        1.19678994002575
C           -6.74249224528900       -0.66078984722877        1.09365983173621
C           -4.75769305170085        1.19274949118252       -1.34759775986300
C           -3.68130767708844        2.05116170071548       -1.47614362251086
C           -2.73362005151196        2.08914691922859       -0.46567088989676
C           -1.50350633232358        2.84650995125397       -0.33473416409867
C           -0.89487670186844        3.76119302652491       -1.17940305512066
C            0.32259870711921        4.30241899660312       -0.80953753963239
C            0.94892774215175        3.94321174935630        0.38534115197399
C            2.26067762902602        4.50657950353110        0.73451650201760
C            3.23780979686088        3.71096391643199        1.33020266686786
C            4.48067816278319        4.23149017363686        1.63684067741755
C            4.76827570305228        5.55799673423745        1.36265861139302
C            3.80212365581942        6.36148794490615        0.78074719031613
C            2.56058014905902        5.84099286988217        0.46720668716673
C            0.32437706775964        3.02967465926505        1.23842214319688
C           -0.89015753393294        2.49365428577444        0.87839574649800
C            0.28905314317005       -1.74485183332546        1.79459194825540
C            1.03643704319533       -2.58578470756016        1.05021162800297
O            1.58884263322260       -3.65000576672579        1.69174143223404
C            2.35950052296648       -4.52282031393993        0.97901285315948
C            2.83923948516948       -5.62406928289779        1.66918614710537
C            3.64552085361314       -6.54982568750635        1.03384486010327
C            3.96561040820896       -6.35940289657289       -0.29781353269598
C            3.48832480536214       -5.26119988741794       -0.99040720362141
C            2.66768508121626       -4.31398370987549       -0.37458733500064
H            3.84619453454283        2.85583266274991       -3.24045574218183
H            2.15565155135275        2.58346988487306       -2.80895808686998
H            3.15726218925662        3.65136098961486       -1.82380251142947
H            2.84878317386994        1.43858710559201       -0.72500029273799
H            4.54400578590744        1.75825683651623       -1.09362952054804
H            4.31285021325305        0.38045299590563       -3.18263866656793
H            2.64324709467340        0.03734300570715       -2.73497554785040
H            5.14416380138490       -0.70122104487073       -1.15367218970693
H            3.50546671654046       -0.97857185460933       -0.57537575308708
H            4.51850685407839       -2.13253967565034       -3.20787098012063
H            4.73251195535001       -2.96285311427455       -1.66413097808840
H            2.71407603540744       -3.73830095424465       -2.96865691776951
H            2.03301987023281       -2.13550155825163       -2.81079270458965
H            0.64258091683010       -1.15690820390324       -2.01135889045126
H           -1.35541338671503       -0.53614121074132       -0.63415341329556
H           -0.03772920420816        0.60309090944941       -0.47751686875977
H           -1.01711207479315        0.05871585640617        3.13277028928768
H           -2.14044563819021        1.99584045819610        2.53176378211138
H           -4.04534382426357       -0.22277208743106        1.65337878999220
H           -5.98468790782304       -1.17117477498178       -2.15708762587562
H           -7.93620242504505       -2.65257741587209       -1.97227921375670
H           -9.12929146553351       -2.86838949588845        0.17699865358892
H           -8.35863578724554       -1.58627302987313        2.13970030452833
H           -6.41846805228716       -0.08977622790542        1.95174577746695
H           -5.51291041946927        1.16636464864962       -2.11980751629794
H           -3.58439917063481        2.68051072723532       -2.34861213006415
H           -1.35647388398567        4.04196083192044       -2.11470805219905
H            0.81460505885642        4.99878794321862       -1.47272071417239
H            3.02824467027938        2.67119339383350        1.53401449124833
H            5.22993770951910        3.59858041834476        2.09012472667892
H            5.73971819379705        5.96434726504147        1.60275689920248
H            4.01730029392673        7.39940307647095        0.57120403812694
H            1.80719966213700        6.47915363484535        0.02848203331599
H            0.78642767228353        2.75684022350225        2.17587284393678
H            0.19794822064718       -1.94535752408433        2.85148207063612
H            2.56936914675203       -5.72746575142095        2.70822985269567
H            4.01950009706917       -7.40473684562043        1.57440171918265
H            4.59619618709859       -7.06937823482631       -0.81135524389296
H            3.76534751997801       -5.15710167743172       -2.02588022811748

          :  Hamiltonian                  GFN2-xTB          :
         :: gradient norm              0.000070414315 Eh/a0 ::
         :: HOMO-LUMO gap              2.222060754441 eV    ::
         :: SCC energy              -123.274352273325 Eh    ::
         :: -> dispersion             -0.111699329500 Eh    ::
         :: repulsion energy           2.160560352218 Eh    ::

    * Orbital Energies and Occupations

         #    Occupation            Energy/Eh            Energy/eV
      -------------------------------------------------------------
         1        2.0000           -0.7253136             -19.7368
       ...           ...                  ...                  ...
       101        2.0000           -0.4129567             -11.2371
       102        2.0000           -0.4107290             -11.1765
       103        2.0000           -0.4081937             -11.1075
       104        2.0000           -0.4042502             -11.0002
       105        2.0000           -0.4022658             -10.9462
       106        2.0000           -0.4014959             -10.9253
       107        2.0000           -0.4010668             -10.9136
       108        2.0000           -0.3943865             -10.7318
       109        2.0000           -0.3916309             -10.6568
       110        2.0000           -0.3902487             -10.6192
       111        2.0000           -0.3673448              -9.9960
       112        2.0000           -0.3453579              -9.3977
       113        2.0000           -0.3410401              -9.2802 (HOMO)
       114                         -0.2593809              -7.0581 (LUMO)
       115                         -0.2501553              -6.8071
       116                         -0.2316627              -6.3039
       117                         -0.2202754              -5.9940
       118                         -0.2197516              -5.9797
       119                         -0.2194858              -5.9725
       120                         -0.2170537              -5.9063
       121                         -0.2158964              -5.8748
       122                         -0.2124144              -5.7801
       123                         -0.2071959              -5.6381
       124                         -0.1733141              -4.7161
       ...                                ...                  ...
       223                          0.7376754              20.0732
      -------------------------------------------------------------
                  HL-Gap            0.0816592 Eh            2.2221 eV

     #   Z          covCN         q      C6AA      α(0)
     1   6 C        3.752    -0.101    22.480     6.761
     2   6 C        3.801    -0.051    21.491     6.600
     3   6 C        3.803    -0.059    21.629     6.621
     4   6 C        3.802    -0.058    21.611     6.619
     5   6 C        3.801    -0.064    21.730     6.637
     6   6 C        3.748    -0.005    20.729     6.494
     7   7 N        2.742    -0.070    22.601     7.061
     8   6 C        2.900     0.038    27.147     8.543
     9   6 C        2.908    -0.075    29.877     8.963
    10   6 C        3.812    -0.057    21.591     6.614
    11   6 C        2.950     0.007    27.859     8.657
    12   6 C        2.906    -0.062    29.539     8.912
    13   6 C        3.891    -0.022    20.911     6.501
    14   6 C        3.050     0.004    27.892     8.662
    15   6 C        2.919    -0.042    29.032     8.836
    16   6 C        2.979     0.006    27.886     8.662
    17   6 C        2.977     0.011    27.775     8.645
    18   6 C        2.925    -0.034    28.849     8.808
    19   6 C        2.918    -0.030    28.746     8.792
    20   6 C        2.920    -0.031    28.783     8.798
    21   6 C        2.918    -0.030    28.741     8.791
    22   6 C        2.925    -0.034    28.837     8.806
    23   6 C        2.926    -0.039    28.974     8.827
    24   6 C        2.912    -0.036    28.898     8.815
    25   6 C        3.037    -0.003    28.061     8.689
    26   6 C        3.037    -0.003    28.059     8.688
    27   6 C        2.912    -0.036    28.907     8.816
    28   6 C        2.926    -0.038    28.946     8.823
    29   6 C        2.978     0.007    27.867     8.659
    30   6 C        2.977     0.011    27.770     8.644
    31   6 C        2.925    -0.033    28.817     8.803
    32   6 C        2.918    -0.030    28.743     8.792
    33   6 C        2.920    -0.032    28.787     8.798
    34   6 C        2.918    -0.030    28.756     8.794
    35   6 C        2.925    -0.035    28.873     8.812
    36   6 C        2.919    -0.042    29.035     8.836
    37   6 C        3.050     0.004    27.896     8.662
    38   6 C        2.915    -0.077    29.915     8.969
    39   6 C        2.874     0.128    25.186     8.227
    40   8 O        1.711    -0.242    18.007     5.729
    41   6 C        2.887     0.120    25.358     8.256
    42   6 C        2.919    -0.056    29.391     8.890
    43   6 C        2.918    -0.043    29.072     8.842
    44   6 C        2.919    -0.041    29.019     8.834
    45   6 C        2.924    -0.063    29.575     8.918
    46   6 C        2.917     0.041    27.084     8.534
    47   1 H        0.925     0.032     2.551     2.498
    48   1 H        0.925     0.032     2.564     2.504
    49   1 H        0.925     0.034     2.529     2.487
    50   1 H        0.924     0.029     2.604     2.523
    51   1 H        0.924     0.028     2.616     2.529
    52   1 H        0.924     0.029     2.595     2.519
    53   1 H        0.924     0.030     2.588     2.516
    54   1 H        0.924     0.031     2.570     2.507
    55   1 H        0.924     0.035     2.520     2.483
    56   1 H        0.924     0.037     2.490     2.468
    57   1 H        0.924     0.040     2.448     2.447
    58   1 H        0.924     0.042     2.424     2.435
    59   1 H        0.925     0.053     2.278     2.360
    60   1 H        0.926     0.025     2.656     2.549
    61   1 H        0.923     0.051     2.303     2.373
    62   1 H        0.924     0.055     2.264     2.353
    63   1 H        0.926     0.026     2.650     2.546
    64   1 H        0.924     0.052     2.290     2.366
    65   1 H        0.926     0.031     2.568     2.506
    66   1 H        0.926     0.030     2.590     2.516
    67   1 H        0.926     0.028     2.610     2.526
    68   1 H        0.926     0.028     2.609     2.526
    69   1 H        0.926     0.029     2.604     2.523
    70   1 H        0.926     0.031     2.575     2.509
    71   1 H        0.926     0.030     2.587     2.515
    72   1 H        0.926     0.029     2.601     2.522
    73   1 H        0.926     0.028     2.608     2.525
    74   1 H        0.926     0.031     2.577     2.510
    75   1 H        0.926     0.032     2.557     2.501
    76   1 H        0.926     0.028     2.609     2.526
    77   1 H        0.926     0.028     2.613     2.528
    78   1 H        0.926     0.028     2.613     2.528
    79   1 H        0.926     0.030     2.584     2.514
    80   1 H        0.926     0.031     2.573     2.508
    81   1 H        0.926     0.045     2.388     2.417
    82   1 H        0.926     0.047     2.358     2.402
    83   1 H        0.926     0.034     2.529     2.487
    84   1 H        0.926     0.032     2.562     2.503
    85   1 H        0.926     0.034     2.529     2.487

molecular dipole:
                 x           y           z       tot (Debye)
 q only:        0.332       0.121      -0.710
   full:        0.326       0.160      -0.795       2.222

 projected vibrational frequencies (cm⁻¹)
eigval :       -0.00    -0.00     0.00     0.00     0.00     0.00
eigval :        9.62    15.02    18.38    24.62    32.18    36.73
eigval :       44.14    48.25    49.13    54.17    60.89    66.49
eigval :       76.57    80.34    83.07    88.54   102.80   114.94
eigval :      123.42   141.23   148.51   161.13   168.67   186.16
eigval :      190.78   199.23   211.31   233.98   243.02   252.45
eigval :      262.68   277.10   288.22   298.31   324.24   334.43
eigval :      353.34   357.30   362.58   372.72   375.01   385.57
eigval :      397.50   403.51   412.90   414.13   428.34   433.65
eigval :      442.19   455.07   469.49   480.72   486.89   498.72
eigval :      501.02   511.83   525.18   537.38   542.79   560.91
eigval :      567.90   585.04   587.07   589.99   593.49   611.73
eigval :      630.01   630.63   661.45   662.90   671.14   672.01
eigval :      677.88   681.14   707.02   723.15   728.48   739.36
eigval :      755.85   757.39   761.73   766.17   772.79   782.91
eigval :      795.17   803.95   826.78   830.15   836.38   837.97
eigval :      849.11   853.89   866.16   871.00   876.20   877.54
eigval :      886.33   888.77   895.11   900.45   902.47   907.05
eigval :      909.35   912.19   915.15   917.46   920.38   927.32
eigval :      930.22   931.29   932.06   932.89   938.38   964.10
eigval :      979.08   982.57   998.42  1012.03  1036.00  1057.32
eigval :     1073.06  1074.72  1077.20  1086.99  1087.52  1088.49
eigval :     1094.92  1108.46  1110.34  1122.03  1123.08  1125.57
eigval :     1132.10  1135.92  1145.74  1156.29  1163.64  1165.63
eigval :     1171.61  1178.10  1182.35  1182.53  1183.95  1185.69
eigval :     1192.18  1201.92  1203.60  1210.55  1218.65  1222.81
eigval :     1237.38  1242.95  1250.28  1253.44  1259.09  1276.87
eigval :     1277.95  1280.76  1282.18  1283.45  1285.97  1289.82
eigval :     1295.82  1296.21  1310.08  1319.51  1319.89  1323.63
eigval :     1326.97  1328.16  1333.12  1347.47  1349.93  1353.11
eigval :     1364.24  1367.56  1378.41  1394.55  1416.11  1417.14
eigval :     1421.84  1433.00  1437.88  1440.55  1444.57  1448.63
eigval :     1460.57  1477.50  1486.52  1488.59  1493.14  1493.74
eigval :     1494.45  1498.41  1502.02  1505.48  1506.96  1568.63
eigval :     1573.73  1578.76  1582.86  1587.14  1588.73  1593.21
eigval :     1597.30  1604.67  1608.17  1612.19  1650.02  1666.00
eigval :     2879.55  2906.87  2930.69  2953.92  2958.38  2966.47
eigval :     2972.68  2974.70  2981.26  2988.03  2989.82  2995.31
eigval :     3027.19  3031.15  3043.89  3053.72  3065.68  3069.72
eigval :     3070.46  3071.17  3072.25  3073.68  3075.87  3079.48
eigval :     3081.01  3081.42  3082.55  3084.40  3085.40  3085.89
eigval :     3086.50  3088.28  3091.43  3092.22  3092.98  3097.15
eigval :     3098.79  3110.39  3119.28

   temp. (K)  partition function   enthalpy   heat capacity  entropy
                                   cal/mol     cal/K/mol   cal/K/mol   J/K/mol
 298.15  VIB  0.214E+19            23145.591    144.297    145.616
         ROT  0.798E+08              888.752      2.981     39.139
         INT  0.171E+27            24034.344    147.278    184.755
         TR   0.141E+29             1481.254      4.968     45.027
         TOT                       25515.5977   152.2465   229.7820   961.4080

       T/K    H(0)-H(T)+PV         H(T)/Eh          T*S/Eh         G(T)/Eh
   ------------------------------------------------------------------------
    298.15    0.406617E-01    0.731174E+00    0.109177E+00    0.621997E+00
   ------------------------------------------------------------------------

         :::::::::::::::::::::::::::::::::::::::::::::::::::::
         ::                  THERMODYNAMIC                  ::
         :::::::::::::::::::::::::::::::::::::::::::::::::::::
         :: total free energy        -120.491794631924 Eh   ::
         ::.................................................::
         :: total energy             -121.113791921107 Eh   ::
         :: zero point energy           0.690512453469 Eh   ::
         :: G(RRHO) w/o ZPVE           -0.068515164287 Eh   ::
         :: G(RRHO) contrib.            0.621997289182 Eh   ::
         :::::::::::::::::::::::::::::::::::::::::::::::::::::

           -------------------------------------------------
          | TOTAL ENERGY             -121.113791921107 Eh   |
          | TOTAL ENTHALPY           -120.382617774508 Eh   |
          | TOTAL FREE ENERGY        -120.491794631924 Eh   |
          | GRADIENT NORM               0.000070418912 Eh/α |
          | HOMO-LUMO GAP               2.222060480893 eV   |
           -------------------------------------------------

 * finished run on 2025/09/09 at 12:04:36.973
