   * xtb version 6.7.1 (edcfbbe) compiled by 'albert@albert-system' on 2024-07-22

   ID    Z sym.   atoms
    1    6 C      1-6, 8-39, 41-46
    2    7 N      7
    3    8 O      40
    4    1 H      47-85

          program call               : xtb data2507/gas/DPFPhe/DPFPhe_gas_T1_crest.xyz --gfn 2 --spinpol --tblite --uhf 2 --ohess vtight --parallel 40 --molden --ceasefiles --namespace data2507/gas/DPFPhe/DPFPhe_gas_T1_finalOpt
 * total energy  :  -121.0430466 Eh     change        0.2299001E-07 Eh
 * total energy  :  -121.0431373 Eh     change       -0.9073243E-04 Eh
 * total energy  :  -121.0431636 Eh     change       -0.2631753E-04 Eh
 * total energy  :  -121.0431664 Eh     change       -0.2775785E-05 Eh
 * total energy  :  -121.0431693 Eh     change       -0.2886138E-05 Eh
 * total energy  :  -121.0431715 Eh     change       -0.2217081E-05 Eh
 * total energy  :  -121.0431748 Eh     change       -0.3261561E-05 Eh
 * total energy  :  -121.0431772 Eh     change       -0.2375768E-05 Eh
 * total energy  :  -121.0431786 Eh     change       -0.1398559E-05 Eh
 * total energy  :  -121.0431795 Eh     change       -0.9473197E-06 Eh
 * total energy  :  -121.0431817 Eh     change       -0.5080182E-06 Eh
 * total energy  :  -121.0431822 Eh     change       -0.5459241E-06 Eh
 * total energy  :  -121.0431828 Eh     change       -0.6377205E-06 Eh
 * total energy  :  -121.0431835 Eh     change       -0.6012831E-06 Eh
 * total energy  :  -121.0431839 Eh     change       -0.4474019E-06 Eh
 * total energy  :  -121.0431842 Eh     change       -0.2655163E-06 Eh
 * total energy  :  -121.0431846 Eh     change       -0.4309664E-06 Eh
 * total energy  :  -121.0431849 Eh     change       -0.3443812E-06 Eh
 * total energy  :  -121.0431850 Eh     change       -0.3416548E-07 Eh
   *** GEOMETRY OPTIMIZATION CONVERGED AFTER 22 ITERATIONS ***

 final structure:
================
85
 xtb: 6.7.1 (edcfbbe)
C            3.39444724342684        2.08379336756435       -2.06421083693291
C            3.82563873341126        0.82442498141831       -1.32358952814279
C            3.51101905238474       -0.43648554750976       -2.12435670384232
C            3.97850992989069       -1.70072440365886       -1.40732876771218
C            3.69228285706859       -2.98421945728223       -2.18855856669567
C            2.19740566977969       -3.32961103442508       -2.26096929650572
N            1.62802672944231       -3.56572150760319       -0.95239948627607
C            0.98096903115137       -2.53602061764316       -0.25964029181303
C            0.29923318845822       -1.50674707119853       -0.91634409993454
C           -0.32294118622665       -0.35569043329755       -0.21618679248897
C           -0.31058845616419       -0.44959104222549        1.28037518000395
C           -0.92218239903243        0.54547688080202        2.05372334876034
C           -1.56285747010350        1.78783963461980        1.53252201860642
C           -2.69846321207113        1.57336546157178        0.55481394887279
C           -3.82416389171478        0.79883034822345        0.71095170277098
C           -4.77113437568152        0.75757224028358       -0.31559563450147
C           -5.97743855485821       -0.06982535308031       -0.17202959513987
C           -7.22240901946041        0.40913230782356       -0.57345512056283
C           -8.35515842954104       -0.37047032655352       -0.43245925000241
C           -8.26248519752389       -1.64309661227708        0.10578365779317
C           -7.02936475703187       -2.13046739119720        0.50541797573457
C           -5.89627146217174       -1.35025827927139        0.37114209622804
C           -4.56051648100714        1.50536116564576       -1.47479590623564
C           -3.42679173549329        2.28085610550996       -1.63801245022505
C           -2.48785465294879        2.31451924601182       -0.61922506045878
C           -1.21367301254834        2.99941879721850       -0.51052429923864
C           -0.53894647585246        3.82885668895313       -1.39245024596008
C            0.69602099242639        4.33098853055388       -1.02379409499527
C            1.27302964522659        4.01755765017597        0.20790547228341
C            2.59165389750450        4.55589998346271        0.57006772837997
C            3.52760782845139        3.75801471001219        1.22584288810053
C            4.77347657283349        4.25823854483203        1.55386745872725
C            5.10400573781576        5.56613119584503        1.24064976415823
C            4.17947910293434        6.37073564384819        0.59594673545706
C            2.93528162293065        5.87023458628247        0.26075201156422
C            0.58804236912980        3.18198614202847        1.09359884064036
C           -0.64204093097277        2.68442652668390        0.73237815438322
C            0.29951479035394       -1.52620478191924        1.87690481610732
C            0.94930693829193       -2.55734820592870        1.12755386606296
O            1.51021626714210       -3.56050886373687        1.87656441143581
C            2.01376367706930       -4.63292018754695        1.19478581879007
C            2.45812694211649       -5.70153062108917        1.95310665422270
C            2.98770084439486       -6.82654690621126        1.33694759425440
C            3.05820640318824       -6.87188423666149       -0.03840627768893
C            2.61416483013253       -5.79901482891289       -0.80248431804328
C            2.08970253390066       -4.65813738900492       -0.20785845862867
H            3.88580143492729        2.14218007710219       -3.03333396107381
H            2.31796193055499        2.08389231003454       -2.22407786213997
H            3.65433092275173        2.97157713228010       -1.49295294982205
H            3.30992980700644        0.77433349094732       -0.36185642378442
H            4.89862009269272        0.87142601064340       -1.12356016797630
H            3.99805545384833       -0.37546901809504       -3.10102454760424
H            2.43325955810213       -0.47785252913562       -2.28834685318101
H            5.05613000693516       -1.63084790972371       -1.24005880310502
H            3.50129252173481       -1.75557619597747       -0.42644988552119
H            4.07255466925865       -2.88477545958259       -3.20743027552501
H            4.21998010589536       -3.81334089269175       -1.71168190658585
H            2.05240866247734       -4.21647755421274       -2.88361226578878
H            1.66084518167532       -2.51353608165117       -2.73655343510581
H            0.16626877836356       -1.52637260814562       -1.98504168155276
H           -1.35865540330533       -0.23572836827669       -0.56519054038809
H            0.18447733281413        0.57771016450394       -0.51396987250844
H           -0.92359904931631        0.40572862828264        3.12432912972548
H           -1.94617089368412        2.35711113716142        2.38845764992529
H           -3.98484796148593        0.23901774941284        1.62067722020026
H           -7.30317270914897        1.40769311036497       -0.97826460102347
H           -9.31535145911980        0.01663927978845       -0.74174376300475
H           -9.14774907186636       -2.25237612210603        0.21348633581620
H           -6.95035258068662       -3.12411244844299        0.92229880982184
H           -4.93430983169636       -1.74158316647880        0.66976776083862
H           -5.29057516159265        1.45606407192027       -2.26964798569262
H           -3.27676821390233        2.84629639090846       -2.54590513337573
H           -0.96569028690172        4.07736114356627       -2.35304130323744
H            1.23981654043751        4.96077763738037       -1.71271746914141
H            3.28328995893191        2.73173718128176        1.45781449578110
H            5.49118358636717        3.62416928330807        2.05393501549781
H            6.07725707458127        5.95696331069689        1.49842738850285
H            4.42919593073403        7.39383090808660        0.35443509824805
H            2.21331304325475        6.50869476834404       -0.22745756050020
H            1.01406203179165        2.94502314185204        2.05744052622872
H            0.33607952402977       -1.61726068436190        2.95094996713560
H            2.39073144979669       -5.62769547497008        3.02687756619510
H            3.33865160390899       -7.65231121925639        1.93569412369662
H            3.46359028516658       -7.73908913021739       -0.53710863578444
H            2.68355703341898       -5.87128572707386       -1.87531148351365

 projected vibrational frequencies (cm⁻¹)
eigval :       -0.00    -0.00    -0.00    -0.00    -0.00     0.00
eigval :       10.71    14.76    16.61    21.58    33.88    39.44
eigval :       43.43    46.33    49.13    52.61    54.21    60.50
eigval :       70.84    77.50    85.85    87.05   100.86   114.59
eigval :      121.84   132.39   146.87   154.83   157.21   185.59
eigval :      192.48   203.07   210.39   216.73   236.32   245.06
eigval :      256.87   272.90   288.24   290.87   305.12   316.93
eigval :      348.67   363.11   371.25   372.74   374.28   375.45
eigval :      399.09   403.69   406.05   409.29   425.75   429.33
eigval :      432.29   434.52   456.51   479.11   479.69   487.87
eigval :      498.94   509.39   524.55   531.62   536.50   545.92
eigval :      551.41   557.83   583.23   584.33   588.46   589.33
eigval :      600.65   611.21   614.35   650.73   660.13   665.48
eigval :      670.23   672.61   677.68   683.12   706.93   728.90
eigval :      733.24   735.03   759.68   760.82   762.49   768.74
eigval :      772.10   791.49   798.14   824.54   828.15   835.69
eigval :      838.20   850.61   862.04   866.28   876.55   877.37
eigval :      884.41   887.71   888.40   895.97   902.60   903.81
eigval :      905.42   908.52   910.06   914.31   916.30   916.68
eigval :      930.90   931.12   932.44   932.56   938.45   964.78
eigval :      979.01   981.37   996.06  1006.21  1027.85  1047.79
eigval :     1070.55  1073.50  1074.73  1077.59  1086.73  1086.98
eigval :     1091.33  1100.58  1104.13  1108.78  1122.32  1122.50
eigval :     1126.83  1131.35  1136.41  1138.18  1147.62  1154.02
eigval :     1163.26  1166.50  1175.04  1176.95  1182.55  1182.78
eigval :     1185.65  1191.96  1201.47  1202.20  1211.29  1219.45
eigval :     1223.09  1235.21  1240.08  1241.70  1250.40  1257.38
eigval :     1273.41  1276.82  1278.49  1282.08  1282.31  1286.70
eigval :     1288.74  1290.95  1295.27  1306.46  1309.66  1319.20
eigval :     1319.42  1323.01  1325.26  1325.36  1346.58  1349.64
eigval :     1350.45  1352.92  1364.34  1378.82  1413.58  1417.94
eigval :     1420.37  1420.82  1432.08  1432.42  1439.37  1442.36
eigval :     1458.46  1460.63  1476.37  1480.14  1484.55  1487.99
eigval :     1488.70  1492.69  1493.97  1499.14  1499.66  1506.12
eigval :     1507.22  1536.82  1565.33  1566.00  1578.23  1582.31
eigval :     1586.36  1587.41  1589.18  1595.47  1603.08  1605.36
eigval :     2802.31  2879.69  2904.19  2952.27  2957.53  2963.50
eigval :     2969.63  2971.98  2977.59  2984.52  2987.90  2993.81
eigval :     3025.73  3029.43  3042.95  3050.24  3070.31  3071.04
eigval :     3071.50  3073.14  3074.37  3074.57  3076.62  3079.57
eigval :     3081.41  3082.33  3083.03  3084.73  3085.43  3086.25
eigval :     3087.03  3088.69  3092.00  3093.00  3097.05  3099.62
eigval :     3101.54  3109.50  3113.46

   temp. (K)  partition function   enthalpy   heat capacity  entropy
                                   cal/mol     cal/K/mol   cal/K/mol   J/K/mol
 298.15  VIB  0.485E+19            23496.511    145.891    147.957
         ROT  0.800E+08              888.752      2.981     39.145
         INT  0.388E+27            24385.263    148.872    187.102
         TR   0.141E+29             1481.254      4.968     45.027
         TOT                       25866.5173   153.8398   232.1295   971.2297

       T/K    H(0)-H(T)+PV         H(T)/Eh          T*S/Eh         G(T)/Eh
   ------------------------------------------------------------------------
    298.15    0.412209E-01    0.727306E+00    0.110292E+00    0.617013E+00
   ------------------------------------------------------------------------

         :::::::::::::::::::::::::::::::::::::::::::::::::::::
         ::                  THERMODYNAMIC                  ::
         :::::::::::::::::::::::::::::::::::::::::::::::::::::
         :: total free energy        -120.426171575964 Eh   ::
         ::.................................................::
         :: total energy             -121.043184944905 Eh   ::
         :: zero point energy           0.686084646402 Eh   ::
         :: G(RRHO) w/o ZPVE           -0.069071277460 Eh   ::
         :: G(RRHO) contrib.            0.617013368941 Eh   ::
         :::::::::::::::::::::::::::::::::::::::::::::::::::::

           -------------------------------------------------
          | TOTAL ENERGY             -121.043184944905 Eh   |
          | TOTAL ENTHALPY           -120.315879379435 Eh   |
          | TOTAL FREE ENERGY        -120.426171575964 Eh   |
          | GRADIENT NORM               0.000072874382 Eh/α |
           -------------------------------------------------

 * finished run on 2025/09/09 at 12:32:34.417
