   * xtb version 6.7.1 (edcfbbe) compiled by 'albert@albert-system' on 2024-07-22

   ID    Z sym.   atoms
    1    6 C      1-6, 8-39, 41-46
    2    7 N      7
    3    8 O      40
    4    1 H      47-85

          program call               : xtb data2507/gas/DPFPhe/DPFPhe.xyz --gfn 2 --ohess vtight --parallel 40 --molden --ceasefiles --namespace data2507/gas/DPFPhe/DPFPhe_gas_S0_preOpt
          :  Hamiltonian                  GFN2-xTB          :
 * total energy  :  -121.0972894 Eh     change       -0.1701366E-08 Eh
 * total energy  :  -121.1062832 Eh     change       -0.8993837E-02 Eh
 * total energy  :  -121.1085613 Eh     change       -0.2278141E-02 Eh
 * total energy  :  -121.1092124 Eh     change       -0.6510555E-03 Eh
 * total energy  :  -121.1095926 Eh     change       -0.3801705E-03 Eh
 * total energy  :  -121.1097729 Eh     change       -0.1803606E-03 Eh
 * total energy  :  -121.1099763 Eh     change       -0.2033357E-03 Eh
 * total energy  :  -121.1102131 Eh     change       -0.2368695E-03 Eh
 * total energy  :  -121.1104715 Eh     change       -0.2583293E-03 Eh
 * total energy  :  -121.1107132 Eh     change       -0.2416966E-03 Eh
 * total energy  :  -121.1117112 Eh     change       -0.8224020E-06 Eh
 * total energy  :  -121.1117118 Eh     change       -0.5638941E-06 Eh
 * total energy  :  -121.1117121 Eh     change       -0.3163781E-06 Eh
 * total energy  :  -121.1117123 Eh     change       -0.2313672E-06 Eh
 * total energy  :  -121.1117126 Eh     change       -0.2496413E-06 Eh
 * total energy  :  -121.1117129 Eh     change       -0.3082450E-06 Eh
 * total energy  :  -121.1117133 Eh     change       -0.4045154E-06 Eh
 * total energy  :  -121.1117136 Eh     change       -0.3406182E-06 Eh
 * total energy  :  -121.1117136 Eh     change       -0.2278298E-08 Eh
   *** GEOMETRY OPTIMIZATION CONVERGED AFTER 94 ITERATIONS ***

 final structure:
================
85
 xtb: 6.7.1 (edcfbbe)
C            3.67926140834056        2.59949815501745        1.92475999923203
C            4.53511203751326        1.53454813250141        1.24877985990831
C            3.70773067555943        0.69281966265025        0.28072114590398
C            4.51909919844425       -0.34370478489261       -0.49851073949412
C            5.24837285585269       -1.38907199183999        0.34919726461668
C            4.31444575080894       -2.23255303391236        1.22909158392091
N            3.30591690037453       -2.91997983504085        0.45095039641774
C            1.99265916189667       -2.45088039301916        0.41966438045762
C            1.41555096565269       -1.74552409051486        1.40621016597926
C            0.03974069524233       -1.16624456790205        1.32554548379919
C           -0.57511667895751       -1.20859258204842       -0.04930748363512
C           -1.63767916401146       -0.46723161773697       -0.39602709912529
C           -2.29665641491194        0.56681251234015        0.46431306358585
C           -3.79362226285041        0.63712463390051        0.30596752356813
C           -4.72046071048105       -0.36324407299773        0.48477742751919
C           -6.07491464175500       -0.08264255950025        0.28832091065055
C           -7.08302634248034       -1.13730132590846        0.46748744625638
C           -6.99132310446366       -2.03414516390230        1.52972906833179
C           -7.94152280269923       -3.02322961972833        1.70118455767560
C           -8.99653605368752       -3.13772083505875        0.81151981632616
C           -9.09601223641748       -2.25442597552873       -0.25038912360335
C           -8.14970647669445       -1.26126372223887       -0.42013054041247
C           -6.46233946973286        1.20751262458598       -0.07638485995940
C           -5.53437975078866        2.21717242878709       -0.25483137068838
C           -4.19149519819287        1.93019139443643       -0.06856364424882
C           -3.00524365884433        2.75327954398105       -0.21618730752408
C           -2.84955194988676        4.07993663040716       -0.58644052866284
C           -1.57069621074243        4.59566752371432       -0.69611006496181
C           -0.44682792872136        3.80352911901093       -0.46320046651960
C            0.90401176931745        4.35504532859132       -0.64589294845019
C            1.25097412894724        5.59615430306928       -0.11902488978680
C            2.52624478518998        6.10142531677982       -0.29347656276744
C            3.47069598208201        5.38006475541225       -1.00477225995487
C            3.13301978804611        4.14856086067965       -1.54120040998115
C            1.86084312501024        3.63770176029626       -1.36017037984828
C           -0.60829242152393        2.47218469110312       -0.07425987509235
C           -1.87904332789852        1.96425580495761        0.06332253632560
C            0.01318606382807       -2.12697240133232       -0.98633339201109
C            1.19850853118298       -2.73288892995693       -0.77316973864829
O            1.64438767425824       -3.60358960947824       -1.71888037011951
C            2.84103208480045       -4.23224410010331       -1.52047612234254
C            3.18723216510325       -5.21456525907057       -2.43455966291034
C            4.39481488600167       -5.87779879135072       -2.32092865266063
C            5.25058868806595       -5.55282586446662       -1.28347638780628
C            4.90864958000401       -4.57463071157873       -0.36795064403370
C            3.69653850032839       -3.89021637451506       -0.46208363237273
H            4.27597054029961        3.18921916768637        2.61685967929460
H            3.24772324421545        3.27082207732914        1.18595847661014
H            2.86608752321082        2.13795895831293        2.48169356083183
H            4.97883569893424        0.89623143336811        2.01557368487534
H            5.34967436087816        2.01673554053548        0.70356671262793
H            3.23908262822149        1.36400054840081       -0.44210943635589
H            2.90198042060221        0.19827479589425        0.82577867979891
H            3.84566097276234       -0.85686394574198       -1.18990404464445
H            5.26650015781595        0.17677953504400       -1.10245320311333
H            5.79682491701491       -2.04813592621953       -0.32725912740976
H            5.97665543578738       -0.90085592280446        0.99818367401084
H            3.82163867428272       -1.58203598442017        1.94577060958652
H            4.89947937818813       -2.95949161120590        1.80049043671871
H            1.92210692419315       -1.56186557711472        2.34149023109059
H            0.08256968012082       -0.13592187605196        1.69225873862883
H           -0.61302723114499       -1.71501195033271        2.02043542377476
H           -2.04224055274395       -0.55421427341604       -1.39460100779307
H           -2.05279726747555        0.39178177381012        1.51717539033311
H           -4.40506244398730       -1.36261312407388        0.74826572766414
H           -6.17973177423015       -1.93974087094333        2.23674930903021
H           -7.86049881860932       -3.70730566285011        2.53373824129147
H           -9.73765160874082       -3.91202339866760        0.94490106508819
H           -9.91431359401352       -2.34178091181602       -0.95062456251609
H           -8.22358700963830       -0.58616240676838       -1.26047402540131
H           -7.51351986522750        1.42257539271222       -0.20340445054139
H           -5.85356054773870        3.21018870830338       -0.53520719317392
H           -3.70905254905067        4.69939753249836       -0.79610187855388
H           -1.43248600555946        5.62292410761265       -1.00176204380379
H            0.51989153987483        6.15616088772731        0.44616713288610
H            2.78575373674766        7.06185482934502        0.12789291195624
H            4.46593576280803        5.77656466244358       -1.14142721448600
H            3.86444873565553        3.58476404019386       -2.10234512418456
H            1.59140996819821        2.68427025941541       -1.79239106050641
H            0.25946885336483        1.85808207706713        0.11962442895977
H           -0.50402224403793       -2.31560926831197       -1.91446521348834
H            2.49505062018508       -5.43336138192466       -3.23215549366306
H            4.66272802682175       -6.63888321896065       -3.03654760208251
H            6.19622594590702       -6.06319749114801       -1.18021232529128
H            5.59567716997637       -4.35351249349663        0.43207141916818

          :  Hamiltonian                  GFN2-xTB          :
         :: gradient norm              0.000037641747 Eh/a0 ::
         :: HOMO-LUMO gap              2.354209958044 eV    ::
         :: SCC energy              -123.272611309589 Eh    ::
         :: -> dispersion             -0.110620619948 Eh    ::
         :: repulsion energy           2.160897665629 Eh    ::

    * Orbital Energies and Occupations

         #    Occupation            Energy/Eh            Energy/eV
      -------------------------------------------------------------
         1        2.0000           -0.7263900             -19.7661
       ...           ...                  ...                  ...
       101        2.0000           -0.4127220             -11.2307
       102        2.0000           -0.4110878             -11.1863
       103        2.0000           -0.4082283             -11.1085
       104        2.0000           -0.4031917             -10.9714
       105        2.0000           -0.4026044             -10.9554
       106        2.0000           -0.4007020             -10.9037
       107        2.0000           -0.4004657             -10.8972
       108        2.0000           -0.3953963             -10.7593
       109        2.0000           -0.3913987             -10.6505
       110        2.0000           -0.3900904             -10.6149
       111        2.0000           -0.3665970              -9.9756
       112        2.0000           -0.3467382              -9.4352
       113        2.0000           -0.3435326              -9.3480 (HOMO)
       114                         -0.2570170              -6.9938 (LUMO)
       115                         -0.2518486              -6.8532
       116                         -0.2301807              -6.2635
       117                         -0.2214887              -6.0270
       118                         -0.2188713              -5.9558
       119                         -0.2184951              -5.9456
       120                         -0.2180514              -5.9335
       121                         -0.2149005              -5.8477
       122                         -0.2140652              -5.8250
       123                         -0.2076547              -5.6506
       124                         -0.1763055              -4.7975
       ...                                ...                  ...
       223                          0.7393605              20.1190
      -------------------------------------------------------------
                  HL-Gap            0.0865156 Eh            2.3542 eV

     #   Z          covCN         q      C6AA      α(0)
     1   6 C        3.752    -0.101    22.493     6.763
     2   6 C        3.800    -0.052    21.507     6.603
     3   6 C        3.802    -0.061    21.680     6.629
     4   6 C        3.800    -0.054    21.545     6.609
     5   6 C        3.800    -0.064    21.726     6.636
     6   6 C        3.747    -0.003    20.703     6.490
     7   7 N        2.744    -0.072    22.635     7.066
     8   6 C        2.904     0.040    27.103     8.536
     9   6 C        2.907    -0.078    29.943     8.973
    10   6 C        3.812    -0.056    21.562     6.609
    11   6 C        2.950     0.004    27.938     8.669
    12   6 C        2.908    -0.056    29.383     8.888
    13   6 C        3.893    -0.023    20.928     6.503
    14   6 C        3.051     0.003    27.912     8.665
    15   6 C        2.919    -0.041    29.015     8.833
    16   6 C        2.979     0.006    27.874     8.660
    17   6 C        2.977     0.011    27.768     8.644
    18   6 C        2.925    -0.034    28.843     8.807
    19   6 C        2.918    -0.030    28.747     8.792
    20   6 C        2.920    -0.032    28.787     8.799
    21   6 C        2.918    -0.030    28.745     8.792
    22   6 C        2.925    -0.034    28.845     8.808
    23   6 C        2.926    -0.038    28.954     8.824
    24   6 C        2.912    -0.035    28.876     8.812
    25   6 C        3.038    -0.002    28.035     8.685
    26   6 C        3.036    -0.001    28.024     8.683
    27   6 C        2.913    -0.035    28.875     8.811
    28   6 C        2.925    -0.038    28.952     8.824
    29   6 C        2.980     0.006    27.889     8.663
    30   6 C        2.978     0.011    27.767     8.644
    31   6 C        2.924    -0.034    28.852     8.809
    32   6 C        2.919    -0.030    28.749     8.793
    33   6 C        2.920    -0.032    28.791     8.799
    34   6 C        2.918    -0.029    28.721     8.788
    35   6 C        2.925    -0.033    28.827     8.805
    36   6 C        2.919    -0.041    29.031     8.836
    37   6 C        3.054     0.004    27.892     8.661
    38   6 C        2.914    -0.076    29.899     8.966
    39   6 C        2.873     0.128    25.195     8.228
    40   8 O        1.711    -0.243    18.019     5.731
    41   6 C        2.886     0.120    25.355     8.255
    42   6 C        2.919    -0.056    29.385     8.889
    43   6 C        2.919    -0.043    29.057     8.840
    44   6 C        2.919    -0.041    29.012     8.833
    45   6 C        2.924    -0.061    29.517     8.910
    46   6 C        2.920     0.042    27.068     8.532
    47   1 H        0.925     0.031     2.567     2.506
    48   1 H        0.925     0.035     2.518     2.482
    49   1 H        0.925     0.030     2.591     2.517
    50   1 H        0.924     0.027     2.631     2.537
    51   1 H        0.924     0.028     2.614     2.528
    52   1 H        0.924     0.033     2.538     2.492
    53   1 H        0.924     0.034     2.537     2.491
    54   1 H        0.924     0.029     2.597     2.520
    55   1 H        0.924     0.031     2.579     2.511
    56   1 H        0.924     0.038     2.481     2.463
    57   1 H        0.924     0.038     2.473     2.459
    58   1 H        0.925     0.056     2.242     2.342
    59   1 H        0.924     0.038     2.469     2.457
    60   1 H        0.926     0.024     2.670     2.555
    61   1 H        0.924     0.048     2.349     2.397
    62   1 H        0.923     0.047     2.352     2.398
    63   1 H        0.926     0.030     2.586     2.515
    64   1 H        0.924     0.052     2.299     2.371
    65   1 H        0.926     0.030     2.581     2.512
    66   1 H        0.926     0.030     2.589     2.516
    67   1 H        0.926     0.028     2.614     2.528
    68   1 H        0.926     0.028     2.614     2.528
    69   1 H        0.926     0.028     2.609     2.526
    70   1 H        0.926     0.031     2.575     2.510
    71   1 H        0.926     0.030     2.583     2.513
    72   1 H        0.926     0.029     2.596     2.519
    73   1 H        0.926     0.030     2.587     2.515
    74   1 H        0.926     0.030     2.589     2.516
    75   1 H        0.926     0.030     2.584     2.514
    76   1 H        0.926     0.028     2.609     2.526
    77   1 H        0.926     0.028     2.613     2.528
    78   1 H        0.926     0.029     2.607     2.525
    79   1 H        0.926     0.030     2.581     2.513
    80   1 H        0.926     0.031     2.573     2.508
    81   1 H        0.926     0.045     2.379     2.412
    82   1 H        0.926     0.047     2.356     2.400
    83   1 H        0.926     0.035     2.523     2.484
    84   1 H        0.926     0.032     2.556     2.500
    85   1 H        0.926     0.034     2.528     2.487

molecular dipole:
                 x           y           z       tot (Debye)
 q only:        0.714       0.151       0.659
   full:        0.783       0.187       0.723       2.749

 projected vibrational frequencies (cm⁻¹)
eigval :       -0.00    -0.00     0.00     0.00     0.00     0.00
eigval :       10.80    15.49    21.33    22.54    26.78    33.56
eigval :       40.87    43.90    50.29    55.94    59.72    66.97
eigval :       71.10    73.25    87.30    88.73   107.74   113.35
eigval :      125.64   142.89   149.34   160.38   183.34   188.11
eigval :      199.84   207.14   228.31   235.32   242.52   257.96
eigval :      261.10   273.26   295.42   296.54   321.31   333.84
eigval :      339.01   346.17   357.29   368.14   372.99   374.64
eigval :      377.14   401.59   412.57   425.78   433.93   434.97
eigval :      446.01   465.77   472.88   485.76   487.94   491.82
eigval :      501.70   506.95   516.97   542.35   548.82   557.75
eigval :      572.19   584.58   585.73   589.28   600.18   614.38
eigval :      628.14   633.02   647.94   663.43   668.43   671.91
eigval :      679.19   684.64   706.63   710.21   725.23   744.94
eigval :      756.95   758.13   761.90   774.77   780.92   792.66
eigval :      794.59   807.14   825.14   832.65   836.44   842.50
eigval :      846.42   857.42   863.11   876.09   878.39   881.83
eigval :      888.27   892.80   896.42   901.70   902.88   906.49
eigval :      908.00   913.29   914.83   916.49   918.05   923.39
eigval :      930.26   931.38   932.04   934.52   934.83   980.08
eigval :      981.13   982.91   998.27  1001.75  1044.52  1046.54
eigval :     1074.34  1076.49  1080.59  1084.58  1087.11  1089.28
eigval :     1092.53  1096.72  1115.24  1120.43  1122.08  1129.77
eigval :     1139.13  1143.05  1148.16  1149.38  1163.52  1164.06
eigval :     1170.73  1179.75  1180.81  1182.62  1183.01  1187.89
eigval :     1190.60  1192.55  1199.23  1200.06  1202.47  1221.60
eigval :     1232.42  1233.96  1242.98  1252.06  1253.50  1273.31
eigval :     1276.30  1281.48  1281.84  1282.36  1286.64  1296.20
eigval :     1297.09  1310.11  1310.56  1317.92  1319.67  1324.10
eigval :     1327.54  1329.20  1333.54  1346.67  1348.87  1356.42
eigval :     1364.02  1365.57  1375.18  1393.64  1416.38  1418.83
eigval :     1422.98  1432.97  1439.11  1441.22  1444.67  1455.75
eigval :     1460.86  1475.96  1483.26  1489.03  1492.86  1493.65
eigval :     1494.09  1499.71  1505.97  1508.09  1511.19  1569.91
eigval :     1574.25  1579.16  1582.88  1587.68  1588.38  1594.09
eigval :     1597.76  1604.12  1608.71  1615.55  1655.39  1670.29
eigval :     2861.52  2926.56  2940.80  2941.50  2959.96  2964.73
eigval :     2973.50  2980.24  2981.67  2987.53  2995.98  2999.86
eigval :     3026.02  3034.92  3045.80  3053.93  3068.54  3069.43
eigval :     3070.78  3071.15  3071.60  3073.53  3075.14  3077.53
eigval :     3077.80  3079.44  3080.30  3080.58  3083.11  3083.74
eigval :     3085.44  3085.58  3087.56  3091.04  3091.77  3097.45
eigval :     3098.30  3109.82  3114.29

   temp. (K)  partition function   enthalpy   heat capacity  entropy
                                   cal/mol     cal/K/mol   cal/K/mol   J/K/mol
 298.15  VIB  0.236E+19            23134.119    143.963    145.203
         ROT  0.897E+08              888.752      2.981     39.371
         INT  0.212E+27            24022.871    146.944    184.573
         TR   0.141E+29             1481.254      4.968     45.027
         TOT                       25504.1251   151.9124   229.6009   960.6502

       T/K    H(0)-H(T)+PV         H(T)/Eh          T*S/Eh         G(T)/Eh
   ------------------------------------------------------------------------
    298.15    0.406434E-01    0.731185E+00    0.109091E+00    0.622094E+00
   ------------------------------------------------------------------------

         :::::::::::::::::::::::::::::::::::::::::::::::::::::
         ::                  THERMODYNAMIC                  ::
         :::::::::::::::::::::::::::::::::::::::::::::::::::::
         :: total free energy        -120.489619164332 Eh   ::
         ::.................................................::
         :: total energy             -121.111713643960 Eh   ::
         :: zero point energy           0.690541871060 Eh   ::
         :: G(RRHO) w/o ZPVE           -0.068447391432 Eh   ::
         :: G(RRHO) contrib.            0.622094479629 Eh   ::
         :::::::::::::::::::::::::::::::::::::::::::::::::::::

           -------------------------------------------------
          | TOTAL ENERGY             -121.111713643960 Eh   |
          | TOTAL ENTHALPY           -120.380528362487 Eh   |
          | TOTAL FREE ENERGY        -120.489619164332 Eh   |
          | GRADIENT NORM               0.000037643701 Eh/α |
          | HOMO-LUMO GAP               2.354210262008 eV   |
           -------------------------------------------------

 * finished run on 2025/09/09 at 11:39:24.341
