   * xtb version 6.7.1 (edcfbbe) compiled by 'albert@albert-system' on 2024-07-22

   ID    Z sym.   atoms
    1    6 C      1-26
    2    1 H      27-44

          program call               : xtb data2507/toluene/DPA/DPA_toluene_T1_crest.xyz --gfn 2 --uhf 2 --gbsa toluene --ohess vtight --parallel 40 --molden --ceasefiles --namespace data2507/toluene/DPA/DPA_toluene_T1_finalOpt
      * Solvation model:               GBSA
        Solvent                        toluene
        Solvent mass                       9.2140E+01 g/mol
          :  Hamiltonian                  GFN2-xTB          :
 * total energy  :   -64.7922230 Eh     change       -0.1572289E-08 Eh
 * total energy  :   -64.7922442 Eh     change       -0.2115196E-04 Eh
 * total energy  :   -64.7922496 Eh     change       -0.5474513E-05 Eh
 * total energy  :   -64.7922532 Eh     change       -0.3555732E-05 Eh
 * total energy  :   -64.7922554 Eh     change       -0.2186023E-05 Eh
 * total energy  :   -64.7922572 Eh     change       -0.1805589E-05 Eh
 * total energy  :   -64.7922588 Eh     change       -0.1626146E-05 Eh
 * total energy  :   -64.7922603 Eh     change       -0.1502337E-05 Eh
 * total energy  :   -64.7922618 Eh     change       -0.1448158E-05 Eh
 * total energy  :   -64.7922631 Eh     change       -0.1389948E-05 Eh
 * total energy  :   -64.7922676 Eh     change       -0.1067886E-05 Eh
 * total energy  :   -64.7922686 Eh     change       -0.9692808E-06 Eh
 * total energy  :   -64.7922694 Eh     change       -0.7837276E-06 Eh
 * total energy  :   -64.7922699 Eh     change       -0.5594802E-06 Eh
 * total energy  :   -64.7922703 Eh     change       -0.3920349E-06 Eh
 * total energy  :   -64.7922706 Eh     change       -0.2813666E-06 Eh
 * total energy  :   -64.7922708 Eh     change       -0.2093011E-06 Eh
 * total energy  :   -64.7922710 Eh     change       -0.1559255E-06 Eh
 * total energy  :   -64.7922710 Eh     change       -0.2595954E-08 Eh
   *** GEOMETRY OPTIMIZATION CONVERGED AFTER 22 ITERATIONS ***

 final structure:
================
44
 xtb: 6.7.1 (edcfbbe)
C           -5.68263809823717        0.00185500286009       -0.00024735412474
C           -4.98486095982521        0.65798773652398       -1.00261723238704
C           -3.60351018236839        0.66471472127347       -1.00097875004727
C           -2.88618023712606        0.00125745155319       -0.00077701955955
C           -1.42388438259855        0.00064516354482       -0.00134360491087
C           -0.71416051930796       -1.23866695217029       -0.02873635573654
C           -1.37751597967372       -2.46450181202678       -0.13207865642820
C           -0.68570695864809       -3.67515225064202       -0.08247845641301
C            0.68227847357239       -3.67588045329700        0.07623138210051
C            1.37522657489055       -2.46593926711843        0.12717639904806
C            0.71303914490490       -1.23937322803292        0.02495560505012
C            1.42390553378441       -0.00071112444540       -0.00122748787201
C            2.88620471479552       -0.00131444130212       -0.00073321388143
C            3.60335259382296        0.66093640245880        1.00040815860579
C            4.98469945462437        0.65342151752706        1.00279708571661
C            5.68264681702580       -0.00229016674548        0.00026705426117
C            4.98495294159660       -0.65753202318889       -1.00274199409846
C            3.60359594642007       -0.66406929317664       -1.00135970815301
C            0.71419034631018        1.23861217038914       -0.02788248372253
C            1.37756863668496        2.46449860254205       -0.13046227099598
C            0.68576947038538        3.67512390267194       -0.08011417812164
C           -0.68221529337555        3.67576035957256        0.07861334532030
C           -1.37518160476700        2.46579552616838        0.12876021641911
C           -0.71301061848584        1.23928821063918        0.02572097002741
C           -3.60341138954058       -0.66186012595941        0.99974191892061
C           -4.98476398879043       -0.65454124043286        1.00188407608526
H           -6.76276104968397        0.00202433002662       -0.00009742679071
H           -5.52172963322637        1.16540859693860       -1.79153483742339
H           -3.06305178132254        1.16138397482429       -1.79432998052371
H           -2.44953469077309       -2.47872864097834       -0.25648465981406
H           -1.23228989899781       -4.60379132151201       -0.15654613018507
H            1.22798828426980       -4.60511689730895        0.14924140631970
H            2.44721552236778       -2.48130652454881        0.25169438482576
H            3.06272143518318        1.15735563566111        1.79380045584286
H            5.52143522646524        1.15994236787278        1.79238431821816
H            6.76276935478400       -0.00267236879624        0.00065019524533
H            5.52189861780485       -1.16442188705550       -1.79194859085511
H            3.06319329852136       -1.16007972391173       -1.79516237958412
H            2.44959012723582        2.47877719652727       -0.25484605864790
H            1.23235740959787        4.60380785491359       -0.15358848578517
H           -1.22790992282795        4.60495656862259        0.15225288244084
H           -2.44716847468294        2.48109410877961        0.25330687022385
H           -3.06286465312668       -1.15885161171939        1.79283101224635
H           -5.52156815606206       -1.16178960012196        1.79095867724312

          :  Hamiltonian                  GFN2-xTB          :
         :: gradient norm              0.000033788598 Eh/a0 ::
         :: HOMO-LUMO gap              1.648952681758 eV    ::
         :: SCC energy               -66.054967477388 Eh    ::
         :: -> dispersion             -0.058357340293 Eh    ::
         :: -> Gsolv                  -0.025747768007 Eh    ::
         :: repulsion energy           1.262696503255 Eh    ::

    * Orbital Energies and Occupations

         #    Occupation            Energy/Eh            Energy/eV
      -------------------------------------------------------------
         1        2.0000           -0.6514190             -17.7260
       ...           ...                  ...                  ...
        50        2.0000           -0.4240311             -11.5385
        51        2.0000           -0.4226521             -11.5009
        52        2.0000           -0.4199636             -11.4278
        53        2.0000           -0.4161821             -11.3249
        54        2.0000           -0.4079771             -11.1016
        55        2.0000           -0.4047678             -11.0143
        56        2.0000           -0.4041389             -10.9972
        57        2.0000           -0.3999380             -10.8829
        58        2.0000           -0.3998548             -10.8806
        59        2.0000           -0.3957091             -10.7678
        60        2.0000           -0.3942188             -10.7272
        61        1.0000           -0.3487477              -9.4899
        62        1.0000           -0.2869958              -7.8096 (HOMO)
        63                         -0.2263980              -6.1606 (LUMO)
        64                         -0.2262064              -6.1554
        65                         -0.2253967              -6.1334
        66                         -0.2244180              -6.1067
        67                         -0.2221845              -6.0459
        68                         -0.2201578              -5.9908
        69                         -0.1743934              -4.7455
        70                         -0.1722212              -4.6864
        71                         -0.0977285              -2.6593
        72                         -0.0962249              -2.6184
        73                         -0.0921583              -2.5078
       ...                                ...                  ...
       122                          0.7099254              19.3181
      -------------------------------------------------------------
                  HL-Gap            0.0605979 Eh            1.6490 eV

     #   Z          covCN         q      C6AA      α(0)
     1   6 C        2.919    -0.033    28.811     8.802
     2   6 C        2.917    -0.031    28.764     8.795
     3   6 C        2.924    -0.032    28.805     8.801
     4   6 C        2.973     0.015    27.664     8.627
     5   6 C        2.972    -0.011    28.293     8.725
     6   6 C        2.976     0.008    27.839     8.655
     7   6 C        2.921    -0.039    28.972     8.827
     8   6 C        2.913    -0.032    28.808     8.801
     9   6 C        2.913    -0.032    28.808     8.801
    10   6 C        2.921    -0.039    28.972     8.827
    11   6 C        2.976     0.008    27.839     8.655
    12   6 C        2.972    -0.011    28.293     8.725
    13   6 C        2.973     0.015    27.664     8.627
    14   6 C        2.924    -0.032    28.805     8.801
    15   6 C        2.917    -0.031    28.764     8.795
    16   6 C        2.919    -0.033    28.811     8.802
    17   6 C        2.917    -0.031    28.764     8.795
    18   6 C        2.924    -0.032    28.805     8.801
    19   6 C        2.976     0.008    27.839     8.655
    20   6 C        2.921    -0.039    28.972     8.827
    21   6 C        2.913    -0.032    28.808     8.801
    22   6 C        2.913    -0.032    28.808     8.801
    23   6 C        2.921    -0.039    28.972     8.827
    24   6 C        2.976     0.008    27.839     8.655
    25   6 C        2.924    -0.032    28.805     8.801
    26   6 C        2.917    -0.031    28.764     8.795
    27   1 H        0.926     0.031     2.575     2.509
    28   1 H        0.926     0.032     2.562     2.503
    29   1 H        0.926     0.032     2.560     2.502
    30   1 H        0.926     0.032     2.551     2.498
    31   1 H        0.926     0.029     2.596     2.520
    32   1 H        0.926     0.029     2.596     2.520
    33   1 H        0.926     0.033     2.551     2.498
    34   1 H        0.926     0.032     2.560     2.502
    35   1 H        0.926     0.032     2.562     2.503
    36   1 H        0.926     0.031     2.575     2.509
    37   1 H        0.926     0.032     2.562     2.503
    38   1 H        0.926     0.032     2.560     2.502
    39   1 H        0.926     0.032     2.551     2.498
    40   1 H        0.926     0.029     2.596     2.520
    41   1 H        0.926     0.029     2.596     2.520
    42   1 H        0.926     0.033     2.551     2.498
    43   1 H        0.926     0.032     2.560     2.502
    44   1 H        0.926     0.032     2.562     2.503

molecular dipole:
                 x           y           z       tot (Debye)
 q only:       -0.000      -0.000       0.000
   full:       -0.000      -0.000       0.000       0.000

 projected vibrational frequencies (cm⁻¹)
eigval :       -0.00    -0.00     0.00     0.00     0.00     0.00
eigval :       24.15    49.03    53.98    65.88    70.53    76.78
eigval :       93.89   127.09   191.31   195.70   200.06   236.14
eigval :      237.28   240.42   259.03   362.61   368.35   372.59
eigval :      378.55   396.21   397.19   402.08   422.74   455.76
eigval :      467.63   485.74   564.60   574.48   575.84   579.44
eigval :      588.53   592.82   607.42   613.89   663.25   669.09
eigval :      673.26   676.50   714.37   725.91   745.40   754.12
eigval :      755.42   761.49   842.18   842.79   875.50   881.63
eigval :      884.85   891.06   891.42   899.20   901.42   904.19
eigval :      905.20   907.61   909.67   930.04   930.46   933.41
eigval :      933.47   943.49   987.11   993.86  1080.78  1081.37
eigval :     1100.44  1102.57  1110.32  1118.46  1119.05  1125.52
eigval :     1179.56  1180.41  1180.50  1181.12  1182.77  1194.08
eigval :     1199.81  1201.22  1228.60  1254.76  1267.39  1278.50
eigval :     1282.67  1295.56  1299.15  1310.73  1311.81  1338.67
eigval :     1366.62  1372.27  1377.47  1406.93  1422.55  1422.62
eigval :     1423.83  1458.22  1459.46  1479.93  1481.31  1518.47
eigval :     1527.76  1557.54  1558.82  1558.83  1581.18  1582.06
eigval :     3066.46  3066.48  3067.14  3067.20  3071.14  3071.26
eigval :     3076.06  3076.25  3078.89  3079.06  3080.07  3080.19
eigval :     3087.94  3088.11  3091.93  3092.25  3094.83  3096.58

   temp. (K)  partition function   enthalpy   heat capacity  entropy
                                   cal/mol     cal/K/mol   cal/K/mol   J/K/mol
 298.15  VIB  0.154E+08            10917.173     75.005     65.811
         ROT  0.267E+07              888.752      2.981     32.389
         INT  0.411E+14            11805.925     77.986     98.200
         TR   0.581E+28             1481.254      4.968     43.261
         TOT                       13287.1789    82.9539   141.4613   591.8740

       T/K    H(0)-H(T)+PV         H(T)/Eh          T*S/Eh         G(T)/Eh
   ------------------------------------------------------------------------
    298.15    0.211745E-01    0.362555E+00    0.672128E-01    0.295342E+00
   ------------------------------------------------------------------------

         :::::::::::::::::::::::::::::::::::::::::::::::::::::
         ::                  THERMODYNAMIC                  ::
         :::::::::::::::::::::::::::::::::::::::::::::::::::::
         :: total free energy         -64.496929099338 Eh   ::
         ::.................................................::
         :: total energy              -64.792270974176 Eh   ::
         :: zero point energy           0.341380226855 Eh   ::
         :: G(RRHO) w/o ZPVE           -0.046038352016 Eh   ::
         :: G(RRHO) contrib.            0.295341874838 Eh   ::
         :::::::::::::::::::::::::::::::::::::::::::::::::::::

           -------------------------------------------------
          | TOTAL ENERGY              -64.792270974176 Eh   |
          | TOTAL ENTHALPY            -64.429716279890 Eh   |
          | TOTAL FREE ENERGY         -64.496929099338 Eh   |
          | GRADIENT NORM               0.000033783611 Eh/α |
          | HOMO-LUMO GAP               1.648952532529 eV   |
           -------------------------------------------------

 * finished run on 2025/09/12 at 05:53:15.497
