   * xtb version 6.7.1 (edcfbbe) compiled by 'albert@albert-system' on 2024-07-22

   ID    Z sym.   atoms
    1    6 C      1-26
    2    1 H      27-44

          program call               : xtb data2507/toluene/DPA/DPA_toluene_S0_finalOpt.xtbopt.xyz --gfn 2 --uhf 2 --gbsa toluene --ohess vtight --parallel 40 --molden --ceasefiles --namespace data2507/toluene/DPA/DPA_toluene_T1_preOpt
      * Solvation model:               GBSA
        Solvent                        toluene
        Solvent mass                       9.2140E+01 g/mol
          :  Hamiltonian                  GFN2-xTB          :
 * total energy  :   -64.7826681 Eh     change       -0.1023153E-08 Eh
 * total energy  :   -64.7888759 Eh     change       -0.6207753E-02 Eh
 * total energy  :   -64.7902222 Eh     change       -0.1346355E-02 Eh
 * total energy  :   -64.7903249 Eh     change       -0.1026223E-03 Eh
 * total energy  :   -64.7904024 Eh     change       -0.7757533E-04 Eh
 * total energy  :   -64.7904428 Eh     change       -0.4040500E-04 Eh
 * total energy  :   -64.7904855 Eh     change       -0.4263361E-04 Eh
 * total energy  :   -64.7905391 Eh     change       -0.5364220E-04 Eh
 * total energy  :   -64.7905984 Eh     change       -0.5923454E-04 Eh
 * total energy  :   -64.7906494 Eh     change       -0.5109668E-04 Eh
 * total energy  :   -64.7922651 Eh     change       -0.6613666E-06 Eh
 * total energy  :   -64.7922657 Eh     change       -0.5955809E-06 Eh
 * total energy  :   -64.7922663 Eh     change       -0.5237715E-06 Eh
 * total energy  :   -64.7922667 Eh     change       -0.4601793E-06 Eh
 * total energy  :   -64.7922671 Eh     change       -0.4067132E-06 Eh
 * total energy  :   -64.7922675 Eh     change       -0.3638615E-06 Eh
 * total energy  :   -64.7922678 Eh     change       -0.3285463E-06 Eh
 * total energy  :   -64.7922681 Eh     change       -0.2988451E-06 Eh
 * total energy  :   -64.7922681 Eh     change       -0.2713222E-08 Eh
   *** GEOMETRY OPTIMIZATION CONVERGED AFTER 68 ITERATIONS ***

 final structure:
================
44
 xtb: 6.7.1 (edcfbbe)
C           -5.68222667872559       -0.00323672665813        0.00076131442506
C           -4.98519626398676        0.64249826904673       -1.00880760872261
C           -3.60377912187805        0.65050007441601       -1.00727834000979
C           -2.88624530377526       -0.00175960196335       -0.00016389408358
C           -1.42353126448057       -0.00100498848238       -0.00053802228961
C           -0.71302939713558       -1.23968892082195       -0.02768672315455
C           -1.37595364253207       -2.46602447933251       -0.12747184272333
C           -0.68268933581240       -3.67612962975534       -0.08249367323336
C            0.68629855139090       -3.67577060601348        0.06690753108177
C            1.37842106624568       -2.46518948278983        0.11658576099886
C            0.71432701223740       -1.23910678560642        0.02157927950253
C            1.42360756161999        0.00036396623295       -0.00059152523597
C            2.88632246826985        0.00112554139280       -0.00023772407855
C            3.60250058762947        0.65009923222149        1.00996625333043
C            4.98392042978505        0.64356403748143        1.01237317683259
C            5.68227864719244        0.00262366105755        0.00066850387625
C            4.98525199343550       -0.63905496976533       -1.01148778303028
C            3.60383331362511       -0.64707154508438       -1.00998544977340
C            0.71311536747123        1.23914283022903       -0.02293989954054
C            1.37604565217813        2.46584293739566       -0.11807862764542
C            0.68277861677076        3.67577316400642       -0.06849438609762
C           -0.68620157328385        3.67484524292810        0.08097393516442
C           -1.37831739328463        2.46408863116655        0.12610628544980
C           -0.71423846196019        1.23837068244693        0.02638606586142
C           -3.60243854835858       -0.65478587382046        1.00741634189569
C           -4.98385739574537       -0.64824495328846        1.00986786888928
H           -6.76235516203248       -0.00379429913308        0.00111178347660
H           -5.52261326136941        1.14081023667201       -1.80313292470401
H           -3.06351275676733        1.13961848741896       -1.80545715886307
H           -2.44871990818790       -2.48104740775717       -0.24523741664263
H           -1.22891210767650       -4.60520976290767       -0.15367220573382
H            1.23340491201172       -4.60460406494192        0.13444264454131
H            2.45119728270963       -2.47965662037023        0.23431474724973
H            3.06115114440102        1.13543226028810        1.80972665395887
H            5.52030383721081        1.13926494582159        1.80902712758398
H            6.76240655445134        0.00319293621629        0.00100932625546
H            5.52268044198685       -1.13417638212218       -1.80779765352477
H            3.06353018399760       -1.13297019367496       -1.81010990061307
H            2.44880813528626        2.48131257616212       -0.23581779694305
H            1.22900380618088        4.60511662121553       -0.13613874148179
H           -1.23329866960183        4.60341550590095        0.15209731630838
H           -2.45108582001411        2.47810860905366        0.24396467331764
H           -3.06112131114389       -1.14334577336866        1.80522520595589
H           -5.52022461003239       -1.14712467043983        1.80454628688333

          :  Hamiltonian                  GFN2-xTB          :
         :: gradient norm              0.000042535073 Eh/a0 ::
         :: HOMO-LUMO gap              1.648088119645 eV    ::
         :: SCC energy               -66.055043756179 Eh    ::
         :: -> dispersion             -0.058343269932 Eh    ::
         :: -> Gsolv                  -0.025770826408 Eh    ::
         :: repulsion energy           1.262775635936 Eh    ::

    * Orbital Energies and Occupations

         #    Occupation            Energy/Eh            Energy/eV
      -------------------------------------------------------------
         1        2.0000           -0.6514366             -17.7265
       ...           ...                  ...                  ...
        50        2.0000           -0.4241010             -11.5404
        51        2.0000           -0.4226460             -11.5008
        52        2.0000           -0.4199139             -11.4264
        53        2.0000           -0.4162215             -11.3260
        54        2.0000           -0.4079294             -11.1003
        55        2.0000           -0.4048117             -11.0155
        56        2.0000           -0.4040884             -10.9958
        57        2.0000           -0.3999830             -10.8841
        58        2.0000           -0.3998422             -10.8803
        59        2.0000           -0.3958637             -10.7720
        60        2.0000           -0.3942362             -10.7277
        61        1.0000           -0.3488263              -9.4920
        62        1.0000           -0.2869238              -7.8076 (HOMO)
        63                         -0.2263577              -6.1595 (LUMO)
        64                         -0.2261769              -6.1546
        65                         -0.2253431              -6.1319
        66                         -0.2244154              -6.1067
        67                         -0.2222390              -6.0474
        68                         -0.2202265              -5.9927
        69                         -0.1745738              -4.7504
        70                         -0.1722948              -4.6884
        71                         -0.0976451              -2.6571
        72                         -0.0961638              -2.6167
        73                         -0.0922910              -2.5114
       ...                                ...                  ...
       122                          0.7099478              19.3187
      -------------------------------------------------------------
                  HL-Gap            0.0605661 Eh            1.6481 eV

     #   Z          covCN         q      C6AA      α(0)
     1   6 C        2.919    -0.033    28.811     8.802
     2   6 C        2.917    -0.031    28.763     8.795
     3   6 C        2.924    -0.032    28.804     8.801
     4   6 C        2.974     0.015    27.662     8.627
     5   6 C        2.972    -0.011    28.292     8.725
     6   6 C        2.976     0.008    27.839     8.655
     7   6 C        2.921    -0.039    28.972     8.827
     8   6 C        2.913    -0.032    28.807     8.801
     9   6 C        2.913    -0.032    28.807     8.801
    10   6 C        2.921    -0.039    28.972     8.827
    11   6 C        2.976     0.008    27.839     8.655
    12   6 C        2.973    -0.011    28.292     8.725
    13   6 C        2.974     0.015    27.662     8.627
    14   6 C        2.924    -0.032    28.804     8.801
    15   6 C        2.917    -0.031    28.763     8.795
    16   6 C        2.919    -0.033    28.811     8.802
    17   6 C        2.917    -0.031    28.763     8.795
    18   6 C        2.924    -0.032    28.804     8.801
    19   6 C        2.976     0.008    27.839     8.655
    20   6 C        2.921    -0.039    28.972     8.827
    21   6 C        2.913    -0.032    28.807     8.801
    22   6 C        2.913    -0.032    28.807     8.801
    23   6 C        2.921    -0.039    28.972     8.827
    24   6 C        2.976     0.008    27.839     8.655
    25   6 C        2.924    -0.032    28.804     8.801
    26   6 C        2.917    -0.031    28.763     8.795
    27   1 H        0.926     0.031     2.574     2.509
    28   1 H        0.926     0.032     2.562     2.503
    29   1 H        0.926     0.032     2.561     2.503
    30   1 H        0.926     0.032     2.553     2.498
    31   1 H        0.926     0.029     2.596     2.520
    32   1 H        0.926     0.029     2.596     2.520
    33   1 H        0.926     0.032     2.553     2.498
    34   1 H        0.926     0.032     2.561     2.503
    35   1 H        0.926     0.032     2.562     2.503
    36   1 H        0.926     0.031     2.574     2.509
    37   1 H        0.926     0.032     2.562     2.503
    38   1 H        0.926     0.032     2.561     2.503
    39   1 H        0.926     0.032     2.553     2.499
    40   1 H        0.926     0.029     2.596     2.520
    41   1 H        0.926     0.029     2.596     2.520
    42   1 H        0.926     0.032     2.553     2.498
    43   1 H        0.926     0.032     2.561     2.503
    44   1 H        0.926     0.032     2.562     2.503

molecular dipole:
                 x           y           z       tot (Debye)
 q only:       -0.000       0.000       0.000
   full:       -0.000       0.000       0.000       0.000

 projected vibrational frequencies (cm⁻¹)
eigval :       -0.00    -0.00     0.00     0.00     0.00     0.00
eigval :       23.46    44.49    52.41    63.33    70.06    76.50
eigval :       91.90   124.09   189.87   195.50   199.65   235.01
eigval :      237.00   239.99   257.72   360.62   368.32   372.65
eigval :      378.38   395.95   396.56   402.41   419.96   454.92
eigval :      467.30   485.31   564.09   574.46   575.61   579.22
eigval :      588.02   592.71   607.60   613.82   662.75   668.88
eigval :      672.33   676.76   714.00   725.94   744.58   754.62
eigval :      755.50   761.56   840.55   841.42   875.91   882.04
eigval :      884.24   890.53   890.89   899.46   901.30   904.21
eigval :      905.12   907.70   909.60   930.44   930.79   933.38
eigval :      933.43   943.29   987.30   994.16  1080.92  1081.50
eigval :     1100.26  1102.48  1110.14  1118.66  1119.10  1125.52
eigval :     1179.61  1180.89  1180.92  1181.18  1183.06  1194.35
eigval :     1199.96  1201.15  1228.38  1254.80  1267.55  1278.84
eigval :     1282.86  1295.40  1299.36  1310.51  1311.56  1339.01
eigval :     1366.89  1371.96  1377.76  1406.79  1422.64  1422.76
eigval :     1423.92  1458.52  1459.92  1479.53  1481.36  1518.02
eigval :     1527.66  1557.71  1559.29  1559.29  1581.47  1582.31
eigval :     3066.53  3066.54  3067.13  3067.16  3071.08  3071.20
eigval :     3075.87  3075.93  3078.75  3078.85  3080.00  3080.13
eigval :     3087.94  3088.09  3091.88  3092.21  3094.77  3096.54

   temp. (K)  partition function   enthalpy   heat capacity  entropy
                                   cal/mol     cal/K/mol   cal/K/mol   J/K/mol
 298.15  VIB  0.195E+08            10946.713     74.872     66.056
         ROT  0.267E+07              888.752      2.981     32.389
         INT  0.521E+14            11835.466     77.853     98.445
         TR   0.581E+28             1481.254      4.968     43.261
         TOT                       13316.7197    82.8211   141.7056   592.8962

       T/K    H(0)-H(T)+PV         H(T)/Eh          T*S/Eh         G(T)/Eh
   ------------------------------------------------------------------------
    298.15    0.212215E-01    0.362532E+00    0.673289E-01    0.295203E+00
   ------------------------------------------------------------------------

         :::::::::::::::::::::::::::::::::::::::::::::::::::::
         ::                  THERMODYNAMIC                  ::
         :::::::::::::::::::::::::::::::::::::::::::::::::::::
         :: total free energy         -64.497065078709 Eh   ::
         ::.................................................::
         :: total energy              -64.792268120440 Eh   ::
         :: zero point energy           0.341310395383 Eh   ::
         :: G(RRHO) w/o ZPVE           -0.046107353651 Eh   ::
         :: G(RRHO) contrib.            0.295203041731 Eh   ::
         :::::::::::::::::::::::::::::::::::::::::::::::::::::

           -------------------------------------------------
          | TOTAL ENERGY              -64.792268120440 Eh   |
          | TOTAL ENTHALPY            -64.429736181461 Eh   |
          | TOTAL FREE ENERGY         -64.497065078709 Eh   |
          | GRADIENT NORM               0.000042534806 Eh/α |
          | HOMO-LUMO GAP               1.648088143833 eV   |
           -------------------------------------------------

 * finished run on 2025/09/12 at 05:52:23.344
