   * xtb version 6.7.1 (edcfbbe) compiled by 'albert@albert-system' on 2024-07-22

   ID    Z sym.   atoms
    1    6 C      1-26
    2    1 H      27-44

          program call               : xtb data2507/toluene/DPA/DPA_toluene_S0_crest.xyz --gfn 2 --gbsa toluene --ohess vtight --parallel 40 --molden --ceasefiles --namespace data2507/toluene/DPA/DPA_toluene_S0_finalOpt
      * Solvation model:               GBSA
        Solvent                        toluene
        Solvent mass                       9.2140E+01 g/mol
          :  Hamiltonian                  GFN2-xTB          :
 * total energy  :   -64.8619946 Eh     change       -0.8019327E-09 Eh
 * total energy  :   -64.8620144 Eh     change       -0.1979902E-04 Eh
 * total energy  :   -64.8620239 Eh     change       -0.9551642E-05 Eh
 * total energy  :   -64.8620349 Eh     change       -0.1097552E-04 Eh
 * total energy  :   -64.8620452 Eh     change       -0.1029212E-04 Eh
 * total energy  :   -64.8620527 Eh     change       -0.7516137E-05 Eh
 * total energy  :   -64.8620581 Eh     change       -0.5412409E-05 Eh
 * total energy  :   -64.8620628 Eh     change       -0.4663265E-05 Eh
 * total energy  :   -64.8620678 Eh     change       -0.5003724E-05 Eh
 * total energy  :   -64.8620735 Eh     change       -0.5774496E-05 Eh
 * total energy  :   -64.8621702 Eh     change       -0.2857057E-06 Eh
 * total energy  :   -64.8621705 Eh     change       -0.2802135E-06 Eh
 * total energy  :   -64.8621708 Eh     change       -0.2632575E-06 Eh
 * total energy  :   -64.8621710 Eh     change       -0.2408523E-06 Eh
 * total energy  :   -64.8621713 Eh     change       -0.2352912E-06 Eh
 * total energy  :   -64.8621715 Eh     change       -0.2211862E-06 Eh
 * total energy  :   -64.8621717 Eh     change       -0.2131956E-06 Eh
 * total energy  :   -64.8621719 Eh     change       -0.2060430E-06 Eh
 * total energy  :   -64.8621719 Eh     change       -0.2513048E-08 Eh
   *** GEOMETRY OPTIMIZATION CONVERGED AFTER 68 ITERATIONS ***

 final structure:
================
44
 xtb: 6.7.1 (edcfbbe)
C           -5.67683559259860       -0.00335366105147        0.00088871645356
C           -4.98269638327666        0.30029951976736       -1.15879367281377
C           -3.59897592014464        0.30328012413460       -1.16015410095569
C           -2.89332092539401       -0.00170331420811       -0.00040325115529
C           -1.41237649551357       -0.00093400910804       -0.00075416889940
C           -0.71440931569157       -1.21641760218297       -0.00758274909023
C           -1.39005459577251       -2.46542944208313       -0.03456076791535
C           -0.70304864974327       -3.64019097429663       -0.02766294468165
C            0.70641216611346       -3.63963590906581        0.00988959079482
C            1.39241644681981       -2.46432599471807        0.02224404662046
C            0.71575210701198       -1.21576221771537        0.00058645512048
C            1.41257171099615        0.00044090223570       -0.00071329716439
C            2.89348260220084        0.00116656350396       -0.00028317896623
C            3.59791694323963        0.30572405004545        1.16036067428352
C            4.98163157335097        0.30425190237368        1.16023326777517
C            5.67704065037820        0.00242959364636        0.00084145900752
C            4.98282999304400       -0.29999969641063       -1.15910949105600
C            3.59911381242090       -0.30273693681763       -1.16036590217454
C            0.71456484362354        1.21596107935810       -0.00214675481653
C            1.39001915277699        2.46518034576049       -0.02386678201036
C            0.70287261848708        3.63982230032964       -0.01149462399612
C           -0.70658461726531        3.63900413188801        0.02626643823474
C           -1.39245265076073        2.46357803183369        0.03320458320879
C           -0.71559745628853        1.21522625593974        0.00604026786564
C           -3.59766583959441       -0.30751197338019        1.15995594774722
C           -4.98137830139217       -0.30619469791834        1.15997043932304
H           -6.75722225921092       -0.00399052363444        0.00127590467492
H           -5.52098670254528        0.53647726550544       -2.06560547965639
H           -3.05495407578139        0.53956107760314       -2.06399033555507
H           -2.46994538066348       -2.46496075588837       -0.06141829067359
H           -1.23175116879169       -4.58232762655419       -0.04831665165379
H            1.23594764027668       -4.58138665246621        0.02637151954310
H            2.47228454182871       -2.46315267795399        0.04955213305322
H            3.05288101372321        0.54051418266702        2.06397189350776
H            5.51887441416991        0.54020875361469        2.06773200803535
H            6.75743047375740        0.00289367877488        0.00127330664953
H            5.52102501439933       -0.53548923942521       -2.06616304609006
H            3.05503570328658       -0.53802395098028       -2.06442445070422
H            2.46988643647087        2.46504811758101       -0.05131999247647
H            1.23148387547567        4.58209042372088       -0.02816378211778
H           -1.23619139799738        4.58062687478805        0.04715847625243
H           -2.47233549424997        2.46204856333784        0.06036433918576
H           -3.05251085226931       -0.54314968046550        2.06324707499004
H           -5.51853997800691       -0.54304346788534        2.06730393849557

          :  Hamiltonian                  GFN2-xTB          :
         :: gradient norm              0.000121636536 Eh/a0 ::
         :: HOMO-LUMO gap              2.158195232390 eV    ::
         :: SCC energy               -66.143728994952 Eh    ::
         :: -> dispersion             -0.058230327786 Eh    ::
         :: -> Gsolv                  -0.026114599166 Eh    ::
         :: repulsion energy           1.281557101157 Eh    ::

    * Orbital Energies and Occupations

         #    Occupation            Energy/Eh            Energy/eV
      -------------------------------------------------------------
         1        2.0000           -0.6534328             -17.7808
       ...           ...                  ...                  ...
        49        2.0000           -0.4258341             -11.5875
        50        2.0000           -0.4248117             -11.5597
        51        2.0000           -0.4218919             -11.4803
        52        2.0000           -0.4192745             -11.4090
        53        2.0000           -0.4180363             -11.3753
        54        2.0000           -0.4061897             -11.0530
        55        2.0000           -0.4048773             -11.0173
        56        2.0000           -0.4043984             -11.0042
        57        2.0000           -0.3996186             -10.8742
        58        2.0000           -0.3992416             -10.8639
        59        2.0000           -0.3977715             -10.8239
        60        2.0000           -0.3941842             -10.7263
        61        2.0000           -0.3574054              -9.7255 (HOMO)
        62                         -0.2780932              -7.5673 (LUMO)
        63                         -0.2301276              -6.2621
        64                         -0.2235991              -6.0844
        65                         -0.2235831              -6.0840
        66                         -0.2232752              -6.0756
        67                         -0.2228875              -6.0651
        68                         -0.2188164              -5.9543
        69                         -0.1747600              -4.7555
        70                         -0.1712550              -4.6601
        71                         -0.0977236              -2.6592
        72                         -0.0939467              -2.5564
       ...                                ...                  ...
       122                          0.7152697              19.4635
      -------------------------------------------------------------
                  HL-Gap            0.0793122 Eh            2.1582 eV

     #   Z          covCN         q      C6AA      α(0)
     1   6 C        2.920    -0.033    28.816     8.803
     2   6 C        2.919    -0.031    28.762     8.795
     3   6 C        2.924    -0.033    28.812     8.802
     4   6 C        2.977     0.016    27.657     8.627
     5   6 C        2.977    -0.007    28.185     8.708
     6   6 C        2.983     0.005    27.902     8.665
     7   6 C        2.917    -0.035    28.868     8.811
     8   6 C        2.914    -0.031    28.779     8.797
     9   6 C        2.914    -0.031    28.779     8.797
    10   6 C        2.917    -0.035    28.868     8.811
    11   6 C        2.983     0.005    27.902     8.665
    12   6 C        2.977    -0.007    28.185     8.708
    13   6 C        2.977     0.016    27.658     8.627
    14   6 C        2.924    -0.033    28.812     8.802
    15   6 C        2.918    -0.031    28.762     8.795
    16   6 C        2.920    -0.033    28.816     8.803
    17   6 C        2.918    -0.031    28.762     8.795
    18   6 C        2.924    -0.033    28.812     8.802
    19   6 C        2.983     0.005    27.902     8.665
    20   6 C        2.917    -0.035    28.868     8.811
    21   6 C        2.914    -0.031    28.779     8.797
    22   6 C        2.914    -0.031    28.779     8.797
    23   6 C        2.917    -0.035    28.868     8.811
    24   6 C        2.983     0.005    27.902     8.665
    25   6 C        2.924    -0.033    28.812     8.802
    26   6 C        2.918    -0.031    28.761     8.794
    27   1 H        0.926     0.031     2.578     2.511
    28   1 H        0.926     0.031     2.569     2.506
    29   1 H        0.926     0.029     2.599     2.521
    30   1 H        0.926     0.031     2.576     2.510
    31   1 H        0.926     0.030     2.591     2.517
    32   1 H        0.926     0.030     2.591     2.517
    33   1 H        0.926     0.031     2.576     2.510
    34   1 H        0.926     0.029     2.599     2.521
    35   1 H        0.926     0.031     2.569     2.506
    36   1 H        0.926     0.031     2.578     2.511
    37   1 H        0.926     0.031     2.569     2.506
    38   1 H        0.926     0.029     2.599     2.521
    39   1 H        0.926     0.031     2.576     2.510
    40   1 H        0.926     0.030     2.591     2.517
    41   1 H        0.926     0.030     2.591     2.517
    42   1 H        0.926     0.031     2.576     2.510
    43   1 H        0.926     0.029     2.599     2.521
    44   1 H        0.926     0.031     2.569     2.506

molecular dipole:
                 x           y           z       tot (Debye)
 q only:        0.000      -0.000       0.000
   full:        0.000      -0.000       0.000       0.000

 projected vibrational frequencies (cm⁻¹)
eigval :       -0.00    -0.00     0.00     0.00     0.00     0.00
eigval :       24.32    39.69    40.58    55.01    72.77    75.65
eigval :       81.82   108.00   185.79   198.96   201.46   214.85
eigval :      231.86   241.02   246.40   366.63   367.43   380.87
eigval :      385.62   400.33   400.43   437.18   446.86   456.42
eigval :      459.31   494.52   576.12   581.55   584.53   585.63
eigval :      593.35   602.53   613.37   631.02   670.54   672.44
eigval :      680.08   691.47   727.27   737.96   755.99   764.35
eigval :      774.31   775.65   874.79   876.52   883.19   883.70
eigval :      894.63   902.72   907.47   907.85   912.35   918.11
eigval :      918.47   927.47   927.67   932.28   932.87   932.94
eigval :      934.54   935.01   990.78   999.79  1080.99  1081.05
eigval :     1081.23  1082.26  1116.89  1117.07  1134.04  1144.77
eigval :     1180.75  1181.93  1181.98  1184.51  1193.57  1194.14
eigval :     1213.87  1220.69  1231.28  1260.01  1261.94  1279.15
eigval :     1279.93  1308.83  1309.03  1324.81  1349.16  1370.41
eigval :     1384.27  1417.56  1426.54  1426.57  1429.12  1441.79
eigval :     1464.26  1484.11  1493.12  1525.15  1530.16  1542.01
eigval :     1578.74  1579.15  1598.13  1598.26  1607.28  1621.68
eigval :     3066.33  3066.35  3066.68  3066.75  3068.90  3068.92
eigval :     3073.30  3073.39  3075.28  3075.34  3077.90  3078.06
eigval :     3084.42  3084.63  3087.28  3087.32  3089.18  3091.10

   temp. (K)  partition function   enthalpy   heat capacity  entropy
                                   cal/mol     cal/K/mol   cal/K/mol   J/K/mol
 298.15  VIB  0.337E+08            10892.275     73.363     66.090
         ROT  0.265E+07              888.752      2.981     32.373
         INT  0.893E+14            11781.027     76.344     98.463
         TR   0.581E+28             1481.254      4.968     43.261
         TOT                       13262.2809    81.3121   141.7242   592.9742

       T/K    H(0)-H(T)+PV         H(T)/Eh          T*S/Eh         G(T)/Eh
   ------------------------------------------------------------------------
    298.15    0.211348E-01    0.364952E+00    0.673378E-01    0.297614E+00
   ------------------------------------------------------------------------

         :::::::::::::::::::::::::::::::::::::::::::::::::::::
         ::                  THERMODYNAMIC                  ::
         :::::::::::::::::::::::::::::::::::::::::::::::::::::
         :: total free energy         -64.564557496510 Eh   ::
         ::.................................................::
         :: total energy              -64.862171893573 Eh   ::
         :: zero point energy           0.343817363813 Eh   ::
         :: G(RRHO) w/o ZPVE           -0.046202966749 Eh   ::
         :: G(RRHO) contrib.            0.297614397063 Eh   ::
         :::::::::::::::::::::::::::::::::::::::::::::::::::::

           -------------------------------------------------
          | TOTAL ENERGY              -64.862171893573 Eh   |
          | TOTAL ENTHALPY            -64.497219739786 Eh   |
          | TOTAL FREE ENERGY         -64.564557496510 Eh   |
          | GRADIENT NORM               0.000122153403 Eh/α |
          | HOMO-LUMO GAP               2.158195234115 eV   |
           -------------------------------------------------

 * finished run on 2025/09/12 at 05:52:20.580
