   * xtb version 6.7.1 (edcfbbe) compiled by 'albert@albert-system' on 2024-07-22

   ID    Z sym.   atoms
    1    7 N      1, 9, 24, 26, 32
    2    6 C      2-8, 10-23, 25, 27-31, 33-46
    3    1 H      47-71

          program call               : xtb data2507/gas/CzPm/CzPm_gas_S0_finalOpt.xtbopt.xyz --gfn 2 --spinpol --tblite --uhf 2 --ohess vtight --parallel 40 --molden --ceasefiles --namespace data2507/gas/CzPm/CzPm_gas_T1_preOpt
 * total energy  :  -115.1129994 Eh     change       -0.3179792E-07 Eh
 * total energy  :  -115.1156002 Eh     change       -0.2600776E-02 Eh
 * total energy  :  -115.1167669 Eh     change       -0.1166719E-02 Eh
 * total energy  :  -115.1170135 Eh     change       -0.2466599E-03 Eh
 * total energy  :  -115.1172816 Eh     change       -0.2681045E-03 Eh
 * total energy  :  -115.1173716 Eh     change       -0.8992643E-04 Eh
 * total energy  :  -115.1174690 Eh     change       -0.9745889E-04 Eh
 * total energy  :  -115.1175362 Eh     change       -0.6717165E-04 Eh
 * total energy  :  -115.1175911 Eh     change       -0.5489386E-04 Eh
 * total energy  :  -115.1176405 Eh     change       -0.4944802E-04 Eh
 * total energy  :  -115.1180549 Eh     change       -0.6708806E-06 Eh
 * total energy  :  -115.1180556 Eh     change       -0.6736818E-06 Eh
 * total energy  :  -115.1180563 Eh     change       -0.7666155E-06 Eh
 * total energy  :  -115.1180572 Eh     change       -0.9001522E-06 Eh
 * total energy  :  -115.1180582 Eh     change       -0.1001348E-05 Eh
 * total energy  :  -115.1180592 Eh     change       -0.1017575E-05 Eh
 * total energy  :  -115.1180602 Eh     change       -0.9585367E-06 Eh
 * total energy  :  -115.1180610 Eh     change       -0.8345285E-06 Eh
 * total energy  :  -115.1180610 Eh     change       -0.2461960E-08 Eh
   *** GEOMETRY OPTIMIZATION CONVERGED AFTER 68 ITERATIONS ***

 final structure:
================
71
 xtb: 6.7.1 (edcfbbe)
N           -0.01891904881071       -1.42030532279968        0.07910710450001
C           -0.01056436084748       -0.27032958352049        0.06952516789305
C           -0.00360440721621        1.13311649560524        0.17577501266675
C           -1.21193485755764        1.84145739352951        0.33697826921785
C           -2.52979974576900        1.28631344280647        0.18026790306876
C           -3.61146496799499        1.92150783692707        0.82011343162625
C           -4.88589877998123        1.41985741579980        0.72846848497207
C           -5.13676648055901        0.27254996843130       -0.02847713933311
N           -6.42821831957788       -0.26258387193532       -0.10470972760922
C           -7.58192767683620        0.43647014413693       -0.38836177484470
C           -7.74575855174695        1.77575441540837       -0.71763155843285
C           -9.02697573760665        2.22272591043198       -0.98033063425263
C          -10.12167579503623        1.36311300975984       -0.92898835648629
C           -9.96161306363377        0.02261537755509       -0.62817271572454
C           -8.68576344505554       -0.44939468985633       -0.36025654850684
C           -8.15690890776275       -1.74773959622771       -0.03967341506730
C           -8.73295514655676       -2.99605601670498        0.14127970661286
C           -7.91458707591114       -4.06003338920966        0.47486188460570
C           -6.54298644863669       -3.88555027875800        0.64319377596971
C           -5.94577559556152       -2.65139321521602        0.46873305080307
C           -6.75896049802073       -1.58473755478891        0.10822167579108
C           -4.08267714155010       -0.33657902591378       -0.71234207658697
C           -2.80512559900700        0.16115166436526       -0.61397177528390
N           -1.15264484808362        3.15549619974711        0.72316041123370
C            0.00173643327266        3.73580309112533        0.90963837840749
N            1.15139276667979        3.15081604689085        0.72882401071399
C            1.21141807869137        1.83602549639310        0.34045295791625
C            2.52646073982193        1.28115562631197        0.18418911194634
C            2.80054636052534        0.13808836460028       -0.58652846658518
C            4.07882778449433       -0.35648906094837       -0.68510646630879
C            5.13730879783412        0.27221475863001       -0.02549074708017
N            6.43025293114485       -0.25931120196307       -0.10186725810523
C            7.57810965178759        0.43805099408546       -0.41149142786216
C            7.73315555396284        1.77079807306552       -0.77055069275192
C            9.00998407285805        2.21743321959243       -1.05433707169651
C           10.10882001597449        1.36362012662988       -0.99493289513145
C            9.95732125232749        0.02900058365898       -0.66454655393734
C            8.68610370823520       -0.44249299700680       -0.37500589184896
C            8.16572822893271       -1.73591023475023       -0.02212308613649
C            8.74847010841922       -2.97790499430171        0.17909568927815
C            7.93759768473738       -4.03786425063685        0.54282418456555
C            6.56703244666747       -3.86511585017543        0.72113051276996
C            5.96322026809987       -2.63714302453619        0.52688508140195
C            6.76851613655724       -1.57511260671371        0.13598337161891
C            4.88827902011205        1.43579918027346        0.70761316309631
C            3.61330487819004        1.93434778081906        0.79965799327476
H           -3.41088796270710        2.80045531130902        1.41312221754007
H           -5.69687411777112        1.89018484179356        1.26470255588901
H           -6.90050937191218        2.44383523950862       -0.77927057577827
H           -9.18196974959446        3.26048088096327       -1.23516966779901
H          -11.10748081502972        1.75080064459899       -1.13776876729133
H          -10.80902249556530       -0.64562800882547       -0.60557537665240
H           -9.79804092782389       -3.12986954758433        0.02779351970321
H           -8.34333234212351       -5.04060686376059        0.61756545869260
H           -5.93255700236178       -4.73190973208156        0.92007022307947
H           -4.88522128725836       -2.52109169163093        0.61935346196252
H           -4.28357084133454       -1.18902866873895       -1.34402882757463
H           -2.01739309027151       -0.30744394121874       -1.18142018173069
H            0.00271415284412        4.76698682153081        1.23667428812629
H            2.01012628179945       -0.34733023235295       -1.13554305439061
H            4.27741798366737       -1.22219677707586       -1.29932952236229
H            6.88444579154221        2.43381315208966       -0.83860719630312
H            9.15818167285112        3.25019657217736       -1.33240971381152
H           11.09101597232148        1.75087734104500       -1.22081084053138
H           10.80782979690405       -0.63505330633435       -0.63569623418922
H            9.81290345150585       -3.11009821895757        0.05785549563441
H            8.37165642989815       -5.01362009521271        0.70156469429255
H            5.96279087956842       -4.70783326101985        1.02167010722428
H            4.90372802967288       -2.50761570589716        0.68531300707915
H            5.70216719319525        1.92095247950323        1.22600972141542
H            3.41453107679234        2.82575512731801        1.37441294718405

 projected vibrational frequencies (cm⁻¹)
eigval :       -0.00    -0.00    -0.00    -0.00     0.00     0.00
eigval :       -7.51     8.20    13.89    22.32    33.10    37.82
eigval :       45.96    57.00    59.87    81.23    98.10    99.78
eigval :      104.97   113.23   121.43   125.91   141.45   145.60
eigval :      160.62   168.73   175.30   191.55   223.59   238.38
eigval :      254.66   256.15   270.52   270.75   287.24   306.81
eigval :      340.87   353.30   375.80   379.55   384.17   386.34
eigval :      390.81   396.77   403.12   405.03   411.61   422.30
eigval :      423.30   437.11   437.76   458.11   477.20   515.51
eigval :      515.79   530.80   535.79   537.20   537.40   539.85
eigval :      542.55   551.58   553.75   578.91   581.31   591.80
eigval :      592.60   597.46   611.98   616.86   642.68   654.23
eigval :      674.06   674.11   675.81   678.04   694.78   708.94
eigval :      710.22   728.31   755.36   756.56   769.26   769.37
eigval :      777.04   778.46   778.79   804.82   809.68   811.43
eigval :      838.14   854.19   870.81   871.22   871.56   872.72
eigval :      881.47   889.71   896.48   896.71   902.22   902.34
eigval :      903.08   903.30   914.07   914.63   917.99   918.39
eigval :      921.52   923.78   923.96   927.33   927.88   943.20
eigval :      989.62  1007.15  1010.86  1010.94  1036.32  1068.26
eigval :     1068.41  1071.55  1071.77  1096.01  1115.64  1115.82
eigval :     1127.14  1136.81  1144.89  1145.56  1153.28  1175.17
eigval :     1175.47  1179.02  1179.12  1180.40  1180.76  1198.86
eigval :     1202.78  1231.98  1232.20  1237.32  1239.61  1251.65
eigval :     1259.09  1263.20  1285.16  1288.54  1293.86  1294.24
eigval :     1297.89  1300.82  1324.29  1330.01  1345.28  1345.87
eigval :     1348.00  1353.71  1361.66  1362.26  1374.39  1386.45
eigval :     1406.29  1412.77  1413.30  1416.62  1419.05  1423.90
eigval :     1426.93  1463.79  1464.42  1466.45  1480.58  1483.74
eigval :     1484.24  1510.27  1513.87  1560.08  1566.19  1566.54
eigval :     1572.46  1580.81  1580.92  1581.63  1582.56  1602.33
eigval :     1604.76  2321.87  3053.08  3081.17  3081.24  3082.07
eigval :     3082.14  3083.01  3083.68  3086.64  3086.70  3087.28
eigval :     3087.63  3088.62  3088.77  3094.10  3094.24  3095.61
eigval :     3095.78  3099.53  3099.77  3100.02  3100.37  3100.80
eigval :     3101.28  3113.82  3115.88

   temp. (K)  partition function   enthalpy   heat capacity  entropy
                                   cal/mol     cal/K/mol   cal/K/mol   J/K/mol
 298.15  VIB  0.184E+17            20750.200    132.869    128.884
         ROT  0.101E+09              888.752      2.981     39.612
         INT  0.186E+25            21638.953    135.850    168.496
         TR   0.138E+29             1481.254      4.968     44.977
         TOT                       23120.2065   140.8181   213.4728   893.1701

       T/K    H(0)-H(T)+PV         H(T)/Eh          T*S/Eh         G(T)/Eh
   ------------------------------------------------------------------------
    298.15    0.368444E-01    0.564954E+00    0.101428E+00    0.463526E+00
   ------------------------------------------------------------------------

         :::::::::::::::::::::::::::::::::::::::::::::::::::::
         ::                  THERMODYNAMIC                  ::
         :::::::::::::::::::::::::::::::::::::::::::::::::::::
         :: total free energy        -114.654534879865 Eh   ::
         ::.................................................::
         :: total energy             -115.118061045107 Eh   ::
         :: zero point energy           0.528109574895 Eh   ::
         :: G(RRHO) w/o ZPVE           -0.064583409653 Eh   ::
         :: G(RRHO) contrib.            0.463526165242 Eh   ::
         :::::::::::::::::::::::::::::::::::::::::::::::::::::

           -------------------------------------------------
          | TOTAL ENERGY             -115.118061045107 Eh   |
          | TOTAL ENTHALPY           -114.553107075974 Eh   |
          | TOTAL FREE ENERGY        -114.654534879865 Eh   |
          | GRADIENT NORM               0.000102306474 Eh/α |
           -------------------------------------------------

 * finished run on 2025/09/14 at 11:52:06.550
