   * xtb version 6.7.1 (edcfbbe) compiled by 'albert@albert-system' on 2024-07-22

   ID    Z sym.   atoms
    1    7 N      1, 9, 24, 26, 32
    2    6 C      2-8, 10-23, 25, 27-31, 33-46
    3    1 H      47-71

          program call               : xtb data2507/gas/CzPm/CzPm.xyz --gfn 2 --ohess vtight --parallel 40 --molden --ceasefiles --namespace data2507/gas/CzPm/CzPm_gas_S0_preOpt
          :  Hamiltonian                  GFN2-xTB          :
 * total energy  :  -115.1688879 Eh     change       -0.1760839E-08 Eh
 * total energy  :  -115.1848273 Eh     change       -0.1593932E-01 Eh
 * total energy  :  -115.1882072 Eh     change       -0.3379911E-02 Eh
 * total energy  :  -115.1889783 Eh     change       -0.7711344E-03 Eh
 * total energy  :  -115.1899050 Eh     change       -0.9266981E-03 Eh
 * total energy  :  -115.1904189 Eh     change       -0.5139021E-03 Eh
 * total energy  :  -115.1907960 Eh     change       -0.3771307E-03 Eh
 * total energy  :  -115.1911246 Eh     change       -0.3286022E-03 Eh
 * total energy  :  -115.1914109 Eh     change       -0.2862578E-03 Eh
 * total energy  :  -115.1916515 Eh     change       -0.2406208E-03 Eh
 * total energy  :  -115.1938581 Eh     change       -0.6833462E-06 Eh
 * total energy  :  -115.1938589 Eh     change       -0.7750742E-06 Eh
 * total energy  :  -115.1938599 Eh     change       -0.9885746E-06 Eh
 * total energy  :  -115.1938611 Eh     change       -0.1284394E-05 Eh
 * total energy  :  -115.1938611 Eh     change        0.4546820E-08 Eh
 * total energy  :  -115.1938613 Eh     change       -0.1898478E-06 Eh
 * total energy  :  -115.1938616 Eh     change       -0.2597235E-06 Eh
 * total energy  :  -115.1938617 Eh     change       -0.8908910E-07 Eh
 * total energy  :  -115.1938618 Eh     change       -0.9617243E-07 Eh
   *** GEOMETRY OPTIMIZATION CONVERGED AFTER 72 ITERATIONS ***

 final structure:
================
71
 xtb: 6.7.1 (edcfbbe)
N            0.00005764840197       -1.15716431606445        0.43859232888389
C           -0.00003039387333       -0.01283677881102        0.33667100188593
C           -0.00000601711101        1.39434698283750        0.30403540166169
C           -1.20271403143675        2.13198992002866        0.35810407723116
C           -2.52070953882573        1.51715110982369        0.22476295293213
C           -3.59833038684675        2.07776017277221        0.91329635451963
C           -4.85388663543651        1.51883033730538        0.82860404410823
C           -5.06808270968664        0.39483566470469        0.02972548619923
N           -6.33505227136440       -0.18064897439761       -0.05563642739268
C           -7.52351000075054        0.49592411967258       -0.26775242388601
C           -7.74396715880456        1.84445072910200       -0.50696235382798
C           -9.04522307022388        2.25726915394300       -0.72368423240832
C          -10.10597626193966        1.35502853451190       -0.71555444230506
C           -9.88894230878362        0.00735933585888       -0.50799496952086
C           -8.59017973686452       -0.43074343040874       -0.28749616683563
C           -8.01130579955135       -1.72748635497811       -0.06798574349876
C           -8.54707172383591       -3.00389441270531        0.03891409616517
C           -7.69325683885384       -4.06041294743356        0.28589251538623
C           -6.32518968216489       -3.85291032411039        0.44364271880488
C           -5.76903097481263       -2.59158536872421        0.34181147005353
C           -6.61858181654321       -1.53049639216444        0.06491775050529
C           -4.00172065575415       -0.14531091923067       -0.68890569914301
C           -2.74262818902392        0.40647431282707       -0.58904342260270
N           -1.17612546213530        3.44816163288000        0.55919935756903
C           -0.00000192756004        4.02673681445563        0.67899103619021
N            1.17612209352002        3.44815735553013        0.55921789056588
C            1.20270729782645        2.13198360346994        0.35812313342199
C            2.52070539264419        1.51714875761166        0.22477329741293
C            2.74262525104329        0.40647407087694       -0.58903765318864
C            4.00171632444212       -0.14531503093900       -0.68889520475123
C            5.06807911165727        0.39483163212214        0.02973484288772
N            6.33504955497712       -0.18064965797566       -0.05562954264535
C            7.52350511380658        0.49592513678359       -0.26775447368364
C            7.74396017051498        1.84445145229891       -0.50696882869965
C            9.04521563349017        2.25727191577472       -0.72369210553621
C           10.10597263499413        1.35503555739992       -0.71554809400105
C            9.88894203689753        0.00736744892919       -0.50797812792644
C            8.59017912382730       -0.43073803207350       -0.28748657785640
C            8.01130688438218       -1.72748434762629       -0.06799461518278
C            8.54707625613824       -3.00389192437927        0.03889384302167
C            7.69326572396727       -4.06041234588787        0.28587911048068
C            6.32520051957884       -3.85291129818506        0.44364883963783
C            5.76903849505180       -2.59158703946872        0.34182553552816
C            6.61858442306496       -1.53049566329715        0.06492714449028
C            4.85388429929402        1.51883083146702        0.82860697885036
C            3.59832942731203        2.07776196656988        0.91330007414233
H           -3.42295550054755        2.94461963481471        1.53113884875015
H           -5.67351439947622        1.93222093108023        1.39628552539567
H           -6.92837716167513        2.55082116589188       -0.53875187104515
H           -9.24226754523756        3.30297888396426       -0.90803385357772
H          -11.10873279843709        1.71752342909901       -0.88569942309700
H          -10.70779619316782       -0.69586981221249       -0.52135522954509
H           -9.61014172708688       -3.16055738611205       -0.06407448716346
H           -8.08852697659103       -5.06170683885044        0.36989285092584
H           -5.68347961778757       -4.69533637916064        0.65475977575245
H           -4.71010729446172       -2.44208779316587        0.48801877319518
H           -4.17311202833263       -0.98674231690686       -1.34257427251126
H           -1.93759506139787       -0.00865555713853       -1.17596393995404
H           -0.00000095880158        5.09097544381586        0.87856490236026
H            1.93758985988976       -0.00865836196223       -1.17595385816499
H            4.17310655746604       -0.98674236437996       -1.34256871922835
H            6.92837072544727        2.55082336878600       -0.53874249114798
H            9.24226031156044        3.30298465192078       -0.90802517060202
H           11.10872765985008        1.71753098189850       -0.88570157345426
H           10.70779313879310       -0.69586461719382       -0.52136611115023
H            9.61014991407273       -3.16054802653259       -0.06406919717015
H            8.08854202976485       -5.06170169793708        0.36990442120983
H            5.68349351071341       -4.69533912799221        0.65476809392415
H            4.71011276793866       -2.44209431394921        0.48802219386890
H            5.67351174404987        1.93222317141973        1.39628689422413
H            3.42295421885089        2.94461894015163        1.53114574053116

          :  Hamiltonian                  GFN2-xTB          :
         :: gradient norm              0.000068948565 Eh/a0 ::
         :: HOMO-LUMO gap              1.882400163399 eV    ::
         :: SCC energy              -117.361359169149 Eh    ::
         :: -> dispersion             -0.099153991146 Eh    ::
         :: repulsion energy           2.167497391528 Eh    ::

    * Orbital Energies and Occupations

         #    Occupation            Energy/Eh            Energy/eV
      -------------------------------------------------------------
         1        2.0000           -0.6968073             -18.9611
       ...           ...                  ...                  ...
        95        2.0000           -0.4212216             -11.4620
        96        2.0000           -0.4197897             -11.4231
        97        2.0000           -0.4196719             -11.4199
        98        2.0000           -0.4174336             -11.3589
        99        2.0000           -0.4159274             -11.3180
       100        2.0000           -0.4090960             -11.1321
       101        2.0000           -0.4079500             -11.1009
       102        2.0000           -0.4079202             -11.1001
       103        2.0000           -0.3814572             -10.3800
       104        2.0000           -0.3814401             -10.3795
       105        2.0000           -0.3810202             -10.3681
       106        2.0000           -0.3675533             -10.0016
       107        2.0000           -0.3670619              -9.9883 (HOMO)
       108                         -0.2978849              -8.1059 (LUMO)
       109                         -0.2955570              -8.0425
       110                         -0.2493153              -6.7842
       111                         -0.2476201              -6.7381
       112                         -0.2429778              -6.6118
       113                         -0.2423179              -6.5938
       114                         -0.2406324              -6.5479
       115                         -0.2246901              -6.1141
       116                         -0.2246229              -6.1123
       117                         -0.2240145              -6.0957
       118                         -0.2135210              -5.8102
       ...                                ...                  ...
       209                          1.1561238              31.4597
      -------------------------------------------------------------
                  HL-Gap            0.0691770 Eh            1.8824 eV

     #   Z          covCN         q      C6AA      α(0)
     1   7 N        0.911    -0.246    26.419     7.434
     2   6 C        1.905     0.111    28.355     8.600
     3   6 C        2.962    -0.020    28.506     8.758
     4   6 C        2.980     0.119    25.387     8.265
     5   6 C        2.980    -0.001    28.035     8.685
     6   6 C        2.925    -0.022    28.562     8.764
     7   6 C        2.920    -0.042    29.033     8.836
     8   6 C        2.913     0.072    26.399     8.425
     9   7 N        2.802    -0.040    22.014     6.969
    10   6 C        3.071     0.046    26.892     8.503
    11   6 C        2.910    -0.051    29.254     8.869
    12   6 C        2.924    -0.033    28.816     8.803
    13   6 C        2.920    -0.040    28.982     8.828
    14   6 C        2.913    -0.032    28.803     8.800
    15   6 C        3.067    -0.015    28.321     8.726
    16   6 C        3.067    -0.015    28.325     8.727
    17   6 C        2.913    -0.032    28.805     8.801
    18   6 C        2.920    -0.039    28.976     8.827
    19   6 C        2.924    -0.032    28.801     8.801
    20   6 C        2.910    -0.050    29.241     8.867
    21   6 C        3.071     0.046    26.892     8.503
    22   6 C        2.921    -0.041    29.013     8.833
    23   6 C        2.921    -0.025    28.638     8.776
    24   7 N        1.842    -0.252    27.402     7.758
    25   6 C        2.900     0.158    24.584     8.130
    26   7 N        1.842    -0.252    27.402     7.758
    27   6 C        2.980     0.119    25.387     8.265
    28   6 C        2.980    -0.001    28.035     8.685
    29   6 C        2.921    -0.025    28.638     8.776
    30   6 C        2.921    -0.041    29.013     8.833
    31   6 C        2.913     0.072    26.399     8.425
    32   7 N        2.802    -0.040    22.014     6.969
    33   6 C        3.071     0.046    26.892     8.503
    34   6 C        2.910    -0.051    29.254     8.869
    35   6 C        2.924    -0.033    28.816     8.803
    36   6 C        2.920    -0.040    28.982     8.828
    37   6 C        2.913    -0.032    28.803     8.800
    38   6 C        3.067    -0.015    28.321     8.726
    39   6 C        3.067    -0.015    28.325     8.727
    40   6 C        2.913    -0.032    28.805     8.801
    41   6 C        2.920    -0.039    28.976     8.827
    42   6 C        2.924    -0.032    28.801     8.801
    43   6 C        2.910    -0.050    29.241     8.867
    44   6 C        3.071     0.046    26.892     8.503
    45   6 C        2.920    -0.042    29.033     8.836
    46   6 C        2.925    -0.022    28.562     8.764
    47   1 H        0.926     0.059     2.211     2.325
    48   1 H        0.926     0.049     2.326     2.385
    49   1 H        0.926     0.029     2.595     2.519
    50   1 H        0.926     0.031     2.570     2.507
    51   1 H        0.926     0.030     2.585     2.514
    52   1 H        0.926     0.033     2.546     2.495
    53   1 H        0.926     0.033     2.548     2.496
    54   1 H        0.926     0.030     2.580     2.512
    55   1 H        0.926     0.033     2.545     2.495
    56   1 H        0.926     0.032     2.560     2.502
    57   1 H        0.926     0.050     2.315     2.379
    58   1 H        0.926     0.043     2.405     2.425
    59   1 H        0.925     0.048     2.349     2.397
    60   1 H        0.926     0.043     2.405     2.425
    61   1 H        0.926     0.050     2.315     2.379
    62   1 H        0.926     0.029     2.595     2.519
    63   1 H        0.926     0.031     2.570     2.507
    64   1 H        0.926     0.030     2.585     2.514
    65   1 H        0.926     0.033     2.546     2.495
    66   1 H        0.926     0.033     2.548     2.496
    67   1 H        0.926     0.030     2.580     2.512
    68   1 H        0.926     0.033     2.545     2.495
    69   1 H        0.926     0.032     2.560     2.502
    70   1 H        0.926     0.049     2.326     2.385
    71   1 H        0.926     0.059     2.211     2.325

molecular dipole:
                 x           y           z       tot (Debye)
 q only:       -0.000       0.316      -0.091
   full:       -0.000       0.530      -0.151       1.401

 projected vibrational frequencies (cm⁻¹)
eigval :       -0.00    -0.00     0.00     0.00     0.00     0.00
eigval :        8.07    11.04    12.90    23.63    34.36    37.14
eigval :       45.94    56.92    72.31    84.29    96.23   100.87
eigval :      103.74   116.12   123.65   126.40   143.79   148.49
eigval :      164.43   171.15   188.84   193.69   223.48   241.79
eigval :      256.85   259.41   272.15   272.22   284.85   289.42
eigval :      357.71   374.34   381.73   381.74   386.69   390.20
eigval :      395.84   398.46   409.23   418.39   424.43   429.19
eigval :      432.44   439.66   441.84   488.07   498.63   518.09
eigval :      518.33   534.47   535.05   541.02   541.03   549.96
eigval :      563.78   572.70   581.51   582.40   595.36   596.21
eigval :      609.28   612.89   614.78   640.05   652.12   674.20
eigval :      674.42   689.58   699.49   705.52   708.64   711.45
eigval :      733.22   752.16   756.53   758.02   770.72   770.81
eigval :      781.76   781.85   822.69   824.83   832.83   836.17
eigval :      865.20   865.77   875.54   875.60   878.83   879.32
eigval :      897.71   897.93   900.95   903.47   903.50   904.38
eigval :      904.49   920.12   920.19   921.66   921.82   928.15
eigval :      928.81   929.81   934.59   935.33   939.54  1002.94
eigval :     1012.09  1012.11  1015.58  1068.78  1071.56  1071.56
eigval :     1075.19  1075.50  1117.37  1117.66  1135.80  1136.54
eigval :     1153.29  1153.42  1160.34  1176.65  1176.77  1180.98
eigval :     1181.00  1181.94  1182.57  1193.98  1203.10  1203.78
eigval :     1218.98  1235.69  1235.72  1244.70  1244.96  1263.43
eigval :     1263.76  1274.79  1296.25  1299.07  1299.55  1299.99
eigval :     1305.80  1323.49  1327.57  1356.75  1356.92  1360.17
eigval :     1360.18  1363.06  1365.65  1386.39  1395.16  1410.52
eigval :     1410.73  1425.44  1427.26  1427.30  1430.05  1474.62
eigval :     1474.65  1487.10  1487.11  1494.76  1495.74  1497.47
eigval :     1517.39  1555.89  1556.09  1576.07  1576.08  1588.18
eigval :     1588.64  1590.95  1590.97  1598.69  1598.72  1613.69
eigval :     1613.75  2344.35  3054.80  3078.38  3078.39  3079.46
eigval :     3079.47  3083.61  3083.62  3084.98  3085.01  3090.53
eigval :     3090.58  3091.75  3092.07  3092.71  3092.88  3094.84
eigval :     3094.92  3097.49  3097.54  3098.88  3098.93  3103.48
eigval :     3103.76  3107.07  3107.20

   temp. (K)  partition function   enthalpy   heat capacity  entropy
                                   cal/mol     cal/K/mol   cal/K/mol   J/K/mol
 298.15  VIB  0.733E+16            20403.232    130.827    126.500
         ROT  0.101E+09              888.752      2.981     39.601
         INT  0.738E+24            21291.984    133.808    166.101
         TR   0.138E+29             1481.254      4.968     44.977
         TOT                       22773.2382   138.7759   211.0775   883.1482

       T/K    H(0)-H(T)+PV         H(T)/Eh          T*S/Eh         G(T)/Eh
   ------------------------------------------------------------------------
    298.15    0.362915E-01    0.569252E+00    0.100290E+00    0.468962E+00
   ------------------------------------------------------------------------

         :::::::::::::::::::::::::::::::::::::::::::::::::::::
         ::                  THERMODYNAMIC                  ::
         :::::::::::::::::::::::::::::::::::::::::::::::::::::
         :: total free energy        -114.724899784339 Eh   ::
         ::.................................................::
         :: total energy             -115.193861777630 Eh   ::
         :: zero point energy           0.532960257152 Eh   ::
         :: G(RRHO) w/o ZPVE           -0.063998263860 Eh   ::
         :: G(RRHO) contrib.            0.468961993291 Eh   ::
         :::::::::::::::::::::::::::::::::::::::::::::::::::::

           -------------------------------------------------
          | TOTAL ENERGY             -115.193861777630 Eh   |
          | TOTAL ENTHALPY           -114.624610055351 Eh   |
          | TOTAL FREE ENERGY        -114.724899784339 Eh   |
          | GRADIENT NORM               0.000068956343 Eh/α |
          | HOMO-LUMO GAP               1.882402597421 eV   |
           -------------------------------------------------

 * finished run on 2025/09/14 at 11:48:00.504
