   * xtb version 6.7.1 (edcfbbe) compiled by 'albert@albert-system' on 2024-07-22

   ID    Z sym.   atoms
    1    7 N      1, 9, 24, 26, 32
    2    6 C      2-8, 10-23, 25, 27-31, 33-46
    3    1 H      47-71

          program call               : xtb data2507/gas/CzPm/CzPm_gas_T1_crest.xyz --gfn 2 --spinpol --tblite --uhf 2 --ohess vtight --parallel 40 --molden --ceasefiles --namespace data2507/gas/CzPm/CzPm_gas_T1_finalOpt
 * total energy  :  -115.1181906 Eh     change       -0.9041798E-09 Eh
 * total energy  :  -115.1182487 Eh     change       -0.5814948E-04 Eh
 * total energy  :  -115.1182705 Eh     change       -0.2182001E-04 Eh
 * total energy  :  -115.1182773 Eh     change       -0.6746354E-05 Eh
 * total energy  :  -115.1182829 Eh     change       -0.5602904E-05 Eh
 * total energy  :  -115.1182855 Eh     change       -0.2609277E-05 Eh
 * total energy  :  -115.1182884 Eh     change       -0.2948302E-05 Eh
 * total energy  :  -115.1182898 Eh     change       -0.1393663E-05 Eh
 * total energy  :  -115.1182910 Eh     change       -0.1127889E-05 Eh
 * total energy  :  -115.1182924 Eh     change       -0.1494909E-05 Eh
 * total energy  :  -115.1183140 Eh     change       -0.4838063E-06 Eh
 * total energy  :  -115.1183145 Eh     change       -0.5451456E-06 Eh
 * total energy  :  -115.1183147 Eh     change       -0.1389373E-06 Eh
 * total energy  :  -115.1183153 Eh     change       -0.6346852E-06 Eh
 * total energy  :  -115.1183160 Eh     change       -0.6859051E-06 Eh
 * total energy  :  -115.1183167 Eh     change       -0.7256036E-06 Eh
 * total energy  :  -115.1183175 Eh     change       -0.7959057E-06 Eh
 * total energy  :  -115.1183183 Eh     change       -0.8118361E-06 Eh
 * total energy  :  -115.1183183 Eh     change       -0.1166165E-07 Eh
   *** GEOMETRY OPTIMIZATION CONVERGED AFTER 44 ITERATIONS ***

 final structure:
================
71
 xtb: 6.7.1 (edcfbbe)
N            0.36108845656680        1.23670000740626       -0.78078596805313
C            0.19468909250593        0.17849877367188       -0.35277135215944
C            0.06560182444795       -1.13394543364790        0.11279158047951
C           -1.20715189734804       -1.81803730914538        0.28105991908946
C           -2.50077405681689       -1.24278886408998        0.20549525892168
C           -2.76286095038390        0.13683200612391        0.04844765820291
C           -4.04726529921748        0.61474442431736       -0.00485867944476
C           -5.14019566316322       -0.25277570130795        0.09507486806684
N           -6.44763388971930        0.24051948172791        0.03704589690521
C           -7.45643811600670       -0.25065629088373       -0.76250876660706
C           -7.41881158588883       -1.27322933113165       -1.70217829604276
C           -8.58277727270177       -1.55802245185286       -2.39102356226416
C           -9.75520651107667       -0.84113436589612       -2.16418259472445
C           -9.79181778073803        0.19631245245621       -1.24896265241415
C           -8.63731427991886        0.50015300923156       -0.54505841909595
C           -8.30869516780835        1.49529618214456        0.44040566279786
C           -9.03261566532567        2.50108837657650        1.06102042035590
C           -8.39702899610327        3.28739159197385        2.00589909279312
C           -7.06370648345309        3.06792326789006        2.34351790978123
C           -6.32140245712638        2.07097397552808        1.73893769253637
C           -6.94604319526450        1.29565766712754        0.77017178471829
C           -4.90333715933882       -1.62488998730463        0.25948617474542
C           -3.62459617549252       -2.10395553116151        0.31112992464687
N           -1.13904514466950       -3.15937627465178        0.50730302670615
C           -0.02804485717667       -3.79836179123337        0.61134211670684
N            1.16882577045763       -3.20613740505857        0.56485240342520
C            1.21787866257682       -1.88945398029320        0.31468369910830
C            2.56002710427687       -1.30572854890096        0.23746175698665
C            2.84883941153896       -0.05184922082112        0.77426107882366
C            4.12101049340004        0.47101579184080        0.68100232573468
C            5.13191335402007       -0.24814055031311        0.04603297764821
N            6.41524894865500        0.29668861547354       -0.06765973024080
C            7.59757759502147       -0.33764274757167        0.25735951657941
C            7.80437226015551       -1.59534135524470        0.80717976807834
C            9.10686175951520       -1.98069181242350        1.06329787089249
C           10.18141877616214       -1.13746462064596        0.79174767793664
C            9.97966240149965        0.12649898049598        0.26994317767540
C            8.68107887890275        0.53550736875971        0.00387904638759
C            8.11260113856722        1.75451854899637       -0.50431735136852
C            8.65879734977601        2.95313794114088       -0.94001727626031
C            7.80656217665858        3.93900947210479       -1.40073247682255
C            6.42974606308519        3.73352238276380       -1.44532862126178
C            5.86216133287495        2.54801951291156       -1.01751193926283
C            6.71152286858856        1.56479291256898       -0.52871266401042
C            4.85462517463810       -1.51413206090436       -0.46774483723856
C            3.58557866064909       -2.03992108357285       -0.35985420824640
H           -1.94749400505784        0.83420827572951       -0.03920118940364
H           -4.22357728214001        1.66948255490221       -0.15709724838976
H           -6.50824248319283       -1.81809028383629       -1.89785902586061
H           -8.58167151708049       -2.35007180523048       -3.12478560993788
H          -10.64489311162975       -1.09466455909733       -2.72081176440471
H          -10.69735551899461        0.76127200382875       -1.08784373649533
H          -10.07075460029005        2.66258282445042        0.81336382446050
H           -8.94299566245228        4.07797190086076        2.49838437505654
H           -6.60083795585910        3.68737384969781        3.09700415879601
H           -5.29456268271480        1.89393992398871        2.01903761131808
H           -5.74334786996392       -2.29399871720987        0.37788812755803
H           -3.43628126351245       -3.15771906688450        0.45214628881555
H           -0.04870418787251       -4.86746984008757        0.76429660444013
H            2.08327477916913        0.50652587286595        1.29039833448023
H            4.34526259909781        1.43194010919657        1.11851578142597
H            6.97714098680037       -2.24801272462171        1.04078983156968
H            9.29448472122575       -2.95583943348140        1.48743917887103
H           11.18457688892765       -1.47603648172140        1.00331386220505
H           10.81175113423655        0.78632162352596        0.07661150869418
H            9.72715251346733        3.10641412456210       -0.92226271303711
H            8.21112665030724        4.88019656752869       -1.74168991778132
H            5.79056426916798        4.51574798595854       -1.82636604757965
H            4.79593502178064        2.39149991005518       -1.07508856826470
H            5.63336368332327       -2.06850198948661       -0.96956234681650
H            3.36401467835664       -3.01766903337639       -0.75935259313380

 projected vibrational frequencies (cm⁻¹)
eigval :       -0.00    -0.00    -0.00    -0.00     0.00     0.00
eigval :        6.14     8.39    11.73    25.38    30.30    36.40
eigval :       43.68    56.92    72.59    86.24    90.95    99.82
eigval :      102.79   111.82   119.11   126.90   141.73   144.16
eigval :      162.66   174.28   175.58   190.25   222.98   236.68
eigval :      251.77   257.86   270.23   270.88   284.65   304.43
eigval :      333.95   359.82   378.17   380.46   382.98   383.57
eigval :      387.69   395.09   403.98   407.29   415.80   421.66
eigval :      424.58   436.60   439.34   459.89   488.64   515.13
eigval :      516.61   522.50   536.13   536.33   538.58   540.69
eigval :      541.78   550.88   563.98   577.55   583.08   590.30
eigval :      594.30   602.07   613.31   615.82   647.01   654.87
eigval :      662.99   674.14   674.29   692.08   698.20   708.81
eigval :      710.35   726.45   755.24   756.22   768.54   769.01
eigval :      770.82   777.37   778.90   795.65   810.76   821.94
eigval :      830.35   842.10   854.86   867.90   869.56   870.38
eigval :      872.38   879.86   894.82   897.76   900.38   901.47
eigval :      902.20   903.56   909.19   914.70   917.36   919.42
eigval :      919.97   922.31   923.34   925.22   931.41   932.80
eigval :      986.40  1004.41  1010.45  1011.59  1033.79  1067.19
eigval :     1069.41  1070.36  1072.73  1113.30  1116.27  1118.96
eigval :     1132.47  1136.78  1142.73  1148.53  1158.28  1173.19
eigval :     1175.99  1177.52  1178.61  1179.60  1181.44  1198.35
eigval :     1201.97  1230.53  1233.44  1237.72  1239.04  1249.41
eigval :     1256.98  1263.03  1276.35  1285.16  1292.82  1293.78
eigval :     1296.96  1319.27  1321.72  1325.04  1342.10  1343.32
eigval :     1350.99  1356.21  1363.09  1364.24  1381.45  1392.69
eigval :     1409.99  1411.59  1419.72  1420.81  1425.85  1426.14
eigval :     1458.90  1464.84  1468.20  1482.21  1482.82  1485.51
eigval :     1488.48  1535.96  1549.83  1556.54  1565.46  1569.73
eigval :     1577.56  1579.36  1582.24  1586.28  1587.87  1601.31
eigval :     1607.27  2277.62  3068.95  3075.77  3080.62  3081.71
eigval :     3081.90  3082.45  3084.32  3085.74  3087.35  3087.71
eigval :     3088.81  3089.63  3089.68  3092.42  3093.41  3095.20
eigval :     3095.35  3096.56  3099.08  3100.34  3100.95  3101.32
eigval :     3102.23  3103.65  3142.13

   temp. (K)  partition function   enthalpy   heat capacity  entropy
                                   cal/mol     cal/K/mol   cal/K/mol   J/K/mol
 298.15  VIB  0.237E+17            20750.395    132.923    129.078
         ROT  0.102E+09              888.752      2.981     39.627
         INT  0.241E+25            21639.147    135.904    168.705
         TR   0.138E+29             1481.254      4.968     44.977
         TOT                       23120.4013   140.8722   213.6819   894.0452

       T/K    H(0)-H(T)+PV         H(T)/Eh          T*S/Eh         G(T)/Eh
   ------------------------------------------------------------------------
    298.15    0.368447E-01    0.565192E+00    0.101527E+00    0.463665E+00
   ------------------------------------------------------------------------

         :::::::::::::::::::::::::::::::::::::::::::::::::::::
         ::                  THERMODYNAMIC                  ::
         :::::::::::::::::::::::::::::::::::::::::::::::::::::
         :: total free energy        -114.654653250706 Eh   ::
         ::.................................................::
         :: total energy             -115.118318326204 Eh   ::
         :: zero point energy           0.528347548186 Eh   ::
         :: G(RRHO) w/o ZPVE           -0.064682472687 Eh   ::
         :: G(RRHO) contrib.            0.463665075498 Eh   ::
         :::::::::::::::::::::::::::::::::::::::::::::::::::::

           -------------------------------------------------
          | TOTAL ENERGY             -115.118318326204 Eh   |
          | TOTAL ENTHALPY           -114.553126073268 Eh   |
          | TOTAL FREE ENERGY        -114.654653250706 Eh   |
          | GRADIENT NORM               0.000048647056 Eh/α |
           -------------------------------------------------

 * finished run on 2025/09/14 at 11:58:50.537
