   * xtb version 6.7.1 (edcfbbe) compiled by 'albert@albert-system' on 2024-07-22

   ID    Z sym.   atoms
    1    7 N      1, 9, 24, 26, 32
    2    6 C      2-8, 10-23, 25, 27-31, 33-46
    3    1 H      47-71

          program call               : xtb data2507/gas/CzPm/CzPm_gas_S0_crest.xyz --gfn 2 --ohess vtight --parallel 40 --molden --ceasefiles --namespace data2507/gas/CzPm/CzPm_gas_S0_finalOpt
          :  Hamiltonian                  GFN2-xTB          :
 * total energy  :  -115.1938353 Eh     change       -0.2060489E-08 Eh
 * total energy  :  -115.1938375 Eh     change       -0.2154659E-05 Eh
 * total energy  :  -115.1938396 Eh     change       -0.2113458E-05 Eh
 * total energy  :  -115.1938432 Eh     change       -0.3640814E-05 Eh
 * total energy  :  -115.1938452 Eh     change       -0.2005651E-05 Eh
 * total energy  :  -115.1938468 Eh     change       -0.1613144E-05 Eh
 * total energy  :  -115.1938487 Eh     change       -0.1830490E-05 Eh
 * total energy  :  -115.1938499 Eh     change       -0.1226571E-05 Eh
 * total energy  :  -115.1938499 Eh     change        0.1429343E-07 Eh
 * total energy  :  -115.1938509 Eh     change       -0.1025089E-05 Eh
 * total energy  :  -115.1938612 Eh     change       -0.5411090E-06 Eh
 * total energy  :  -115.1938613 Eh     change       -0.1582275E-06 Eh
 * total energy  :  -115.1938615 Eh     change       -0.1615088E-06 Eh
 * total energy  :  -115.1938617 Eh     change       -0.2462810E-06 Eh
 * total energy  :  -115.1938621 Eh     change       -0.3619450E-06 Eh
 * total energy  :  -115.1938625 Eh     change       -0.3785307E-06 Eh
 * total energy  :  -115.1938628 Eh     change       -0.3516125E-06 Eh
 * total energy  :  -115.1938631 Eh     change       -0.2368529E-06 Eh
 * total energy  :  -115.1938631 Eh     change       -0.4167867E-07 Eh
   *** GEOMETRY OPTIMIZATION CONVERGED AFTER 31 ITERATIONS ***

 final structure:
================
71
 xtb: 6.7.1 (edcfbbe)
N           -0.00398151467276       -1.24791828759506        0.47002266013454
C           -0.00179724465217       -0.10552163402298        0.34855109840199
C           -0.00047748273407        1.30090824072174        0.29402970450614
C           -1.20333727298458        2.03914678787341        0.33645520280994
C           -2.52024069736330        1.42193335115525        0.20353882765570
C           -3.60199765392543        1.98678613692050        0.88187860431747
C           -4.85651035453038        1.42565574140148        0.79506283398045
C           -5.06542855643531        0.29530118328230        0.00379885326110
N           -6.33126673310008       -0.28226542943181       -0.08414310805786
C           -7.51946294834919        0.39113792978739       -0.30776136417720
C           -7.74063311727356        1.73772673360353       -0.55707992334745
C           -9.04122996346958        2.14705234952469       -0.78414115302715
C          -10.10067426367667        1.24326068568966       -0.77622270220592
C           -9.88277745267933       -0.10267489510689       -0.55860712861157
C           -8.58463012090950       -0.53724247169295       -0.32774460117478
C           -8.00519011224507       -1.83169522233021       -0.09662695976283
C           -8.53981272920088       -3.10816375871286        0.01498338585527
C           -7.68598692984808       -4.16194954604211        0.27340416428318
C           -6.31918861621166       -3.95146957915495        0.43792324942107
C           -5.76422899153006       -2.68995438732293        0.33174650062916
C           -6.61356361694081       -1.63178569625800        0.04326103992848
C           -3.99462557518106       -0.24937533327494       -0.70480087340542
C           -2.73666321629897        0.30438264743819       -0.60236850660827
N           -1.17740556323673        3.35738765591664        0.52281579972015
C           -0.00137878175799        3.93740288115082        0.63737784102597
N            1.17481710238657        3.35820479698878        0.52160673283364
C            1.20203269976237        2.03972528431062        0.33600919764709
C            2.51979013292176        1.42427571329787        0.20402216030822
C            2.73663859367152        0.29989876185201       -0.59227270473113
C            3.99546473942782       -0.25218256750666       -0.69272498741117
C            5.06714469686146        0.30173472062569        0.00732236021524
N            6.33379969476233       -0.27425305902552       -0.07936114516900
C            7.51958224118869        0.39815194416545       -0.31803798407517
C            7.73759973021587        1.74259039639859       -0.58128908019262
C            9.03605831971395        2.15093581374985       -0.82194906529324
C           10.09634890252534        1.24813545479986       -0.81397074157048
C            9.88140909086917       -0.09588337604119       -0.58207867685118
C            8.58549822741767       -0.52943398005866       -0.33715134484163
C            8.00913339279696       -1.82214513152979       -0.08917758394094
C            8.54565438820603       -3.09711251035877        0.03069647923603
C            7.69471672853074       -4.14889522867082        0.30605596942917
C            6.32900309423052       -3.93791019026356        0.47914331161284
C            5.77215192848118       -2.67801660031559        0.36460423774336
C            6.61844019057673       -1.62215241651341        0.05909780344259
C            4.85811841000040        1.43931144054716        0.78811512452301
C            3.60240638538271        1.99791955642931        0.87381495511215
H           -3.43097310761516        2.85880736389215        1.49365459149909
H           -5.67943085551949        1.84265789455257        1.35528687018509
H           -6.92597315583977        2.44517292909682       -0.58873376319051
H           -9.23885569473764        3.19122730148291       -0.97640946686043
H          -11.10296703502600        1.60307032582690       -0.95459993294000
H          -10.70041225163615       -0.80731804466509       -0.57222980814218
H           -9.60203579130422       -3.26700902164310       -0.09327542918290
H           -8.08038224256506       -5.16326948969520        0.36112478647819
H           -5.67749577106430       -4.79163172898352        0.65792428994998
H           -4.70639784429540       -2.53815429571500        0.48337193009597
H           -4.16164743521646       -1.09595323263271       -1.35293183833897
H           -1.92796899150148       -0.11457705736069       -1.18154543828811
H           -0.00169389054965        5.00343066576843        0.82707768548347
H            1.92760299845793       -0.12620844172437       -1.16563031685105
H            4.16246043917940       -1.10482899955992       -1.33286439736314
H            6.92206498608667        2.44901612032215       -0.61314773273537
H            9.23123352943310        3.19347153209336       -1.02529442323884
H           11.09688706239809        1.60713342113121       -1.00349370242707
H           10.69956055457503       -0.79993463301031       -0.59538332941147
H            9.60713130566383       -3.25615179686152       -0.08434300795868
H            8.09044913112005       -5.14907787792391        0.40050102403366
H            5.68992880488643       -4.77641475288932        0.71266547071992
H            4.71540905072635       -2.52523608244119        0.52277646705078
H            5.68191094113048        1.86379251896217        1.34140787640748
H            3.43104876099050        2.87527248637649        1.47781294144493

          :  Hamiltonian                  GFN2-xTB          :
         :: gradient norm              0.000150919059 Eh/a0 ::
         :: HOMO-LUMO gap              1.882255804814 eV    ::
         :: SCC energy              -117.361347693346 Eh    ::
         :: -> dispersion             -0.099156532331 Eh    ::
         :: repulsion energy           2.167484593815 Eh    ::

    * Orbital Energies and Occupations

         #    Occupation            Energy/Eh            Energy/eV
      -------------------------------------------------------------
         1        2.0000           -0.6967783             -18.9603
       ...           ...                  ...                  ...
        95        2.0000           -0.4212335             -11.4623
        96        2.0000           -0.4198062             -11.4235
        97        2.0000           -0.4196789             -11.4200
        98        2.0000           -0.4174464             -11.3593
        99        2.0000           -0.4159109             -11.3175
       100        2.0000           -0.4090761             -11.1315
       101        2.0000           -0.4079758             -11.1016
       102        2.0000           -0.4079251             -11.1002
       103        2.0000           -0.3814824             -10.3807
       104        2.0000           -0.3814404             -10.3795
       105        2.0000           -0.3810202             -10.3681
       106        2.0000           -0.3675724             -10.0022
       107        2.0000           -0.3670805              -9.9888 (HOMO)
       108                         -0.2979088              -8.1065 (LUMO)
       109                         -0.2955494              -8.0423
       110                         -0.2493214              -6.7844
       111                         -0.2476327              -6.7384
       112                         -0.2429939              -6.6122
       113                         -0.2423327              -6.5942
       114                         -0.2406264              -6.5478
       115                         -0.2246992              -6.1144
       116                         -0.2246343              -6.1126
       117                         -0.2239911              -6.0951
       118                         -0.2134314              -5.8078
       ...                                ...                  ...
       209                          1.1562775              31.4639
      -------------------------------------------------------------
                  HL-Gap            0.0691717 Eh            1.8823 eV

     #   Z          covCN         q      C6AA      α(0)
     1   7 N        0.911    -0.247    26.421     7.434
     2   6 C        1.905     0.111    28.356     8.600
     3   6 C        2.962    -0.020    28.507     8.758
     4   6 C        2.980     0.119    25.387     8.265
     5   6 C        2.980    -0.000    28.034     8.685
     6   6 C        2.925    -0.022    28.561     8.764
     7   6 C        2.920    -0.042    29.034     8.836
     8   6 C        2.913     0.072    26.399     8.425
     9   7 N        2.802    -0.040    22.014     6.968
    10   6 C        3.071     0.046    26.892     8.503
    11   6 C        2.910    -0.051    29.254     8.869
    12   6 C        2.924    -0.033    28.816     8.803
    13   6 C        2.920    -0.040    28.982     8.828
    14   6 C        2.913    -0.032    28.803     8.800
    15   6 C        3.067    -0.015    28.321     8.726
    16   6 C        3.067    -0.015    28.325     8.727
    17   6 C        2.913    -0.032    28.805     8.801
    18   6 C        2.920    -0.039    28.976     8.827
    19   6 C        2.924    -0.032    28.801     8.801
    20   6 C        2.910    -0.050    29.241     8.867
    21   6 C        3.071     0.046    26.892     8.503
    22   6 C        2.921    -0.041    29.014     8.833
    23   6 C        2.921    -0.025    28.637     8.776
    24   7 N        1.842    -0.251    27.401     7.758
    25   6 C        2.900     0.158    24.585     8.130
    26   7 N        1.842    -0.251    27.401     7.758
    27   6 C        2.980     0.118    25.389     8.265
    28   6 C        2.980    -0.001    28.035     8.685
    29   6 C        2.921    -0.025    28.639     8.776
    30   6 C        2.921    -0.041    29.014     8.833
    31   6 C        2.913     0.072    26.398     8.425
    32   7 N        2.802    -0.040    22.014     6.968
    33   6 C        3.071     0.046    26.892     8.503
    34   6 C        2.910    -0.051    29.254     8.869
    35   6 C        2.924    -0.033    28.816     8.803
    36   6 C        2.920    -0.040    28.982     8.828
    37   6 C        2.913    -0.032    28.803     8.800
    38   6 C        3.067    -0.015    28.321     8.726
    39   6 C        3.067    -0.015    28.325     8.727
    40   6 C        2.913    -0.032    28.805     8.801
    41   6 C        2.920    -0.039    28.976     8.827
    42   6 C        2.924    -0.032    28.801     8.801
    43   6 C        2.910    -0.050    29.241     8.867
    44   6 C        3.071     0.046    26.892     8.503
    45   6 C        2.920    -0.042    29.033     8.836
    46   6 C        2.925    -0.022    28.562     8.764
    47   1 H        0.926     0.059     2.212     2.326
    48   1 H        0.926     0.050     2.326     2.385
    49   1 H        0.926     0.029     2.595     2.519
    50   1 H        0.926     0.031     2.570     2.507
    51   1 H        0.926     0.030     2.585     2.514
    52   1 H        0.926     0.033     2.546     2.495
    53   1 H        0.926     0.033     2.548     2.496
    54   1 H        0.926     0.030     2.580     2.512
    55   1 H        0.926     0.033     2.545     2.494
    56   1 H        0.926     0.032     2.559     2.502
    57   1 H        0.926     0.050     2.315     2.379
    58   1 H        0.926     0.043     2.407     2.426
    59   1 H        0.925     0.048     2.349     2.397
    60   1 H        0.926     0.043     2.404     2.425
    61   1 H        0.926     0.050     2.315     2.380
    62   1 H        0.926     0.029     2.595     2.519
    63   1 H        0.926     0.031     2.569     2.507
    64   1 H        0.926     0.030     2.584     2.514
    65   1 H        0.926     0.033     2.545     2.495
    66   1 H        0.926     0.033     2.548     2.496
    67   1 H        0.926     0.030     2.579     2.512
    68   1 H        0.926     0.033     2.544     2.494
    69   1 H        0.926     0.032     2.560     2.502
    70   1 H        0.926     0.049     2.326     2.385
    71   1 H        0.926     0.059     2.209     2.324

molecular dipole:
                 x           y           z       tot (Debye)
 q only:        0.004       0.315      -0.103
   full:        0.005       0.528      -0.166       1.408

 projected vibrational frequencies (cm⁻¹)
eigval :       -0.00    -0.00    -0.00     0.00     0.00     0.00
eigval :        8.07    11.09    12.88    22.88    34.26    37.45
eigval :       45.94    57.03    72.27    83.38    96.34   101.04
eigval :      103.79   116.10   124.33   126.40   143.84   148.50
eigval :      164.26   171.10   186.95   193.77   223.47   241.78
eigval :      256.76   259.31   272.14   272.23   284.99   289.87
eigval :      357.60   374.43   381.65   381.84   386.68   390.22
eigval :      395.84   398.49   409.23   418.47   424.41   429.17
eigval :      432.47   439.66   441.82   488.07   498.60   518.10
eigval :      518.33   534.47   535.07   541.02   541.03   550.06
eigval :      563.82   572.75   581.32   582.41   595.36   596.03
eigval :      609.51   612.99   614.79   639.83   652.15   674.20
eigval :      674.42   689.60   699.55   705.54   708.64   711.43
eigval :      733.21   752.09   756.53   758.03   770.73   770.81
eigval :      781.77   781.86   822.71   824.82   832.79   836.10
eigval :      865.19   865.76   875.54   875.60   878.83   879.32
eigval :      897.69   897.92   900.82   903.46   903.49   904.40
eigval :      904.50   920.12   920.20   921.66   921.82   928.13
eigval :      928.81   929.83   934.60   935.34   939.52  1002.93
eigval :     1012.08  1012.10  1015.58  1068.72  1071.54  1071.58
eigval :     1075.19  1075.51  1117.35  1117.65  1135.76  1136.53
eigval :     1153.28  1153.42  1160.31  1176.64  1176.75  1180.97
eigval :     1180.99  1181.95  1182.58  1194.01  1203.13  1203.83
eigval :     1219.12  1235.68  1235.71  1244.70  1244.96  1263.43
eigval :     1263.75  1274.83  1296.27  1299.03  1299.57  1300.02
eigval :     1305.89  1323.51  1327.47  1356.74  1356.92  1360.15
eigval :     1360.17  1363.03  1365.65  1386.36  1395.17  1410.51
eigval :     1410.72  1425.42  1427.26  1427.30  1430.03  1474.61
eigval :     1474.65  1487.10  1487.14  1494.75  1495.75  1497.47
eigval :     1517.12  1555.83  1556.02  1576.06  1576.08  1588.15
eigval :     1588.62  1590.90  1590.95  1598.68  1598.71  1613.68
eigval :     1613.75  2344.49  3054.93  3078.38  3078.38  3079.46
eigval :     3079.47  3083.61  3083.62  3084.97  3085.01  3090.52
eigval :     3090.58  3091.62  3092.07  3092.67  3092.87  3094.83
eigval :     3094.91  3097.48  3097.53  3098.87  3098.92  3103.38
eigval :     3103.75  3107.07  3107.23

   temp. (K)  partition function   enthalpy   heat capacity  entropy
                                   cal/mol     cal/K/mol   cal/K/mol   J/K/mol
 298.15  VIB  0.755E+16            20405.505    130.826    126.537
         ROT  0.101E+09              888.752      2.981     39.602
         INT  0.761E+24            21294.257    133.807    166.140
         TR   0.138E+29             1481.254      4.968     44.977
         TOT                       22775.5114   138.7749   211.1161   883.3099

       T/K    H(0)-H(T)+PV         H(T)/Eh          T*S/Eh         G(T)/Eh
   ------------------------------------------------------------------------
    298.15    0.362951E-01    0.569249E+00    0.100308E+00    0.468941E+00
   ------------------------------------------------------------------------

         :::::::::::::::::::::::::::::::::::::::::::::::::::::
         ::                  THERMODYNAMIC                  ::
         :::::::::::::::::::::::::::::::::::::::::::::::::::::
         :: total free energy        -114.724922190052 Eh   ::
         ::.................................................::
         :: total energy             -115.193863099529 Eh   ::
         :: zero point energy           0.532953906322 Eh   ::
         :: G(RRHO) w/o ZPVE           -0.064012996845 Eh   ::
         :: G(RRHO) contrib.            0.468940909477 Eh   ::
         :::::::::::::::::::::::::::::::::::::::::::::::::::::

           -------------------------------------------------
          | TOTAL ENERGY             -115.193863099529 Eh   |
          | TOTAL ENTHALPY           -114.624614105562 Eh   |
          | TOTAL FREE ENERGY        -114.724922190052 Eh   |
          | GRADIENT NORM               0.000151108562 Eh/α |
          | HOMO-LUMO GAP               1.882257809786 eV   |
           -------------------------------------------------

 * finished run on 2025/09/14 at 11:51:53.186
