   * xtb version 6.7.1 (edcfbbe) compiled by 'albert@albert-system' on 2024-07-22

   ID    Z sym.   atoms
    1    6 C      1-36, 38-42
    2    7 N      37
    3    1 H      43-83

          program call               : xtb data2507/toluene/C2FLA-1/C2FLA-1.xyz --gfn 2 --gbsa toluene --ohess vtight --parallel 40 --molden --ceasefiles --namespace data2507/toluene/C2FLA-1/C2FLA-1_toluene_S0_preOpt
      * Solvation model:               GBSA
        Solvent                        toluene
        Solvent mass                       9.2140E+01 g/mol
          :  Hamiltonian                  GFN2-xTB          :
 * total energy  :  -111.6391438 Eh     change       -0.5276547E-08 Eh
 * total energy  :  -111.6463481 Eh     change       -0.7204223E-02 Eh
 * total energy  :  -111.6478992 Eh     change       -0.1551171E-02 Eh
 * total energy  :  -111.6479096 Eh     change       -0.1038334E-04 Eh
 * total energy  :  -111.6483351 Eh     change       -0.4254779E-03 Eh
 * total energy  :  -111.6484421 Eh     change       -0.1069715E-03 Eh
 * total energy  :  -111.6484980 Eh     change       -0.5597563E-04 Eh
 * total energy  :  -111.6485667 Eh     change       -0.6865826E-04 Eh
 * total energy  :  -111.6486169 Eh     change       -0.5019808E-04 Eh
 * total energy  :  -111.6486797 Eh     change       -0.6275772E-04 Eh
 * total energy  :  -111.6488727 Eh     change       -0.1272983E-05 Eh
 * total energy  :  -111.6488737 Eh     change       -0.9717843E-06 Eh
 * total energy  :  -111.6488744 Eh     change       -0.6662212E-06 Eh
 * total energy  :  -111.6488749 Eh     change       -0.5664731E-06 Eh
 * total energy  :  -111.6488758 Eh     change       -0.9213188E-06 Eh
 * total energy  :  -111.6488771 Eh     change       -0.1227230E-05 Eh
 * total energy  :  -111.6488781 Eh     change       -0.1002979E-05 Eh
 * total energy  :  -111.6488788 Eh     change       -0.7350118E-06 Eh
 * total energy  :  -111.6488788 Eh     change       -0.6305370E-08 Eh
   *** GEOMETRY OPTIMIZATION CONVERGED AFTER 44 ITERATIONS ***

 final structure:
================
83
 xtb: 6.7.1 (edcfbbe)
C           -6.52927162278130       -2.06467294589802       -3.23976722823943
C           -6.64536696763467       -1.60843505238276       -1.78845885841732
C           -5.54623842745712       -0.60518554859327       -1.44843416515316
C           -5.47984298387428       -0.11866118583999        0.01538943063174
C           -5.35359756627694       -1.25470602053029        1.05197344237871
C           -4.19216909240776       -2.22856210922338        0.86788961434891
C           -4.26151674307325       -3.35145409821731        1.89862269950106
C           -6.67587490974036        0.73247181113106        0.40115885575621
C           -7.99687052850927        0.36724371787841        0.56433364706779
C           -8.92377824864219        1.32934359336109        0.94466205457654
C           -8.53592211645024        2.63933269900058        1.17918646632407
C           -7.20815156471575        3.01139595967001        1.05145054164905
C           -6.28337235307886        2.05360786473787        0.66638019795619
C           -4.84821366611742        2.15595114523584        0.47899260765902
C           -4.00261257145983        3.24935217606291        0.59533583162007
C           -2.65702053987575        3.08572589305936        0.32996029286256
C           -2.15940688486201        1.83967435422345       -0.06071149974043
C           -0.78354375444657        1.69060819539990       -0.34440035722663
C            0.39383187685041        1.56480001610057       -0.58667753502583
C            1.77114170631983        1.42467313394554       -0.86717778497883
C            2.33158101072484        2.09938972795993       -1.95740932635956
C            3.67689081780842        1.97970188718316       -2.24534363132098
C            4.46711004815750        1.18202533526529       -1.42918889723982
C            3.91137915867323        0.50604311294824       -0.33096719775151
C            2.56880226886156        0.61353835788918       -0.05106932608836
C            4.96167442513370       -0.32274573495480        0.37690705024791
C            4.59803213422570       -1.80660732778234        0.11000152565206
C            5.58390368840096       -2.84888661549358        0.63140798574537
C            5.05126826542550       -4.25931872728164        0.39713809617563
C            5.04189274325612       -0.04351320456756        1.88784384919602
C            4.97766723623036        1.43238756331691        2.29081773060908
C            6.21158109710173        2.24158961030101        1.90835239453981
C            6.20948942838603        0.06143877019957       -0.38393927154947
C            7.51758930790541       -0.29213018387858       -0.14893315153049
C            8.50793654977401        0.17512901053332       -1.02411293921528
C            9.85338795380320       -0.17687027912553       -0.79500655557826
N           10.94880702048108       -0.46756094392314       -0.60521882335898
C            8.18304190871242        0.98651677326214       -2.11539981180778
C            6.87098745043046        1.35780677640648       -2.33635773993563
C            5.88878010060613        0.90207692562505       -1.46787876804275
C           -3.01671491097679        0.73883581091160       -0.18107386020310
C           -4.35373569004398        0.89487114183243        0.10654698372229
H           -6.60262464797065       -1.21384901438807       -3.91452509516499
H           -5.57407489890059       -2.55653789843558       -3.41402084911378
H           -7.32512046243345       -2.76515308064754       -3.48418862431600
H           -6.57515945485907       -2.47989372242911       -1.13611313335155
H           -7.62269748347652       -1.14790589608875       -1.64194856793376
H           -5.67361833912754        0.27841836375450       -2.08150053974773
H           -4.57950596349494       -1.04467826625655       -1.70218073762704
H           -5.26679881323780       -0.79020090365973        2.03903144683794
H           -6.28756114524369       -1.82006225227371        1.04539370065186
H           -4.22054218220697       -2.66357648915828       -0.13204701258367
H           -3.24498533480201       -1.70155030901371        0.98596928557398
H           -5.18833025750288       -3.91265471744681        1.79499199999061
H           -4.21936121046267       -2.94686609772655        2.90811931003408
H           -3.42870092421310       -4.03969444926777        1.76986164251335
H           -8.32138980992050       -0.65087041516239        0.41119362218393
H           -9.96086928552260        1.05016428206542        1.06495132955877
H           -9.27365846212673        3.37142703332278        1.47533756253725
H           -6.89988817961253        4.02684052880440        1.25349591229175
H           -4.38835042697401        4.21657378854131        0.88244413538880
H           -1.97620712375234        3.92080572423894        0.41445895407278
H            1.69470991558685        2.71746853754964       -2.57376886636286
H            4.10290918543574        2.50096289491164       -3.08969008620511
H            2.12206089263558        0.10066043482503        0.78804946231459
H            4.48992823463094       -1.93887673578614       -0.97057613603856
H            3.62047105640237       -1.99254333161203        0.56092273410194
H            5.75126949281411       -2.70681841795803        1.69996750436799
H            6.54040373182566       -2.74344049016029        0.11735515348906
H            4.88292887286717       -4.43374146098929       -0.66378074641678
H            5.76315888998606       -4.99887729136797        0.75716132892884
H            4.10936100420644       -4.40608943736632        0.92189179906258
H            4.20782581631870       -0.56000066209071        2.36855415814686
H            5.96725623435920       -0.47099419263474        2.27692067571788
H            4.09250210657713        1.89661471772907        1.85120668448015
H            4.86259425687757        1.47061104593392        3.37758499249884
H            6.14816601246381        3.24075192528849        2.33518712055133
H            7.11605567754774        1.76706193082199        2.28471313734727
H            6.29932262376384        2.34113581275899        0.83007365288372
H            7.80468517505144       -0.90126045470890        0.69486713270859
H            8.96985329596768        1.32647849586906       -2.77326825858869
H            6.61949514336304        1.99861839703405       -3.16781074954134
H           -2.60906826769783       -0.20468231260867       -0.51110860469737

          :  Hamiltonian                  GFN2-xTB          :
         :: gradient norm              0.000114095970 Eh/a0 ::
         :: HOMO-LUMO gap              2.394455265298 eV    ::
         :: SCC energy              -113.716189956133 Eh    ::
         :: -> dispersion             -0.100153273638 Eh    ::
         :: -> Gsolv                  -0.048594754207 Eh    ::
         :: repulsion energy           2.067311139456 Eh    ::

    * Orbital Energies and Occupations

         #    Occupation            Energy/Eh            Energy/eV
      -------------------------------------------------------------
         1        2.0000           -0.6679528             -18.1759
       ...           ...                  ...                  ...
        93        2.0000           -0.4207266             -11.4486
        94        2.0000           -0.4193872             -11.4121
        95        2.0000           -0.4172020             -11.3526
        96        2.0000           -0.4165738             -11.3356
        97        2.0000           -0.4117250             -11.2036
        98        2.0000           -0.4070464             -11.0763
        99        2.0000           -0.4064987             -11.0614
       100        2.0000           -0.4039954             -10.9933
       101        2.0000           -0.4028757             -10.9628
       102        2.0000           -0.4021874             -10.9441
       103        2.0000           -0.3947394             -10.7414
       104        2.0000           -0.3808451             -10.3633
       105        2.0000           -0.3701259             -10.0716 (HOMO)
       106                         -0.2821312              -7.6772 (LUMO)
       107                         -0.2579713              -7.0198
       108                         -0.2379426              -6.4747
       109                         -0.2341370              -6.3712
       110                         -0.2265400              -6.1645
       111                         -0.2230854              -6.0705
       112                         -0.2190337              -5.9602
       113                         -0.2099887              -5.7141
       114                         -0.2030390              -5.5250
       115                         -0.1765886              -4.8052
       116                         -0.1408554              -3.8329
       ...                                ...                  ...
       209                          1.4244593              38.7615
      -------------------------------------------------------------
                  HL-Gap            0.0879946 Eh            2.3945 eV

     #   Z          covCN         q      C6AA      α(0)
     1   6 C        3.753    -0.101    22.497     6.764
     2   6 C        3.799    -0.053    21.518     6.605
     3   6 C        3.809    -0.053    21.519     6.603
     4   6 C        3.931     0.009    20.357     6.412
     5   6 C        3.808    -0.053    21.527     6.605
     6   6 C        3.799    -0.052    21.514     6.604
     7   6 C        3.752    -0.101    22.497     6.764
     8   6 C        3.052    -0.002    28.021     8.681
     9   6 C        2.916    -0.036    28.905     8.816
    10   6 C        2.921    -0.035    28.867     8.811
    11   6 C        2.920    -0.035    28.867     8.811
    12   6 C        2.914    -0.036    28.898     8.815
    13   6 C        3.036    -0.002    28.049     8.687
    14   6 C        3.036    -0.002    28.040     8.685
    15   6 C        2.913    -0.035    28.877     8.812
    16   6 C        2.928    -0.034    28.855     8.809
    17   6 C        2.973     0.031    27.297     8.570
    18   6 C        1.983    -0.041    32.155     9.158
    19   6 C        1.982    -0.045    32.273     9.174
    20   6 C        2.973     0.037    27.164     8.549
    21   6 C        2.929    -0.033    28.827     8.805
    22   6 C        2.912    -0.032    28.796     8.799
    23   6 C        3.035    -0.002    28.036     8.685
    24   6 C        3.058     0.005    27.854     8.655
    25   6 C        2.922    -0.035    28.861     8.810
    26   6 C        3.934     0.012    20.309     6.404
    27   6 C        3.812    -0.054    21.525     6.604
    28   6 C        3.799    -0.053    21.525     6.606
    29   6 C        3.753    -0.103    22.523     6.768
    30   6 C        3.803    -0.057    21.600     6.617
    31   6 C        3.799    -0.052    21.508     6.603
    32   6 C        3.751    -0.099    22.444     6.756
    33   6 C        3.049     0.010    27.736     8.637
    34   6 C        2.922    -0.024    28.600     8.770
    35   6 C        2.975     0.009    27.823     8.652
    36   6 C        1.914     0.118    28.206     8.577
    37   7 N        0.911    -0.286    27.367     7.566
    38   6 C        2.928    -0.024    28.593     8.769
    39   6 C        2.913    -0.032    28.810     8.801
    40   6 C        3.038     0.010    27.769     8.643
    41   6 C        2.924    -0.036    28.905     8.817
    42   6 C        3.050    -0.001    28.001     8.678
    43   1 H        0.925     0.032     2.562     2.503
    44   1 H        0.925     0.033     2.543     2.494
    45   1 H        0.925     0.034     2.531     2.488
    46   1 H        0.924     0.037     2.494     2.470
    47   1 H        0.924     0.033     2.540     2.492
    48   1 H        0.924     0.028     2.618     2.530
    49   1 H        0.924     0.040     2.449     2.447
    50   1 H        0.924     0.028     2.613     2.528
    51   1 H        0.924     0.040     2.448     2.447
    52   1 H        0.924     0.037     2.495     2.470
    53   1 H        0.924     0.033     2.543     2.494
    54   1 H        0.925     0.033     2.546     2.495
    55   1 H        0.925     0.032     2.559     2.502
    56   1 H        0.925     0.034     2.530     2.487
    57   1 H        0.926     0.032     2.558     2.501
    58   1 H        0.926     0.029     2.603     2.523
    59   1 H        0.926     0.028     2.618     2.530
    60   1 H        0.926     0.029     2.607     2.525
    61   1 H        0.926     0.029     2.594     2.519
    62   1 H        0.926     0.030     2.588     2.516
    63   1 H        0.926     0.034     2.528     2.486
    64   1 H        0.926     0.034     2.526     2.485
    65   1 H        0.926     0.037     2.493     2.469
    66   1 H        0.924     0.032     2.557     2.500
    67   1 H        0.924     0.043     2.404     2.424
    68   1 H        0.924     0.036     2.500     2.473
    69   1 H        0.924     0.031     2.568     2.506
    70   1 H        0.925     0.034     2.533     2.489
    71   1 H        0.925     0.036     2.507     2.476
    72   1 H        0.925     0.036     2.498     2.472
    73   1 H        0.924     0.042     2.424     2.435
    74   1 H        0.924     0.041     2.436     2.441
    75   1 H        0.924     0.033     2.550     2.497
    76   1 H        0.924     0.033     2.540     2.492
    77   1 H        0.925     0.032     2.558     2.501
    78   1 H        0.925     0.031     2.573     2.508
    79   1 H        0.925     0.029     2.597     2.520
    80   1 H        0.926     0.041     2.439     2.442
    81   1 H        0.926     0.037     2.494     2.470
    82   1 H        0.926     0.042     2.418     2.432
    83   1 H        0.926     0.034     2.526     2.486

molecular dipole:
                 x           y           z       tot (Debye)
 q only:       -2.173      -0.352       0.083
   full:       -2.517      -0.134      -0.042       6.408

 projected vibrational frequencies (cm⁻¹)
eigval :       -0.00    -0.00    -0.00     0.00     0.00     0.00
eigval :        4.79     9.65    11.89    29.48    41.14    44.60
eigval :       47.31    52.76    56.49    61.33    67.33    69.47
eigval :       71.36    77.64    85.02    98.51   101.64   108.17
eigval :      116.09   127.72   133.88   141.07   152.85   166.67
eigval :      187.70   191.00   198.03   215.41   221.39   226.67
eigval :      231.84   235.50   238.65   247.80   264.26   271.87
eigval :      281.61   287.06   294.50   297.72   301.80   309.71
eigval :      318.15   346.37   355.85   364.61   374.62   395.68
eigval :      420.80   424.42   436.85   445.06   447.63   450.36
eigval :      474.41   476.83   500.31   515.16   519.72   528.75
eigval :      544.24   557.34   579.72   590.91   594.76   599.32
eigval :      610.58   614.12   628.68   644.75   682.13   694.33
eigval :      698.66   723.77   725.75   730.85   741.38   746.66
eigval :      766.95   778.87   782.93   787.29   806.08   819.22
eigval :      819.63   825.60   831.47   862.40   875.17   877.78
eigval :      878.57   882.30   889.16   892.67   898.70   905.56
eigval :      907.34   908.63   910.22   913.80   927.94   932.02
eigval :      934.72   943.07   950.99   964.53   988.97   996.97
eigval :      997.57  1003.81  1010.53  1065.66  1069.97  1080.67
eigval :     1084.20  1087.55  1088.00  1088.92  1104.26  1105.70
eigval :     1111.87  1123.84  1127.02  1127.44  1139.87  1144.40
eigval :     1149.05  1151.89  1153.87  1158.66  1171.51  1178.46
eigval :     1180.28  1195.01  1210.73  1213.57  1219.58  1223.30
eigval :     1232.63  1242.96  1245.27  1248.50  1255.61  1261.73
eigval :     1264.52  1276.68  1279.60  1285.24  1288.31  1293.31
eigval :     1299.20  1302.18  1305.34  1308.71  1321.23  1324.47
eigval :     1332.14  1343.77  1354.59  1358.28  1364.58  1365.50
eigval :     1365.86  1368.23  1413.05  1413.21  1413.88  1416.39
eigval :     1418.40  1421.64  1428.12  1435.18  1442.44  1450.63
eigval :     1464.20  1475.32  1479.73  1484.67  1485.48  1487.87
eigval :     1489.78  1493.33  1495.86  1499.80  1499.81  1500.48
eigval :     1501.78  1502.04  1502.79  1504.50  1505.45  1508.01
eigval :     1558.65  1566.87  1573.12  1582.53  1588.22  1593.41
eigval :     1597.94  1603.71  2312.37  2354.15  2948.10  2950.30
eigval :     2951.94  2958.10  2968.23  2971.59  2978.22  2979.67
eigval :     2984.01  2985.83  2986.57  2988.54  2989.66  2994.72
eigval :     2998.48  3000.53  3022.13  3022.16  3022.94  3024.79
eigval :     3024.99  3025.12  3027.13  3027.52  3032.14  3032.39
eigval :     3034.65  3053.01  3066.20  3071.46  3072.84  3075.91
eigval :     3079.58  3081.10  3082.93  3083.48  3087.50  3088.67
eigval :     3089.95  3090.35  3092.67

   temp. (K)  partition function   enthalpy   heat capacity  entropy
                                   cal/mol     cal/K/mol   cal/K/mol   J/K/mol
 298.15  VIB  0.279E+20            23881.875    143.012    153.447
         ROT  0.804E+08              888.752      2.981     39.153
         INT  0.224E+28            24770.628    145.993    192.600
         TR   0.124E+29             1481.254      4.968     44.767
         TOT                       26251.8815   150.9614   237.3673   993.1448

       T/K    H(0)-H(T)+PV         H(T)/Eh          T*S/Eh         G(T)/Eh
   ------------------------------------------------------------------------
    298.15    0.418350E-01    0.731001E+00    0.112781E+00    0.618221E+00
   ------------------------------------------------------------------------

         :::::::::::::::::::::::::::::::::::::::::::::::::::::
         ::                  THERMODYNAMIC                  ::
         :::::::::::::::::::::::::::::::::::::::::::::::::::::
         :: total free energy        -111.030658305637 Eh   ::
         ::.................................................::
         :: total energy             -111.648878816286 Eh   ::
         :: zero point energy           0.689166341196 Eh   ::
         :: G(RRHO) w/o ZPVE           -0.070945830547 Eh   ::
         :: G(RRHO) contrib.            0.618220510649 Eh   ::
         :::::::::::::::::::::::::::::::::::::::::::::::::::::

           -------------------------------------------------
          | TOTAL ENERGY             -111.648878816286 Eh   |
          | TOTAL ENTHALPY           -110.917877438927 Eh   |
          | TOTAL FREE ENERGY        -111.030658305637 Eh   |
          | GRADIENT NORM               0.000114092244 Eh/α |
          | HOMO-LUMO GAP               2.394455263655 eV   |
           -------------------------------------------------

 * finished run on 2025/09/05 at 12:47:26.113
