   * xtb version 6.7.1 (edcfbbe) compiled by 'albert@albert-system' on 2024-07-22

   ID    Z sym.   atoms
    1    6 C      1-36, 38-42
    2    7 N      37
    3    1 H      43-83

          program call               : xtb data2507/toluene/C2FLA-1/C2FLA-1_toluene_T1_crest.xyz --gfn 2 --uhf 2 --gbsa toluene --ohess vtight --parallel 40 --molden --ceasefiles --namespace data2507/toluene/C2FLA-1/C2FLA-1_toluene_T1_finalOpt
      * Solvation model:               GBSA
        Solvent                        toluene
        Solvent mass                       9.2140E+01 g/mol
          :  Hamiltonian                  GFN2-xTB          :
 * total energy  :  -111.5827623 Eh     change       -0.1063070E-07 Eh
 * total energy  :  -111.5828170 Eh     change       -0.5460048E-04 Eh
 * total energy  :  -111.5828203 Eh     change       -0.3327129E-05 Eh
 * total energy  :  -111.5828332 Eh     change       -0.1288643E-04 Eh
 * total energy  :  -111.5828393 Eh     change       -0.6151625E-05 Eh
 * total energy  :  -111.5828435 Eh     change       -0.4192537E-05 Eh
 * total energy  :  -111.5828482 Eh     change       -0.4701522E-05 Eh
 * total energy  :  -111.5828510 Eh     change       -0.2755837E-05 Eh
 * total energy  :  -111.5828518 Eh     change       -0.8824084E-06 Eh
 * total energy  :  -111.5828523 Eh     change       -0.4262550E-06 Eh
 * total energy  :  -111.5828527 Eh     change       -0.3871494E-06 Eh
 * total energy  :  -111.5828530 Eh     change       -0.3717655E-06 Eh
 * total energy  :  -111.5828535 Eh     change       -0.4314679E-06 Eh
 * total energy  :  -111.5828540 Eh     change       -0.5025184E-06 Eh
 * total energy  :  -111.5828543 Eh     change       -0.3239492E-06 Eh
 * total energy  :  -111.5828545 Eh     change       -0.2387684E-06 Eh
 * total energy  :  -111.5828547 Eh     change       -0.2125868E-06 Eh
 * total energy  :  -111.5828548 Eh     change       -0.4013776E-07 Eh
   *** GEOMETRY OPTIMIZATION CONVERGED AFTER 18 ITERATIONS ***

 final structure:
================
83
 xtb: 6.7.1 (edcfbbe)
C           -5.29344923693524        3.81651399925972       -1.99194481784631
C           -5.47766431022471        2.58640580771748       -1.11062403494559
C           -5.33074238112913        1.29700095733566       -1.91646353362587
C           -5.51490362503210        0.02456891924674       -1.06728643564178
C           -5.34647648140601       -1.21657556338567       -1.96482336968469
C           -5.51107443436690       -2.53416556821858       -1.20959234697179
C           -5.34049226054604       -3.73150609951188       -2.13750258779682
C           -6.85116873636052        0.01881766214124       -0.36353872479886
C           -8.11509846057905        0.03884871911529       -0.90650418863726
C           -9.21474456557514        0.02743456106225       -0.05368516521466
C           -9.04645034529114       -0.00418381487855        1.32668312438237
C           -7.78372315640431       -0.02375474613044        1.88628837361952
C           -6.67609043370757       -0.01194137484586        1.03842456249067
C           -5.27436419577177       -0.02517960952628        1.32685467203143
C           -4.58591860715552       -0.05263528800984        2.54892395739435
C           -3.21918364095262       -0.05760923397210        2.54565304137227
C           -2.48556028031685       -0.03517511710360        1.32299152104801
C           -1.11405665729312       -0.03756069220396        1.33942713593783
C            0.11886338629686       -0.03733914740039        1.35474947001770
C            1.48588869503068       -0.03605785241564        1.37157735448215
C            2.19389506777148       -0.06029926024693        2.61568921436763
C            3.55408770093296       -0.05957621265406        2.65509671921632
C            4.28218734916461       -0.03404996647840        1.44422468443149
C            3.58407437706416       -0.00859831319743        0.19419914051443
C            2.22951810959742       -0.00945642346443        0.14789875413613
C            4.57327445400899        0.01754177276775       -0.94932534011242
C            4.41869435658083        1.29477593061940       -1.79752527236052
C            4.55775699805134        2.57942797365479       -0.98272955061365
C            4.38488787760137        3.81515528504785       -1.85831662585974
C            4.42046541792796       -1.21923650992380       -1.85557740538330
C            4.55327906872365       -2.54011137880053       -1.09986967983001
C            4.38806679111328       -3.73392486925379       -2.03313816111871
C            5.89200624186355        0.00171895194855       -0.21244054867975
C            7.15712764558797        0.01276329854876       -0.72403700429737
C            8.25382256137300       -0.00610236996676        0.16732330696819
C            9.55763796015830        0.00394732251545       -0.33570717029408
N           10.63293986828802        0.01269036678560       -0.75533518744632
C            8.03898314974376       -0.03552646701367        1.56233673851105
C            6.76940578898051       -0.04654292471709        2.07638388378104
C            5.67215693908480       -0.02822894995423        1.19556790945863
C           -3.19419618635279       -0.00891852273695        0.08591551566934
C           -4.55500515852818       -0.00378677586637        0.10028344369805
H           -4.30558848207664        3.81574098695077       -2.44846850702765
H           -6.03769642862454        3.83370630958066       -2.78569194098340
H           -5.39816886174766        4.72592492221839       -1.40439526974631
H           -6.46697500007160        2.61596340059452       -0.64770888194223
H           -4.73657269139863        2.60149563365701       -0.30788017763929
H           -4.33984963609430        1.27201663461519       -2.37495493933590
H           -6.06998504308042        1.29101134121417       -2.72025487516850
H           -6.08479843704097       -1.16992425562318       -2.76815192989174
H           -4.35483693331586       -1.18689744874931       -2.42144079062053
H           -4.77177278060213       -2.58964328067596       -0.40698591576019
H           -6.50158916456074       -2.56927885825845       -0.74961873674463
H           -4.35149084554575       -3.72601901645399       -2.59152301710607
H           -6.08277671157235       -3.70818685081008       -2.93292522244718
H           -5.45868723932392       -4.66147136756818       -1.58582100265216
H           -8.26122729300730        0.06308064428194       -1.97649333655071
H          -10.21214797327573        0.04295986483055       -0.46830710276513
H           -9.91703594151611       -0.01302159506862        1.96675515891738
H           -7.65567195480766       -0.04780328595034        2.95817352343906
H           -5.13309745209027       -0.06917103948012        3.47987137522120
H           -2.66429363154966       -0.07781793236628        3.47229737019332
H            1.61365604941744       -0.07951715254067        3.52696244889179
H            4.08026087053096       -0.07834504723017        3.59798615411929
H            1.68731571993943        0.00954958017942       -0.78589029655361
H            3.43762522397719        1.27920666251551       -2.27707311281761
H            5.17546269450669        1.28638111346520       -2.58514405445826
H            5.54208189414655        2.60532117615494       -0.50858516943894
H            3.80797467795461        2.58979328128772       -0.18801964621920
H            3.40202547743934        3.81834076584659       -2.32528681810794
H            4.48541752956809        4.72056019017844       -1.26391606907395
H            5.13810905449492        3.83554877890112       -2.64354359644342
H            3.44194212398336       -1.18013443077179       -2.33891683014352
H            5.18124359187726       -1.17624460952727       -2.63818316937305
H            5.53361213811559       -2.58798794369283       -0.61920221863312
H            3.79675477160875       -2.58716621598573       -0.31293692720344
H            3.40951022240456       -3.71473222725252       -2.50868086628703
H            5.14839690558634       -3.71847497211035       -2.81159113805451
H            4.48294983029656       -4.66586457355605       -1.48034996599460
H            7.34483575229180        0.03523110857690       -1.78806186585727
H            8.89960577871761       -0.04901767430435        2.21656008376754
H            6.61057443338196       -0.06897019894559        3.14396622628153
H           -2.63088305064524        0.00702284368416       -0.83527609315727

          :  Hamiltonian                  GFN2-xTB          :
         :: gradient norm              0.000153211537 Eh/a0 ::
         :: HOMO-LUMO gap              0.712253769532 eV    ::
         :: SCC energy              -113.632635192455 Eh    ::
         :: -> dispersion             -0.100266215904 Eh    ::
         :: -> Gsolv                  -0.051219082281 Eh    ::
         :: repulsion energy           2.049780409224 Eh    ::

    * Orbital Energies and Occupations

         #    Occupation            Energy/Eh            Energy/eV
      -------------------------------------------------------------
         1        2.0000           -0.6619680             -18.0131
       ...           ...                  ...                  ...
        94        2.0000           -0.4175115             -11.3611
        95        2.0000           -0.4163544             -11.3296
        96        2.0000           -0.4157172             -11.3122
        97        2.0000           -0.4127570             -11.2317
        98        2.0000           -0.4123811             -11.2215
        99        2.0000           -0.4111947             -11.1892
       100        2.0000           -0.4083574             -11.1120
       101        2.0000           -0.4034571             -10.9786
       102        2.0000           -0.4009444             -10.9103
       103        2.0000           -0.3996718             -10.8756
       104        2.0000           -0.3870881             -10.5332
       105        1.0000           -0.3630993              -9.8804
       106        1.0000           -0.2912610              -7.9256 (HOMO)
       107        0.0000           -0.2650860              -7.2134 (LUMO)
       108                         -0.2347869              -6.3889
       109                         -0.2274138              -6.1882
       110                         -0.2272846              -6.1847
       111                         -0.2226695              -6.0591
       112                         -0.2203281              -5.9954
       113                         -0.2015036              -5.4832
       114                         -0.1995320              -5.4295
       115                         -0.1767375              -4.8093
       116                         -0.1656016              -4.5062
       117                         -0.1320255              -3.5926
       ...                                ...                  ...
       209                          1.3732058              37.3668
      -------------------------------------------------------------
                  HL-Gap            0.0261750 Eh            0.7123 eV

     #   Z          covCN         q      C6AA      α(0)
     1   6 C        3.752    -0.102    22.518     6.767
     2   6 C        3.800    -0.049    21.451     6.594
     3   6 C        3.808    -0.057    21.590     6.614
     4   6 C        3.935     0.010    20.350     6.411
     5   6 C        3.808    -0.057    21.590     6.614
     6   6 C        3.800    -0.049    21.451     6.594
     7   6 C        3.752    -0.102    22.518     6.767
     8   6 C        3.055     0.007    27.820     8.650
     9   6 C        2.912    -0.033    28.816     8.802
    10   6 C        2.921    -0.030    28.742     8.792
    11   6 C        2.918    -0.032    28.788     8.798
    12   6 C        2.912    -0.034    28.837     8.806
    13   6 C        3.033     0.004    27.906     8.665
    14   6 C        3.035     0.005    27.875     8.660
    15   6 C        2.906    -0.031    28.769     8.795
    16   6 C        2.924    -0.030    28.756     8.794
    17   6 C        2.967     0.035    27.206     8.556
    18   6 C        1.985    -0.034    31.956     9.129
    19   6 C        1.984    -0.029    31.829     9.111
    20   6 C        2.966     0.029    27.363     8.580
    21   6 C        2.921    -0.028    28.708     8.786
    22   6 C        2.905    -0.034    28.844     8.806
    23   6 C        3.033     0.004    27.901     8.664
    24   6 C        3.044     0.005    27.880     8.660
    25   6 C        2.915    -0.034    28.844     8.807
    26   6 C        3.933     0.010    20.350     6.411
    27   6 C        3.808    -0.057    21.587     6.614
    28   6 C        3.800    -0.048    21.437     6.592
    29   6 C        3.752    -0.102    22.514     6.766
    30   6 C        3.808    -0.057    21.587     6.614
    31   6 C        3.800    -0.048    21.437     6.592
    32   6 C        3.752    -0.102    22.514     6.766
    33   6 C        3.051     0.006    27.843     8.654
    34   6 C        2.917    -0.030    28.757     8.794
    35   6 C        2.972    -0.002    28.071     8.691
    36   6 C        1.912     0.109    28.409     8.608
    37   7 N        0.911    -0.318    28.182     7.678
    38   6 C        2.923    -0.027    28.678     8.782
    39   6 C        2.909    -0.035    28.880     8.812
    40   6 C        3.031    -0.000    28.002     8.680
    41   6 C        2.917    -0.034    28.845     8.807
    42   6 C        3.044     0.008    27.810     8.649
    43   1 H        0.925     0.036     2.508     2.477
    44   1 H        0.925     0.036     2.509     2.477
    45   1 H        0.925     0.034     2.530     2.488
    46   1 H        0.924     0.028     2.616     2.529
    47   1 H        0.924     0.028     2.620     2.531
    48   1 H        0.924     0.040     2.454     2.450
    49   1 H        0.924     0.040     2.451     2.448
    50   1 H        0.924     0.040     2.451     2.448
    51   1 H        0.924     0.040     2.454     2.450
    52   1 H        0.924     0.028     2.620     2.531
    53   1 H        0.924     0.028     2.616     2.529
    54   1 H        0.925     0.036     2.509     2.477
    55   1 H        0.925     0.036     2.509     2.477
    56   1 H        0.925     0.034     2.530     2.488
    57   1 H        0.926     0.035     2.514     2.479
    58   1 H        0.926     0.034     2.525     2.485
    59   1 H        0.926     0.033     2.547     2.495
    60   1 H        0.926     0.034     2.526     2.485
    61   1 H        0.926     0.036     2.498     2.472
    62   1 H        0.926     0.036     2.502     2.474
    63   1 H        0.926     0.035     2.510     2.478
    64   1 H        0.926     0.033     2.541     2.493
    65   1 H        0.926     0.036     2.504     2.474
    66   1 H        0.924     0.041     2.437     2.441
    67   1 H        0.924     0.036     2.496     2.471
    68   1 H        0.924     0.024     2.668     2.554
    69   1 H        0.924     0.029     2.599     2.521
    70   1 H        0.925     0.037     2.486     2.466
    71   1 H        0.925     0.035     2.522     2.484
    72   1 H        0.925     0.035     2.523     2.484
    73   1 H        0.924     0.041     2.438     2.442
    74   1 H        0.924     0.036     2.496     2.471
    75   1 H        0.924     0.024     2.668     2.555
    76   1 H        0.924     0.029     2.599     2.521
    77   1 H        0.925     0.037     2.486     2.466
    78   1 H        0.925     0.034     2.524     2.484
    79   1 H        0.925     0.035     2.522     2.484
    80   1 H        0.926     0.028     2.611     2.527
    81   1 H        0.926     0.027     2.627     2.535
    82   1 H        0.926     0.035     2.512     2.479
    83   1 H        0.926     0.037     2.487     2.466

molecular dipole:
                 x           y           z       tot (Debye)
 q only:       -5.125       0.003      -0.060
   full:       -5.424      -0.001       0.214      13.798

 projected vibrational frequencies (cm⁻¹)
eigval :       -0.00    -0.00    -0.00    -0.00     0.00     0.00
eigval :        1.85     4.32    12.34    24.78    40.25    47.59
eigval :       49.82    52.83    55.27    57.27    60.43    64.96
eigval :       67.31    69.64    71.09    75.26    83.14    89.33
eigval :       95.80   109.39   118.66   136.93   142.69   148.20
eigval :      182.44   200.71   203.16   204.42   216.55   219.45
eigval :      220.81   228.21   228.64   234.28   246.45   250.55
eigval :      252.23   281.80   283.37   302.74   302.86   303.00
eigval :      310.39   332.14   334.43   346.79   358.37   382.38
eigval :      404.79   420.39   421.81   439.22   442.41   448.30
eigval :      448.67   460.28   492.79   506.70   513.23   525.67
eigval :      538.04   557.36   566.09   567.63   568.02   576.59
eigval :      581.45   616.33   619.90   620.88   669.60   700.35
eigval :      703.00   708.26   711.23   717.53   722.50   725.14
eigval :      762.23   767.86   777.69   778.14   787.42   800.77
eigval :      805.19   810.52   811.48   850.39   852.76   856.18
eigval :      865.10   867.42   882.92   891.48   892.85   901.77
eigval :      903.88   904.35   905.52   906.58   920.81   928.51
eigval :      928.71   938.60   952.52   957.52   957.73   980.37
eigval :      987.27  1010.83  1017.76  1070.15  1076.69  1077.21
eigval :     1084.46  1084.55  1085.11  1088.10  1094.13  1094.35
eigval :     1095.27  1110.84  1112.20  1134.52  1135.22  1135.44
eigval :     1136.70  1140.95  1145.39  1151.38  1157.62  1178.26
eigval :     1184.62  1197.98  1202.81  1213.04  1217.05  1218.73
eigval :     1230.61  1231.24  1234.34  1241.66  1249.88  1259.80
eigval :     1264.62  1271.75  1277.20  1277.45  1283.26  1283.40
eigval :     1289.80  1293.58  1297.36  1301.48  1306.05  1313.81
eigval :     1323.16  1330.23  1339.82  1354.55  1354.74  1355.24
eigval :     1369.12  1370.42  1374.27  1399.87  1403.61  1412.06
eigval :     1412.27  1412.76  1412.82  1427.10  1450.39  1455.52
eigval :     1459.35  1473.71  1475.17  1481.03  1483.09  1483.82
eigval :     1490.87  1494.52  1494.98  1495.30  1495.66  1500.15
eigval :     1500.28  1500.46  1500.57  1501.32  1501.54  1501.82
eigval :     1502.00  1503.29  1524.70  1548.63  1567.10  1578.51
eigval :     1590.89  1612.24  2136.17  2292.96  2958.36  2959.05
eigval :     2959.40  2960.43  2968.48  2969.77  2970.30  2971.60
eigval :     2975.16  2975.66  2977.78  2978.86  2979.75  2980.89
eigval :     2982.81  2983.66  3023.49  3023.64  3024.47  3024.48
eigval :     3026.54  3026.76  3027.32  3027.60  3034.37  3034.57
eigval :     3034.63  3034.85  3070.68  3071.08  3073.57  3074.37
eigval :     3075.00  3076.23  3082.51  3083.13  3083.38  3085.42
eigval :     3087.51  3088.32  3090.33

   temp. (K)  partition function   enthalpy   heat capacity  entropy
                                   cal/mol     cal/K/mol   cal/K/mol   J/K/mol
 298.15  VIB  0.132E+22            24502.432    144.430    160.618
         ROT  0.766E+08              888.752      2.981     39.057
         INT  0.101E+30            25391.184    147.411    199.675
         TR   0.124E+29             1481.254      4.968     44.767
         TOT                       26872.4382   152.3794   244.4425  1022.7476

       T/K    H(0)-H(T)+PV         H(T)/Eh          T*S/Eh         G(T)/Eh
   ------------------------------------------------------------------------
    298.15    0.428240E-01    0.727133E+00    0.116143E+00    0.610990E+00
   ------------------------------------------------------------------------

         :::::::::::::::::::::::::::::::::::::::::::::::::::::
         ::                  THERMODYNAMIC                  ::
         :::::::::::::::::::::::::::::::::::::::::::::::::::::
         :: total free energy        -110.971864288909 Eh   ::
         ::.................................................::
         :: total energy             -111.582854782683 Eh   ::
         :: zero point energy           0.684309077815 Eh   ::
         :: G(RRHO) w/o ZPVE           -0.073318584042 Eh   ::
         :: G(RRHO) contrib.            0.610990493773 Eh   ::
         :::::::::::::::::::::::::::::::::::::::::::::::::::::

           -------------------------------------------------
          | TOTAL ENERGY             -111.582854782683 Eh   |
          | TOTAL ENTHALPY           -110.855721748813 Eh   |
          | TOTAL FREE ENERGY        -110.971864288909 Eh   |
          | GRADIENT NORM               0.000153546064 Eh/α |
          | HOMO-LUMO GAP               0.712258716178 eV   |
           -------------------------------------------------

 * finished run on 2025/09/05 at 13:24:39.387
