   * xtb version 6.7.1 (edcfbbe) compiled by 'albert@albert-system' on 2024-07-22

   ID    Z sym.   atoms
    1    6 C      1-36, 38-42
    2    7 N      37
    3    1 H      43-83

          program call               : xtb data2507/toluene/C2FLA-1/C2FLA-1_toluene_S0_crest.xyz --gfn 2 --gbsa toluene --ohess vtight --parallel 40 --molden --ceasefiles --namespace data2507/toluene/C2FLA-1/C2FLA-1_toluene_S0_finalOpt
      * Solvation model:               GBSA
        Solvent                        toluene
        Solvent mass                       9.2140E+01 g/mol
          :  Hamiltonian                  GFN2-xTB          :
 * total energy  :  -111.6615715 Eh     change       -0.1773458E-08 Eh
 * total energy  :  -111.6616163 Eh     change       -0.4481585E-04 Eh
 * total energy  :  -111.6615553 Eh     change        0.6103405E-04 Eh
 * total energy  :  -111.6616246 Eh     change       -0.6935653E-04 Eh
 * total energy  :  -111.6616319 Eh     change       -0.7311965E-05 Eh
 * total energy  :  -111.6616409 Eh     change       -0.8939212E-05 Eh
 * total energy  :  -111.6616439 Eh     change       -0.3020744E-05 Eh
 * total energy  :  -111.6616485 Eh     change       -0.4607651E-05 Eh
 * total energy  :  -111.6616529 Eh     change       -0.4391010E-05 Eh
 * total energy  :  -111.6616540 Eh     change       -0.1142050E-05 Eh
 * total energy  :  -111.6616658 Eh     change       -0.2715679E-06 Eh
 * total energy  :  -111.6616662 Eh     change       -0.3669202E-06 Eh
 * total energy  :  -111.6616664 Eh     change       -0.2280204E-06 Eh
 * total energy  :  -111.6616666 Eh     change       -0.2141580E-06 Eh
 * total energy  :  -111.6616669 Eh     change       -0.3194349E-06 Eh
 * total energy  :  -111.6616674 Eh     change       -0.4150503E-06 Eh
 * total energy  :  -111.6616677 Eh     change       -0.3414468E-06 Eh
 * total energy  :  -111.6616679 Eh     change       -0.2119859E-06 Eh
 * total energy  :  -111.6616680 Eh     change       -0.8659975E-07 Eh
   *** GEOMETRY OPTIMIZATION CONVERGED AFTER 32 ITERATIONS ***

 final structure:
================
83
 xtb: 6.7.1 (edcfbbe)
C           -5.42344188637335        3.65473132269961       -2.26530750828372
C           -5.56894371436809        2.49355762479799       -1.28831331822394
C           -5.38935743083299        1.14898363045805       -1.99067839560496
C           -5.53856275933834       -0.05799260060652       -1.04498424463137
C           -5.33478261749277       -1.35896349577896       -1.84456570450976
C           -5.46624153320498       -2.61942948914252       -0.99168925841658
C           -5.26805161004515       -3.87926767622996       -1.82693420224522
C           -6.87492142290419       -0.04511939046255       -0.34008624678558
C           -8.14082140220066       -0.10292771508290       -0.88307327363848
C           -9.23804481022835       -0.07470926102251       -0.03161972309312
C           -9.06877825268399        0.00938771452027        1.34221418406387
C           -7.80017811356858        0.06706334950647        1.89706611729863
C           -6.70361067433835        0.03970024773856        1.05043491270073
C           -5.28034073336268        0.08576405473712        1.33629594468182
C           -4.59742541002430        0.16930836879461        2.54069532752054
C           -3.21607642531630        0.19666906998717        2.52477961733623
C           -2.51279506915912        0.13953092213472        1.31637951411462
C           -1.10323330215281        0.16322242494376        1.32378878581127
C            0.10583207749268        0.17905227456726        1.33490228119379
C            1.51509319281010        0.19256017793384        1.35139822235218
C            2.19578815531836        0.36880683428508        2.56238155308981
C            3.57593519214174        0.37810183059353        2.60299792236429
C            4.28132078471235        0.20801765468620        1.41966231101957
C            3.60427254652428        0.03303487999956        0.20022128529020
C            2.23048266048665        0.02511749624405        0.15771561833591
C            4.58415419974166       -0.13271354902865       -0.93769248203755
C            4.42751119003221        0.98486265850708       -1.98694614917255
C            4.58022757194830        2.38991091815568       -1.40709727454223
C            4.40476203097592        3.45467165658422       -2.48398264181552
C            4.42257518165797       -1.50148658301464       -1.62710955332027
C            4.54914158047728       -2.68425266940469       -0.66858529160405
C            4.38579002071134       -4.01082974117572       -1.40186384021769
C            5.90645763596719       -0.03152823005199       -0.21518327988210
C            7.17680300130849       -0.11093693884569       -0.73323290250304
C            8.26478654579716        0.00988568224619        0.14243360944312
C            9.57676103540458       -0.07059866903215       -0.36664290172203
N           10.64496482288330       -0.13818864320528       -0.78478786043466
C            8.06671662770714        0.20861960263846        1.51269916233205
C            6.78707418082011        0.28786031698672        2.02773334891872
C            5.70734544483564        0.16808976140381        1.16342264646446
C           -3.20573691027232        0.05567892337805        0.10070993106056
C           -4.57970975551234        0.02978838827707        0.11956203674959
H           -4.43805296998188        3.64501033093800       -2.72715425938509
H           -6.17178760492368        3.58809344025087       -3.05261291705329
H           -5.55126103334065        4.60443787125642       -1.75057121014264
H           -6.55657933615964        2.53196771650953       -0.82248506507784
H           -4.82535045071022        2.59219685622652       -0.49386332479024
H           -4.39885680717201        1.11455874480935       -2.45002334748541
H           -6.12984368983004        1.06090787579330       -2.78881750012107
H           -6.07184205634722       -1.39347209134482       -2.64991362367400
H           -4.34283163637625       -1.33767227915790       -2.30156588973524
H           -4.72520816841305       -2.59552560034267       -0.18908211923204
H           -6.45496023986047       -2.64283179923642       -0.52726216140038
H           -4.28050526635012       -3.88376174420370       -2.28418440941786
H           -6.01274780243213       -3.93449052438398       -2.61859422310562
H           -5.36187686015916       -4.76728144908223       -1.20568889656702
H           -8.28582436356521       -0.16890690136742       -1.95175442537052
H          -10.23582718818716       -0.11904751717977       -0.44441941382705
H           -9.93649897240657        0.03016766641445        1.98622640409179
H           -7.67183207699672        0.13236194981562        2.96768338647466
H           -5.13282688708766        0.21277580147266        3.47786615209302
H           -2.66168171407031        0.26074742307064        3.45035727061836
H            1.62304848221840        0.49762490305938        3.46951938187376
H            4.09347610978258        0.51406607953949        3.54099854363848
H            1.69367740691996       -0.10947264986430       -0.76984859514261
H            3.44130898510815        0.89385072339531       -2.44695362356118
H            5.17476840652478        0.83769285124481       -2.76984895601618
H            5.56906298991065        2.49357079831018       -0.95380747886539
H            3.83766219160288        2.54338069065479       -0.62058779997776
H            3.41727545921611        3.38299073830706       -2.93542341367259
H            4.51558916713850        4.44935838981805       -2.05812883975958
H            5.14997972087985        3.33286829976860       -3.26767710138525
H            3.44276783160973       -1.53533176494835       -2.10801201359669
H            5.18021676101628       -1.59144554374636       -2.40866725057048
H            5.52692175559670       -2.65820763813258       -0.18145639019780
H            3.78842246840685       -2.60530177376290        0.11156571464797
H            3.40966421716068       -4.06617220317684       -1.87952198680453
H            5.15006050846226       -4.12096499885169       -2.16875744198853
H            4.47530413540782       -4.84312676554770       -0.70736888236783
H            7.35430352603315       -0.26339863557207       -1.78785063461283
H            8.92643337565763        0.29786954384326        2.16115974316839
H            6.63560582954072        0.44106902456210        3.08538786298412
H           -2.65174074981902        0.01314153312855       -0.82591492564327

          :  Hamiltonian                  GFN2-xTB          :
         :: gradient norm              0.000149130494 Eh/a0 ::
         :: HOMO-LUMO gap              2.228310802349 eV    ::
         :: SCC energy              -113.730924159030 Eh    ::
         :: -> dispersion             -0.100333738717 Eh    ::
         :: -> Gsolv                  -0.049017344500 Eh    ::
         :: repulsion energy           2.069256168128 Eh    ::

    * Orbital Energies and Occupations

         #    Occupation            Energy/Eh            Energy/eV
      -------------------------------------------------------------
         1        2.0000           -0.6682274             -18.1834
       ...           ...                  ...                  ...
        93        2.0000           -0.4227839             -11.5045
        94        2.0000           -0.4213705             -11.4661
        95        2.0000           -0.4209692             -11.4552
        96        2.0000           -0.4163055             -11.3282
        97        2.0000           -0.4148796             -11.2894
        98        2.0000           -0.4113953             -11.1946
        99        2.0000           -0.4105036             -11.1704
       100        2.0000           -0.4037814             -10.9875
       101        2.0000           -0.4028826             -10.9630
       102        2.0000           -0.3997705             -10.8783
       103        2.0000           -0.3949903             -10.7482
       104        2.0000           -0.3887562             -10.5786
       105        2.0000           -0.3666494              -9.9770 (HOMO)
       106                         -0.2847605              -7.7487 (LUMO)
       107                         -0.2604020              -7.0859
       108                         -0.2376589              -6.4670
       109                         -0.2309448              -6.2843
       110                         -0.2261249              -6.1532
       111                         -0.2236412              -6.0856
       112                         -0.2187294              -5.9519
       113                         -0.2104490              -5.7266
       114                         -0.1969979              -5.3606
       115                         -0.1667398              -4.5372
       116                         -0.1587936              -4.3210
       ...                                ...                  ...
       209                          1.4266935              38.8223
      -------------------------------------------------------------
                  HL-Gap            0.0818889 Eh            2.2283 eV

     #   Z          covCN         q      C6AA      α(0)
     1   6 C        3.752    -0.102    22.508     6.766
     2   6 C        3.800    -0.048    21.444     6.593
     3   6 C        3.808    -0.055    21.563     6.610
     4   6 C        3.937     0.009    20.357     6.412
     5   6 C        3.808    -0.055    21.563     6.610
     6   6 C        3.800    -0.048    21.444     6.593
     7   6 C        3.752    -0.102    22.508     6.765
     8   6 C        3.054     0.002    27.939     8.669
     9   6 C        2.915    -0.034    28.858     8.809
    10   6 C        2.921    -0.034    28.856     8.809
    11   6 C        2.921    -0.035    28.872     8.812
    12   6 C        2.914    -0.036    28.889     8.814
    13   6 C        3.036    -0.001    28.029     8.684
    14   6 C        3.036    -0.000    28.002     8.680
    15   6 C        2.912    -0.035    28.871     8.811
    16   6 C        2.929    -0.034    28.850     8.809
    17   6 C        2.973     0.031    27.299     8.570
    18   6 C        1.983    -0.042    32.190     9.162
    19   6 C        1.983    -0.046    32.298     9.178
    20   6 C        2.973     0.037    27.174     8.551
    21   6 C        2.929    -0.033    28.827     8.805
    22   6 C        2.912    -0.032    28.794     8.799
    23   6 C        3.036    -0.001    28.023     8.683
    24   6 C        3.053     0.005    27.859     8.656
    25   6 C        2.922    -0.033    28.831     8.805
    26   6 C        3.936     0.011    20.328     6.407
    27   6 C        3.809    -0.056    21.579     6.613
    28   6 C        3.800    -0.048    21.444     6.593
    29   6 C        3.752    -0.103    22.521     6.767
    30   6 C        3.809    -0.056    21.579     6.613
    31   6 C        3.800    -0.048    21.444     6.593
    32   6 C        3.752    -0.103    22.521     6.767
    33   6 C        3.053     0.008    27.799     8.647
    34   6 C        2.922    -0.024    28.606     8.771
    35   6 C        2.975     0.009    27.823     8.652
    36   6 C        1.913     0.118    28.203     8.577
    37   7 N        0.911    -0.285    27.349     7.564
    38   6 C        2.928    -0.024    28.592     8.769
    39   6 C        2.913    -0.032    28.791     8.799
    40   6 C        3.036     0.010    27.750     8.640
    41   6 C        2.922    -0.034    28.850     8.808
    42   6 C        3.052     0.002    27.923     8.666
    43   1 H        0.925     0.035     2.512     2.479
    44   1 H        0.925     0.035     2.516     2.480
    45   1 H        0.925     0.034     2.535     2.490
    46   1 H        0.924     0.027     2.629     2.535
    47   1 H        0.924     0.027     2.630     2.536
    48   1 H        0.924     0.038     2.482     2.464
    49   1 H        0.924     0.038     2.482     2.464
    50   1 H        0.924     0.038     2.482     2.464
    51   1 H        0.924     0.038     2.482     2.464
    52   1 H        0.924     0.027     2.631     2.536
    53   1 H        0.924     0.027     2.628     2.535
    54   1 H        0.925     0.035     2.512     2.479
    55   1 H        0.925     0.035     2.516     2.480
    56   1 H        0.925     0.034     2.535     2.490
    57   1 H        0.926     0.030     2.585     2.514
    58   1 H        0.926     0.029     2.605     2.524
    59   1 H        0.926     0.028     2.620     2.531
    60   1 H        0.926     0.029     2.607     2.525
    61   1 H        0.926     0.029     2.596     2.520
    62   1 H        0.926     0.030     2.590     2.517
    63   1 H        0.926     0.034     2.533     2.489
    64   1 H        0.926     0.034     2.525     2.485
    65   1 H        0.926     0.037     2.493     2.469
    66   1 H        0.924     0.043     2.415     2.430
    67   1 H        0.924     0.039     2.466     2.456
    68   1 H        0.924     0.025     2.657     2.549
    69   1 H        0.924     0.029     2.594     2.519
    70   1 H        0.925     0.037     2.490     2.468
    71   1 H        0.925     0.035     2.520     2.482
    72   1 H        0.925     0.035     2.514     2.479
    73   1 H        0.924     0.042     2.416     2.431
    74   1 H        0.924     0.039     2.466     2.456
    75   1 H        0.924     0.025     2.659     2.550
    76   1 H        0.924     0.030     2.594     2.518
    77   1 H        0.925     0.037     2.489     2.467
    78   1 H        0.925     0.035     2.515     2.480
    79   1 H        0.925     0.035     2.520     2.482
    80   1 H        0.926     0.039     2.462     2.454
    81   1 H        0.926     0.037     2.483     2.464
    82   1 H        0.926     0.043     2.403     2.424
    83   1 H        0.926     0.032     2.553     2.499

molecular dipole:
                 x           y           z       tot (Debye)
 q only:       -2.185       0.004      -0.276
   full:       -2.512       0.038      -0.001       6.385

 projected vibrational frequencies (cm⁻¹)
eigval :       -0.00    -0.00     0.00     0.00     0.00     0.00
eigval :      -11.13     8.84    14.03    25.65    33.90    40.88
eigval :       48.22    48.87    52.75    54.80    56.69    64.38
eigval :       65.01    69.52    74.89    77.82    82.81    90.62
eigval :       99.91   110.63   125.93   137.15   138.67   151.79
eigval :      191.79   201.70   207.19   207.64   219.48   220.70
eigval :      225.00   231.45   235.46   239.41   248.41   251.98
eigval :      275.00   283.00   286.06   300.60   302.27   304.00
eigval :      333.68   336.30   346.05   349.99   366.29   405.18
eigval :      409.80   424.06   439.24   439.39   447.97   456.18
eigval :      469.84   484.46   506.84   519.27   523.59   526.54
eigval :      561.39   563.87   568.64   573.55   581.80   587.08
eigval :      597.18   622.32   630.08   641.74   677.57   712.74
eigval :      716.59   722.03   722.99   723.17   730.78   735.96
eigval :      765.91   775.35   778.31   779.68   785.74   808.32
eigval :      818.81   826.59   831.22   861.30   874.73   876.26
eigval :      876.66   879.41   889.46   891.87   892.38   908.16
eigval :      908.35   910.90   911.26   920.34   927.03   928.91
eigval :      928.95   950.07   957.40   960.75   985.99   994.65
eigval :      995.62  1031.48  1033.37  1077.21  1077.77  1078.43
eigval :     1085.63  1085.94  1088.51  1089.20  1093.44  1094.26
eigval :     1114.44  1123.44  1136.20  1136.31  1136.49  1137.24
eigval :     1145.71  1148.92  1154.05  1155.41  1157.25  1180.98
eigval :     1182.75  1202.76  1213.10  1219.32  1221.93  1224.05
eigval :     1230.39  1231.25  1240.38  1244.29  1248.67  1264.19
eigval :     1268.81  1277.94  1278.23  1279.08  1283.89  1284.15
eigval :     1285.77  1297.28  1298.46  1305.58  1309.78  1322.06
eigval :     1326.53  1335.53  1354.62  1355.57  1358.12  1364.66
eigval :     1370.87  1372.32  1411.94  1412.27  1412.98  1413.40
eigval :     1419.97  1424.58  1428.74  1436.83  1444.11  1453.10
eigval :     1465.36  1475.41  1475.70  1482.32  1484.47  1485.04
eigval :     1491.15  1494.16  1496.06  1496.94  1500.68  1500.69
eigval :     1501.42  1501.52  1501.80  1501.82  1501.99  1502.27
eigval :     1557.56  1565.98  1572.35  1581.48  1590.68  1592.86
eigval :     1599.40  1605.69  2307.57  2353.63  2957.74  2958.82
eigval :     2959.01  2960.18  2968.52  2969.44  2969.90  2971.39
eigval :     2973.35  2976.45  2977.81  2979.02  2980.92  2981.28
eigval :     2982.43  2984.45  3022.86  3023.17  3024.30  3024.97
eigval :     3025.90  3026.68  3027.57  3028.57  3033.88  3035.58
eigval :     3035.85  3036.31  3065.59  3069.50  3071.85  3076.28
eigval :     3076.75  3078.94  3080.26  3082.72  3083.30  3083.66
eigval :     3086.02  3088.00  3093.63

   temp. (K)  partition function   enthalpy   heat capacity  entropy
                                   cal/mol     cal/K/mol   cal/K/mol   J/K/mol
 298.15  VIB  0.961E+20            24203.686    142.370    156.093
         ROT  0.768E+08              888.752      2.981     39.063
         INT  0.738E+28            25092.438    145.351    195.156
         TR   0.124E+29             1481.254      4.968     44.767
         TOT                       26573.6920   150.3189   239.9226  1003.8363

       T/K    H(0)-H(T)+PV         H(T)/Eh          T*S/Eh         G(T)/Eh
   ------------------------------------------------------------------------
    298.15    0.423479E-01    0.730266E+00    0.113995E+00    0.616271E+00
   ------------------------------------------------------------------------

         :::::::::::::::::::::::::::::::::::::::::::::::::::::
         ::                  THERMODYNAMIC                  ::
         :::::::::::::::::::::::::::::::::::::::::::::::::::::
         :: total free energy        -111.045396596649 Eh   ::
         ::.................................................::
         :: total energy             -111.661667993487 Eh   ::
         :: zero point energy           0.687918512420 Eh   ::
         :: G(RRHO) w/o ZPVE           -0.071647115582 Eh   ::
         :: G(RRHO) contrib.            0.616271396838 Eh   ::
         :::::::::::::::::::::::::::::::::::::::::::::::::::::

           -------------------------------------------------
          | TOTAL ENERGY             -111.661667993487 Eh   |
          | TOTAL ENTHALPY           -110.931401607327 Eh   |
          | TOTAL FREE ENERGY        -111.045396596649 Eh   |
          | GRADIENT NORM               0.000149123917 Eh/α |
          | HOMO-LUMO GAP               2.228310920275 eV   |
           -------------------------------------------------

 * finished run on 2025/09/05 at 13:06:14.495
