   * xtb version 6.7.1 (edcfbbe) compiled by 'albert@albert-system' on 2024-07-22

   ID    Z sym.   atoms
    1    6 C      1-36, 38-42
    2    7 N      37
    3    1 H      43-83

          program call               : xtb data2507/toluene/C2FLA-1/C2FLA-1_toluene_S0_finalOpt.xtbopt.xyz --gfn 2 --uhf 2 --gbsa toluene --ohess vtight --parallel 40 --molden --ceasefiles --namespace data2507/toluene/C2FLA-1/C2FLA-1_toluene_T1_preOpt
      * Solvation model:               GBSA
        Solvent                        toluene
        Solvent mass                       9.2140E+01 g/mol
          :  Hamiltonian                  GFN2-xTB          :
 * total energy  :  -111.5741562 Eh     change       -0.2435888E-07 Eh
 * total energy  :  -111.5810633 Eh     change       -0.6907037E-02 Eh
 * total energy  :  -111.5826715 Eh     change       -0.1608209E-02 Eh
 * total energy  :  -111.5827212 Eh     change       -0.4973650E-04 Eh
 * total energy  :  -111.5827235 Eh     change       -0.2228705E-05 Eh
 * total energy  :  -111.5827412 Eh     change       -0.1773692E-04 Eh
 * total energy  :  -111.5827454 Eh     change       -0.4212164E-05 Eh
 * total energy  :  -111.5827501 Eh     change       -0.4708504E-05 Eh
 * total energy  :  -111.5827520 Eh     change       -0.1921750E-05 Eh
 * total energy  :  -111.5827540 Eh     change       -0.1921131E-05 Eh
 * total energy  :  -111.5827589 Eh     change       -0.6761140E-06 Eh
 * total energy  :  -111.5827594 Eh     change       -0.5294588E-06 Eh
 * total energy  :  -111.5827599 Eh     change       -0.5066382E-06 Eh
 * total energy  :  -111.5827603 Eh     change       -0.4026503E-06 Eh
 * total energy  :  -111.5827606 Eh     change       -0.2419488E-06 Eh
 * total energy  :  -111.5827608 Eh     change       -0.2091824E-06 Eh
 * total energy  :  -111.5827611 Eh     change       -0.2940049E-06 Eh
 * total energy  :  -111.5827613 Eh     change       -0.2652929E-06 Eh
 * total energy  :  -111.5827614 Eh     change       -0.5556714E-08 Eh
   *** GEOMETRY OPTIMIZATION CONVERGED AFTER 22 ITERATIONS ***

 final structure:
================
83
 xtb: 6.7.1 (edcfbbe)
C           -5.41219519927462        3.65645455184323       -2.26126262514839
C           -5.56421133663082        2.49207872661731       -1.28919200523540
C           -5.38088879939128        1.14974260694611       -1.99510126006708
C           -5.52715683191023       -0.05957390740371       -1.05093610253684
C           -5.32916118004644       -1.36024662058154       -1.85229285094916
C           -5.45886529270344       -2.62007009904254       -0.99809436130998
C           -5.26169515771126       -3.88019027839781       -1.83307328766919
C           -6.85954847017263       -0.04398145467154       -0.34012925133097
C           -8.12603738754167       -0.10623350664988       -0.87383927947960
C           -9.22099741166592       -0.07279485176083       -0.01560721700657
C           -9.04572183724407        0.02134463159385        1.36109202606000
C           -7.78031642441494        0.08421547074927        1.91137291229628
C           -6.67738683128947        0.05184814420302        1.05794204502550
C           -5.27450487255329        0.09931531597463        1.33703361119297
C           -4.57992494100733        0.19809791753887        2.55199194861916
C           -3.21348824251307        0.22449402832078        2.53993087931453
C           -2.48597254851031        0.14633801788164        1.31589352826375
C           -1.11446650084770        0.16304000839498        1.32494322657406
C            0.11844358071288        0.17143432432107        1.33635923171248
C            1.48547748438308        0.17619082936360        1.35072583057139
C            2.19469191223633        0.32143279230628        2.58594684569310
C            3.55485278749684        0.32857492126041        2.62368903492522
C            4.28197573782385        0.18245084219464        1.42077311436456
C            3.58275584675334        0.02797642309282        0.18064028048025
C            2.22815360789919        0.02927157380481        0.13504793784603
C            4.57082235879701       -0.13082585967275       -0.95310177921478
C            4.41410014581898        0.98134876034237       -2.00713004110570
C            4.55805952327399        2.38731816769269       -1.42789014125410
C            4.38938244046346        3.45196864442655       -2.50578120935231
C            4.41828951990769       -1.50428460042762       -1.63690259215122
C            4.55198413560647       -2.67936454193082       -0.67005589017861
C            4.39880107988227       -4.01334095371436       -1.39169321854666
C            5.89025850202295       -0.02615758532355       -0.22461439787842
C            7.15508031972447       -0.08630194739576       -0.73354699671359
C            8.25245817060369        0.03024271231143        0.14966211863228
C            9.55600819213614       -0.02975383801624       -0.35044651605481
N           10.63131978662338       -0.08122826696009       -0.76721270494475
C            8.03867438817458        0.20574994660241        1.53406356424734
C            6.76948607635294        0.26657965735659        2.04551785300657
C            5.67163272284119        0.15261324750861        1.17262386948367
C           -3.20084709912921        0.04871955925056        0.08609603201985
C           -4.56145237266240        0.02956860111748        0.10871757843133
H           -4.42356022213843        3.64881794649100       -2.71606286417468
H           -6.15468626427609        3.59259324029577       -3.05424796400777
H           -5.54384009680351        4.60441949947053       -1.74429992492534
H           -6.55473127001349        2.52994950702662       -0.82940678071342
H           -4.82516451121222        2.58865203756956       -0.49026075245427
H           -4.39007693869868        1.11835176133701       -2.45343807988548
H           -6.12059156942040        1.06161468382474       -2.79366763160026
H           -6.06991633138973       -1.39354511391343       -2.65399873446788
H           -4.33954276979815       -1.34021971523130       -2.31380102915650
H           -4.71615646778975       -2.59606363082965       -0.19706933175594
H           -6.44684837410792       -2.64402404783310       -0.53205174451052
H           -4.27521145643650       -3.88443975611465       -2.29255174124417
H           -6.00789082644682       -3.93655731586578       -2.62318716086656
H           -5.35342731255212       -4.76809787230037       -1.21138468064474
H           -8.27786587080965       -0.17970277694660       -1.94078915242992
H          -10.22032394996251       -0.12086766345651       -0.42304942265111
H           -9.91282538629522        0.04519374951362        2.00548486943557
H           -7.64654534808239        0.15674762833300        2.98036937864082
H           -5.12222669560008        0.25341611363551        3.48428972619753
H           -2.65401229824193        0.30025127948258        3.46090716318097
H            1.61539628958829        0.42936983334533        3.49157830686807
H            4.08160186841737        0.44249118373112        3.55952051692279
H            1.68538854281976       -0.08423578683832       -0.79165428183524
H            3.43138108543835        0.88490684900152       -2.47373178625556
H            5.16770000256727        0.83586243799983       -2.78434078541480
H            5.54301860251425        2.49155285670694       -0.96615733994656
H            3.80879640442816        2.53843430097513       -0.64720004077039
H            3.40634935563341        3.37729171629114       -2.96643518021877
H            4.49400872741857        4.44690412358316       -2.07884663332679
H            5.14224272120257        3.33189532761353       -3.28241438009049
H            3.43951606138019       -1.54735996929179       -2.11953184352930
H            5.17901994465973       -1.59370327962945       -2.41563736591953
H            5.52939955069766       -2.64100667737342       -0.18280093617592
H            3.79058591934849       -2.59901901403974        0.10943743288629
H            3.42381432974906       -4.07949874426547       -1.87034004140213
H            5.16511762863654       -4.12431540844245       -2.15640499008697
H            4.49362951774405       -4.83890726418739       -0.68982976460304
H            7.34230545691565       -0.22036924323342       -1.78943013803999
H            8.89978087936004        0.29076569943038        2.18223660630643
H            6.61144559909372        0.40125016339828        3.10494182805025
H           -2.64268488729813       -0.00543001278388       -0.83673292127479

          :  Hamiltonian                  GFN2-xTB          :
         :: gradient norm              0.000168544163 Eh/a0 ::
         :: HOMO-LUMO gap              0.711903038352 eV    ::
         :: SCC energy              -113.632462054318 Eh    ::
         :: -> dispersion             -0.100250176486 Eh    ::
         :: -> Gsolv                  -0.051182258197 Eh    ::
         :: repulsion energy           2.049700700312 Eh    ::

    * Orbital Energies and Occupations

         #    Occupation            Energy/Eh            Energy/eV
      -------------------------------------------------------------
         1        2.0000           -0.6619800             -18.0134
       ...           ...                  ...                  ...
        94        2.0000           -0.4175242             -11.3614
        95        2.0000           -0.4163570             -11.3297
        96        2.0000           -0.4157135             -11.3121
        97        2.0000           -0.4127629             -11.2319
        98        2.0000           -0.4123667             -11.2211
        99        2.0000           -0.4112014             -11.1894
       100        2.0000           -0.4083658             -11.1122
       101        2.0000           -0.4034338             -10.9780
       102        2.0000           -0.4009504             -10.9104
       103        2.0000           -0.3996869             -10.8760
       104        2.0000           -0.3870627             -10.5325
       105        1.0000           -0.3631003              -9.8805
       106        1.0000           -0.2912534              -7.9254 (HOMO)
       107        0.0000           -0.2650915              -7.2135 (LUMO)
       108                         -0.2347907              -6.3890
       109                         -0.2274134              -6.1882
       110                         -0.2272870              -6.1848
       111                         -0.2226760              -6.0593
       112                         -0.2203193              -5.9952
       113                         -0.2015577              -5.4847
       114                         -0.1995459              -5.4299
       115                         -0.1767578              -4.8098
       116                         -0.1655429              -4.5047
       117                         -0.1320150              -3.5923
       ...                                ...                  ...
       209                          1.3732779              37.3688
      -------------------------------------------------------------
                  HL-Gap            0.0261620 Eh            0.7119 eV

     #   Z          covCN         q      C6AA      α(0)
     1   6 C        3.752    -0.102    22.518     6.767
     2   6 C        3.800    -0.049    21.451     6.594
     3   6 C        3.809    -0.057    21.589     6.614
     4   6 C        3.935     0.010    20.350     6.411
     5   6 C        3.808    -0.057    21.591     6.614
     6   6 C        3.800    -0.049    21.452     6.594
     7   6 C        3.752    -0.102    22.517     6.767
     8   6 C        3.055     0.007    27.819     8.650
     9   6 C        2.912    -0.033    28.816     8.802
    10   6 C        2.921    -0.030    28.743     8.792
    11   6 C        2.918    -0.032    28.788     8.798
    12   6 C        2.912    -0.034    28.837     8.806
    13   6 C        3.033     0.004    27.906     8.665
    14   6 C        3.035     0.005    27.875     8.660
    15   6 C        2.906    -0.031    28.769     8.795
    16   6 C        2.924    -0.030    28.756     8.794
    17   6 C        2.967     0.035    27.206     8.556
    18   6 C        1.985    -0.034    31.955     9.129
    19   6 C        1.984    -0.029    31.828     9.111
    20   6 C        2.966     0.029    27.362     8.580
    21   6 C        2.921    -0.028    28.708     8.786
    22   6 C        2.905    -0.034    28.844     8.806
    23   6 C        3.033     0.004    27.900     8.664
    24   6 C        3.044     0.005    27.880     8.660
    25   6 C        2.915    -0.034    28.844     8.807
    26   6 C        3.932     0.010    20.350     6.411
    27   6 C        3.808    -0.057    21.590     6.614
    28   6 C        3.800    -0.048    21.437     6.592
    29   6 C        3.752    -0.102    22.514     6.766
    30   6 C        3.809    -0.057    21.585     6.614
    31   6 C        3.800    -0.048    21.437     6.592
    32   6 C        3.752    -0.102    22.515     6.766
    33   6 C        3.051     0.006    27.843     8.654
    34   6 C        2.917    -0.030    28.757     8.794
    35   6 C        2.972    -0.002    28.071     8.691
    36   6 C        1.912     0.109    28.410     8.608
    37   7 N        0.911    -0.318    28.184     7.678
    38   6 C        2.923    -0.027    28.678     8.782
    39   6 C        2.909    -0.035    28.880     8.812
    40   6 C        3.031    -0.000    28.002     8.680
    41   6 C        2.917    -0.034    28.845     8.807
    42   6 C        3.045     0.007    27.810     8.649
    43   1 H        0.925     0.036     2.508     2.477
    44   1 H        0.925     0.036     2.509     2.477
    45   1 H        0.925     0.034     2.530     2.487
    46   1 H        0.924     0.028     2.616     2.529
    47   1 H        0.924     0.028     2.621     2.532
    48   1 H        0.924     0.040     2.453     2.449
    49   1 H        0.924     0.040     2.451     2.448
    50   1 H        0.924     0.040     2.451     2.448
    51   1 H        0.924     0.040     2.454     2.450
    52   1 H        0.924     0.028     2.621     2.532
    53   1 H        0.924     0.028     2.615     2.529
    54   1 H        0.925     0.036     2.509     2.477
    55   1 H        0.925     0.036     2.510     2.477
    56   1 H        0.925     0.034     2.531     2.488
    57   1 H        0.926     0.035     2.513     2.479
    58   1 H        0.926     0.034     2.525     2.485
    59   1 H        0.926     0.033     2.546     2.495
    60   1 H        0.926     0.034     2.526     2.485
    61   1 H        0.926     0.036     2.498     2.472
    62   1 H        0.926     0.036     2.502     2.474
    63   1 H        0.926     0.035     2.510     2.478
    64   1 H        0.926     0.033     2.541     2.493
    65   1 H        0.926     0.036     2.504     2.474
    66   1 H        0.924     0.041     2.438     2.442
    67   1 H        0.924     0.036     2.496     2.471
    68   1 H        0.924     0.024     2.667     2.554
    69   1 H        0.924     0.029     2.600     2.521
    70   1 H        0.925     0.037     2.486     2.466
    71   1 H        0.925     0.035     2.523     2.484
    72   1 H        0.925     0.034     2.524     2.484
    73   1 H        0.924     0.041     2.438     2.442
    74   1 H        0.924     0.037     2.495     2.470
    75   1 H        0.924     0.024     2.667     2.554
    76   1 H        0.924     0.029     2.599     2.521
    77   1 H        0.925     0.037     2.485     2.465
    78   1 H        0.925     0.034     2.523     2.484
    79   1 H        0.925     0.035     2.522     2.483
    80   1 H        0.926     0.028     2.611     2.527
    81   1 H        0.926     0.027     2.627     2.535
    82   1 H        0.926     0.035     2.512     2.479
    83   1 H        0.926     0.037     2.487     2.466

molecular dipole:
                 x           y           z       tot (Debye)
 q only:       -5.130      -0.004      -0.051
   full:       -5.428       0.023       0.221      13.809

 projected vibrational frequencies (cm⁻¹)
eigval :       -0.00    -0.00    -0.00    -0.00    -0.00     0.00
eigval :        3.14     8.32    12.04    24.92    38.87    46.41
eigval :       48.44    52.24    53.78    58.77    61.57    62.79
eigval :       66.07    70.18    75.75    78.75    85.60    90.79
eigval :       95.09   109.84   122.40   137.01   142.10   148.43
eigval :      183.17   201.70   204.72   205.13   216.77   220.19
eigval :      223.96   231.02   231.62   238.42   248.04   251.57
eigval :      252.28   282.32   285.16   302.35   303.49   303.73
eigval :      311.37   332.87   335.36   346.82   357.49   382.40
eigval :      404.28   420.25   421.13   439.29   442.05   448.58
eigval :      448.77   461.34   492.59   506.45   513.27   525.93
eigval :      540.39   557.41   566.31   566.89   568.18   576.63
eigval :      581.61   617.63   619.91   621.14   669.54   699.65
eigval :      703.62   708.50   711.24   717.61   722.63   725.28
eigval :      762.79   767.68   776.68   778.21   785.88   797.56
eigval :      805.01   809.01   809.80   845.84   849.54   856.37
eigval :      866.46   866.70   882.80   892.04   892.40   898.80
eigval :      903.15   903.62   904.17   906.00   922.36   928.89
eigval :      929.98   938.77   952.77   957.88   959.46   980.84
eigval :      987.68  1010.67  1017.84  1070.57  1077.11  1077.58
eigval :     1084.89  1085.23  1085.63  1088.06  1093.74  1094.28
eigval :     1095.26  1111.33  1112.13  1134.59  1135.78  1135.85
eigval :     1137.01  1141.28  1145.08  1151.22  1157.54  1178.58
eigval :     1184.43  1197.90  1203.00  1212.67  1217.29  1218.77
eigval :     1231.00  1231.18  1233.67  1242.00  1249.74  1259.67
eigval :     1265.01  1271.46  1277.58  1277.72  1283.69  1284.00
eigval :     1289.45  1293.64  1298.06  1301.76  1306.62  1313.94
eigval :     1323.25  1330.02  1339.57  1354.73  1354.90  1355.30
eigval :     1369.46  1370.71  1374.26  1399.84  1403.37  1412.35
eigval :     1412.39  1413.01  1415.76  1426.94  1450.41  1455.64
eigval :     1459.35  1474.31  1476.09  1481.36  1483.67  1484.33
eigval :     1490.89  1493.41  1494.59  1494.85  1495.64  1500.73
eigval :     1500.75  1500.92  1501.32  1501.59  1501.81  1502.12
eigval :     1502.98  1503.33  1524.61  1548.70  1567.17  1578.63
eigval :     1590.98  1612.22  2136.23  2292.15  2958.05  2958.86
eigval :     2959.41  2960.55  2968.26  2969.86  2969.95  2971.69
eigval :     2974.70  2975.83  2977.50  2978.86  2979.70  2980.95
eigval :     2982.45  2983.80  3023.39  3023.47  3023.87  3024.78
eigval :     3026.50  3027.02  3027.22  3028.25  3034.36  3035.09
eigval :     3035.75  3035.83  3070.72  3071.49  3073.55  3074.54
eigval :     3075.56  3076.23  3082.59  3082.77  3084.17  3085.41
eigval :     3087.71  3088.32  3090.31

   temp. (K)  partition function   enthalpy   heat capacity  entropy
                                   cal/mol     cal/K/mol   cal/K/mol   J/K/mol
 298.15  VIB  0.380E+21            24462.330    144.357    159.044
         ROT  0.767E+08              888.752      2.981     39.059
         INT  0.291E+29            25351.083    147.338    198.104
         TR   0.124E+29             1481.254      4.968     44.767
         TOT                       26832.3367   152.3061   242.8709  1016.1718

       T/K    H(0)-H(T)+PV         H(T)/Eh          T*S/Eh         G(T)/Eh
   ------------------------------------------------------------------------
    298.15    0.427601E-01    0.727176E+00    0.115396E+00    0.611780E+00
   ------------------------------------------------------------------------

         :::::::::::::::::::::::::::::::::::::::::::::::::::::
         ::                  THERMODYNAMIC                  ::
         :::::::::::::::::::::::::::::::::::::::::::::::::::::
         :: total free energy        -110.970981129147 Eh   ::
         ::.................................................::
         :: total energy             -111.582761354033 Eh   ::
         :: zero point energy           0.684415969640 Eh   ::
         :: G(RRHO) w/o ZPVE           -0.072635744754 Eh   ::
         :: G(RRHO) contrib.            0.611780224886 Eh   ::
         :::::::::::::::::::::::::::::::::::::::::::::::::::::

           -------------------------------------------------
          | TOTAL ENERGY             -111.582761354033 Eh   |
          | TOTAL ENTHALPY           -110.855585334037 Eh   |
          | TOTAL FREE ENERGY        -110.970981129147 Eh   |
          | GRADIENT NORM               0.000168261011 Eh/α |
          | HOMO-LUMO GAP               0.711903101597 eV   |
           -------------------------------------------------

 * finished run on 2025/09/05 at 13:06:20.131
