   * xtb version 6.7.1 (edcfbbe) compiled by 'albert@albert-system' on 2024-07-22

   ID    Z sym.   atoms
    1    6 C      1-9, 11-22, 24-41, 45-50
    2    7 N      10, 23
    3   16 S      42
    4    8 O      43, 44
    5    1 H      51-90

          program call               : xtb data2507/gas/DDMA-TXO2/DDMA-TXO2_gas_S0_crest.xyz --gfn 2 --ohess vtight --parallel 40 --molden --ceasefiles --namespace data2507/gas/DDMA-TXO2/DDMA-TXO2_gas_S0_finalOpt
          :  Hamiltonian                  GFN2-xTB          :
 * total energy  :  -134.0550535 Eh     change       -0.1367908E-08 Eh
 * total energy  :  -134.0550547 Eh     change       -0.1175831E-05 Eh
 * total energy  :  -134.0550579 Eh     change       -0.3164970E-05 Eh
 * total energy  :  -134.0550626 Eh     change       -0.4718766E-05 Eh
 * total energy  :  -134.0550665 Eh     change       -0.3881796E-05 Eh
 * total energy  :  -134.0550691 Eh     change       -0.2622221E-05 Eh
 * total energy  :  -134.0550718 Eh     change       -0.2746493E-05 Eh
 * total energy  :  -134.0550759 Eh     change       -0.4051820E-05 Eh
 * total energy  :  -134.0550801 Eh     change       -0.4182362E-05 Eh
 * total energy  :  -134.0550821 Eh     change       -0.2059360E-05 Eh
 * total energy  :  -134.0550964 Eh     change       -0.3786787E-06 Eh
 * total energy  :  -134.0550968 Eh     change       -0.3707379E-06 Eh
 * total energy  :  -134.0550972 Eh     change       -0.4102345E-06 Eh
 * total energy  :  -134.0550977 Eh     change       -0.4676133E-06 Eh
 * total energy  :  -134.0550982 Eh     change       -0.4990598E-06 Eh
 * total energy  :  -134.0550986 Eh     change       -0.4755849E-06 Eh
 * total energy  :  -134.0550991 Eh     change       -0.4219155E-06 Eh
 * total energy  :  -134.0550994 Eh     change       -0.3774040E-06 Eh
 * total energy  :  -134.0550994 Eh     change       -0.2230991E-08 Eh
   *** GEOMETRY OPTIMIZATION CONVERGED AFTER 44 ITERATIONS ***

 final structure:
================
90
 xtb: 6.7.1 (edcfbbe)
C            7.64068840302419       -2.56533223075700       -0.72320181989149
C            6.60295571841848       -2.17790575099285        0.34600997727518
C            6.85688963244734       -2.96288904753006        1.64599478075842
C            6.73745704148675       -0.69710159680770        0.64384137469797
C            7.93816585518549       -0.20890078715922        1.14200479775861
C            8.11130612252475        1.12337135023803        1.46632033516031
C            7.05209906567712        1.99901586287071        1.31104695457228
C            5.84952887674594        1.54116431788167        0.81541500037444
C            5.68305768580430        0.20112878702582        0.45424973850651
N            4.46337767296039       -0.22831883096358       -0.05431895580687
C            3.43270043042343        0.71800013261645       -0.26978121953960
C            3.54039308589663        1.65410387760483       -1.29241327686914
C            2.49650697593687        2.53402996387539       -1.50049484847289
C            1.37649052992339        2.48414797911496       -0.69307069733856
C            1.24345931165265        1.56566796573474        0.34324639469957
C            2.30098468260904        0.68519986284236        0.53953635873825
C            0.00032499922345        1.56274467483611        1.22017643556999
C           -0.00267973075096        0.37502248685048        2.18930273945545
C            0.00024063980570        2.84533394647096        2.07701475833199
C           -1.23996947844169        1.56885528258918        0.33924512707204
C           -2.30142082164121        0.69278465875583        0.53378472873492
C           -3.43086730112491        0.72902631181991       -0.27855542314686
N           -4.46675880262573       -0.21149948888349       -0.06289852499633
C           -4.23972142281892       -1.54651700628910       -0.37466374899798
C           -3.01455472564003       -1.93509394036959       -0.92532614831515
C           -2.75706269912706       -3.25565091617007       -1.22753018159610
C           -3.72423198384006       -4.21672493621602       -0.99718652923371
C           -4.94874840128386       -3.83043401217130       -0.48596294714812
C           -5.23485175260858       -2.50821545554628       -0.17276145890716
C           -6.61406098009777       -2.15067168410194        0.34656266570459
C           -7.65299614336914       -2.53983064644754       -0.72084534244523
C           -6.87128753063781       -2.92773190079276        1.65066262380465
C           -6.74296841961102       -0.66780551840820        0.63653660200546
C           -7.94203993758051       -0.17246086396300        1.13159895382596
C           -8.11022021785812        1.16207664852352        1.44911859957533
C           -7.04752799472660        2.03279558521393        1.29006106964695
C           -5.84647305893819        1.56780450453343        0.79740741364781
C           -5.68496901115379        0.22535284407620        0.44300262624500
C           -3.53161236595868        1.66347028097377       -1.30341735345674
C           -2.48378554213416        2.53915895884396       -1.50969154949282
C           -1.36659526568974        2.48656180906470       -0.69855464488577
S            0.00674976739433        3.54911443674933       -1.12915509065444
O            0.01007570792992        3.73182155589919       -2.55474858177747
O            0.00553746924542        4.74810855730427       -0.32861828814277
C            4.23117735699937       -1.56085914238551       -0.37291732946211
C            3.00464469948111       -1.94198874963910       -0.92573211427573
C            2.74219176022241       -3.25999407765427       -1.23473710562146
C            3.70563159165059       -4.22591361862572       -1.00913072458225
C            4.93144568532268       -3.84691368747709       -0.49557079722229
C            5.22251783396074       -2.52741605750258       -0.17554310669475
H            7.45160399851126       -2.01020274117142       -1.64010843760484
H            8.64821100604839       -2.33802504355127       -0.38633251249773
H            7.58865846073391       -3.62682345907366       -0.94870665901441
H            6.78002386715346       -4.03299748741173        1.47527346766644
H            6.12182115776414       -2.68125185442041        2.39773563469056
H            7.84716883109651       -2.75250216080589        2.03982006117499
H            8.76682162058882       -0.88560397095995        1.28532355699485
H            9.05966251453922        1.47012743455811        1.84703881401503
H            7.15709550646818        3.03981280055759        1.57797758129752
H            5.02512325414886        2.22959681106179        0.71165660591548
H            4.42228257988135        1.67535676060360       -1.91366311355557
H            2.51558654614458        3.25730620197579       -2.30010424355613
H            2.27030105324201       -0.06438629161764        1.31286431684262
H            0.87005888328049        0.42264026634244        2.83537379541089
H           -0.00345096935891       -0.57615880913251        1.66140740224072
H           -0.87687732264765        0.42516745985432        2.83320012106170
H           -0.88420872723534        2.86046269637656        2.71051372488828
H            0.00174872474981        3.74047174979462        1.46454861869019
H            0.88291216058774        2.85910695312754        2.71300513147382
H           -2.27592141489646       -0.05561700739862        1.30844975258946
H           -2.25865634756735       -1.19252381145317       -1.12937004136202
H           -1.80085624657608       -3.52934551193099       -1.64780596055311
H           -3.53389580321391       -5.25422140831022       -1.22506798413196
H           -5.70319777901016       -4.58662248492442       -0.33110641807996
H           -8.65971216617546       -2.30668475629997       -0.38556787358607
H           -7.46141917624627       -1.99048885351973       -1.64071621723391
H           -7.60512044632330       -3.60274056933342       -0.94050001728228
H           -6.13555487399238       -2.64463803182495        2.40121292252713
H           -7.86098404668749       -2.71173136932753        2.04290984984608
H           -6.79811435931920       -3.99900992701306        1.48574364767411
H           -8.77335174492226       -0.84524297055848        1.27796000270049
H           -9.05742578390796        1.51441191849406        1.82757120011942
H           -7.14859451628959        3.07532694471634        1.55168778068168
H           -5.01941881861602        2.25259481454102        0.69080177770602
H           -4.41156141032182        1.68714869148755       -1.92732430444305
H           -2.49779599443614        3.26142246811889       -2.31032500488858
H            2.25155853694782       -1.19559234442013       -1.12613215412295
H            1.78503621740458       -3.52786001296467       -1.65660480447850
H            3.51143158601697       -5.26148499672525       -1.24243654018622
H            5.68296836814051       -4.60675516961750       -0.34441878091446

          :  Hamiltonian                  GFN2-xTB          :
         :: gradient norm              0.000037315706 Eh/a0 ::
         :: HOMO-LUMO gap              2.259826436983 eV    ::
         :: SCC energy              -136.320821981159 Eh    ::
         :: -> dispersion             -0.131413326386 Eh    ::
         :: repulsion energy           2.265722542385 Eh    ::

    * Orbital Energies and Occupations

         #    Occupation            Energy/Eh            Energy/eV
      -------------------------------------------------------------
         1        2.0000           -0.7713916             -20.9906
       ...           ...                  ...                  ...
       112        2.0000           -0.4129831             -11.2378
       113        2.0000           -0.4128422             -11.2340
       114        2.0000           -0.4122113             -11.2168
       115        2.0000           -0.4112118             -11.1896
       116        2.0000           -0.4076142             -11.0917
       117        2.0000           -0.4072580             -11.0821
       118        2.0000           -0.4047463             -11.0137
       119        2.0000           -0.4015980             -10.9280
       120        2.0000           -0.4013861             -10.9223
       121        2.0000           -0.3962044             -10.7813
       122        2.0000           -0.3961885             -10.7808
       123        2.0000           -0.3519454              -9.5769
       124        2.0000           -0.3515537              -9.5663 (HOMO)
       125                         -0.2685066              -7.3064 (LUMO)
       126                         -0.2554832              -6.9521
       127                         -0.2552742              -6.9464
       128                         -0.2491587              -6.7800
       129                         -0.2280612              -6.2059
       130                         -0.2280579              -6.2058
       131                         -0.2231127              -6.0712
       132                         -0.2230691              -6.0700
       133                         -0.2215808              -6.0295
       134                         -0.2215439              -6.0285
       135                         -0.1944343              -5.2908
       ...                                ...                  ...
       245                          1.2226946              33.2712
      -------------------------------------------------------------
                  HL-Gap            0.0830471 Eh            2.2598 eV

     #   Z          covCN         q      C6AA      α(0)
     1   6 C        3.761    -0.104    22.529     6.766
     2   6 C        3.909     0.021    20.160     6.382
     3   6 C        3.761    -0.104    22.531     6.767
     4   6 C        2.980    -0.013    28.331     8.731
     5   6 C        2.928    -0.036    28.893     8.815
     6   6 C        2.917    -0.044    29.082     8.843
     7   6 C        2.920    -0.032    28.808     8.802
     8   6 C        2.924    -0.059    29.474     8.903
     9   6 C        2.927     0.057    26.727     8.478
    10   7 N        2.754    -0.069    22.571     7.056
    11   6 C        2.927     0.075    26.334     8.416
    12   6 C        2.922    -0.037    28.924     8.820
    13   6 C        2.972    -0.024    28.600     8.772
    14   6 C        2.977    -0.087    30.180     9.011
    15   6 C        3.005     0.010    27.784     8.647
    16   6 C        2.931    -0.047    29.173     8.858
    17   6 C        3.907     0.016    20.249     6.396
    18   6 C        3.760    -0.112    22.683     6.790
    19   6 C        3.764    -0.121    22.861     6.815
    20   6 C        3.005     0.010    27.784     8.646
    21   6 C        2.931    -0.047    29.173     8.858
    22   6 C        2.927     0.075    26.334     8.416
    23   7 N        2.754    -0.069    22.570     7.056
    24   6 C        2.927     0.057    26.725     8.478
    25   6 C        2.924    -0.060    29.488     8.905
    26   6 C        2.920    -0.033    28.812     8.802
    27   6 C        2.917    -0.044    29.091     8.845
    28   6 C        2.928    -0.036    28.892     8.815
    29   6 C        2.980    -0.013    28.323     8.730
    30   6 C        3.909     0.021    20.160     6.382
    31   6 C        3.761    -0.104    22.529     6.766
    32   6 C        3.761    -0.104    22.531     6.767
    33   6 C        2.980    -0.013    28.331     8.731
    34   6 C        2.928    -0.036    28.893     8.815
    35   6 C        2.917    -0.044    29.082     8.843
    36   6 C        2.920    -0.032    28.808     8.802
    37   6 C        2.924    -0.059    29.474     8.903
    38   6 C        2.927     0.057    26.727     8.478
    39   6 C        2.922    -0.037    28.925     8.820
    40   6 C        2.972    -0.024    28.601     8.772
    41   6 C        2.977    -0.087    30.180     9.011
    42  16 S        3.840     0.971   107.479    17.449
    43   8 O        0.860    -0.544    24.779     6.674
    44   8 O        0.860    -0.549    24.900     6.690
    45   6 C        2.927     0.057    26.724     8.478
    46   6 C        2.924    -0.060    29.488     8.905
    47   6 C        2.920    -0.033    28.812     8.802
    48   6 C        2.917    -0.044    29.091     8.845
    49   6 C        2.928    -0.036    28.892     8.815
    50   6 C        2.980    -0.013    28.323     8.730
    51   1 H        0.925     0.032     2.556     2.500
    52   1 H        0.925     0.040     2.443     2.444
    53   1 H        0.925     0.040     2.448     2.447
    54   1 H        0.925     0.040     2.447     2.446
    55   1 H        0.925     0.031     2.568     2.506
    56   1 H        0.925     0.040     2.443     2.444
    57   1 H        0.926     0.032     2.561     2.503
    58   1 H        0.926     0.029     2.608     2.525
    59   1 H        0.926     0.030     2.584     2.514
    60   1 H        0.926     0.025     2.665     2.553
    61   1 H        0.926     0.059     2.211     2.325
    62   1 H        0.926     0.067     2.117     2.275
    63   1 H        0.926     0.063     2.165     2.301
    64   1 H        0.925     0.050     2.326     2.385
    65   1 H        0.925     0.043     2.403     2.424
    66   1 H        0.925     0.050     2.326     2.385
    67   1 H        0.925     0.047     2.356     2.400
    68   1 H        0.925     0.070     2.090     2.261
    69   1 H        0.925     0.047     2.356     2.400
    70   1 H        0.926     0.063     2.165     2.301
    71   1 H        0.926     0.021     2.712     2.575
    72   1 H        0.926     0.028     2.621     2.532
    73   1 H        0.926     0.028     2.612     2.527
    74   1 H        0.926     0.032     2.557     2.500
    75   1 H        0.925     0.040     2.443     2.444
    76   1 H        0.925     0.032     2.556     2.500
    77   1 H        0.925     0.040     2.448     2.447
    78   1 H        0.925     0.031     2.568     2.506
    79   1 H        0.925     0.040     2.443     2.444
    80   1 H        0.925     0.040     2.447     2.446
    81   1 H        0.926     0.032     2.561     2.503
    82   1 H        0.926     0.029     2.608     2.525
    83   1 H        0.926     0.030     2.584     2.514
    84   1 H        0.926     0.025     2.665     2.553
    85   1 H        0.926     0.059     2.211     2.325
    86   1 H        0.926     0.067     2.117     2.275
    87   1 H        0.926     0.021     2.712     2.575
    88   1 H        0.926     0.028     2.621     2.532
    89   1 H        0.926     0.028     2.611     2.527
    90   1 H        0.926     0.032     2.557     2.500

molecular dipole:
                 x           y           z       tot (Debye)
 q only:       -0.004      -2.101       1.134
   full:       -0.004      -1.969       1.021       5.638

 projected vibrational frequencies (cm⁻¹)
eigval :       -0.00    -0.00    -0.00    -0.00     0.00     0.00
eigval :        6.85     9.47    12.41    19.31    21.74    25.66
eigval :       44.85    51.55    53.01    86.78    91.18    98.74
eigval :      100.23   102.11   106.70   126.32   127.41   128.19
eigval :      136.65   141.05   150.29   166.72   188.18   188.71
eigval :      189.46   190.92   218.71   218.89   227.16   231.57
eigval :      235.66   236.42   249.14   256.22   262.32   289.94
eigval :      304.93   305.36   315.20   316.89   331.70   331.83
eigval :      334.22   339.86   345.37   347.66   369.65   376.22
eigval :      378.36   379.88   392.60   394.85   401.45   412.28
eigval :      413.55   421.02   444.31   449.52   451.89   453.49
eigval :      454.28   487.43   491.86   497.80   514.65   515.10
eigval :      518.75   522.45   544.92   545.37   547.67   547.77
eigval :      561.01   562.10   584.08   586.74   590.94   592.95
eigval :      636.43   643.39   648.52   659.08   670.26   682.96
eigval :      683.10   688.97   693.95   693.95   699.91   702.53
eigval :      712.15   738.91   776.70   778.07   778.94   779.19
eigval :      782.44   822.85   823.38   829.37   833.22   834.18
eigval :      867.76   868.26   869.73   869.76   883.84   884.39
eigval :      913.31   913.92   914.54   914.75   916.26   916.42
eigval :      919.80   920.06   920.94   921.90   922.90   922.96
eigval :      933.83   938.48   939.09   957.36   957.37   965.26
eigval :      978.40   995.08  1014.47  1014.47  1017.96  1026.73
eigval :     1038.31  1077.05  1077.07  1088.11  1088.66  1107.89
eigval :     1115.09  1115.35  1120.25  1120.68  1129.07  1141.14
eigval :     1141.30  1141.55  1146.43  1151.75  1160.63  1160.64
eigval :     1166.14  1173.04  1176.27  1186.62  1187.79  1188.02
eigval :     1190.12  1195.22  1198.66  1228.17  1232.26  1236.00
eigval :     1239.06  1244.11  1250.74  1251.51  1256.96  1257.63
eigval :     1269.94  1270.42  1294.97  1295.08  1308.62  1312.25
eigval :     1315.10  1321.62  1325.37  1326.12  1333.98  1334.38
eigval :     1339.58  1340.52  1399.66  1401.66  1402.06  1403.22
eigval :     1403.25  1421.12  1421.14  1424.13  1435.62  1436.28
eigval :     1441.95  1442.83  1448.07  1458.32  1479.46  1480.34
eigval :     1488.65  1489.65  1489.67  1489.69  1490.66  1490.66
eigval :     1494.46  1495.66  1500.24  1500.25  1504.99  1505.11
eigval :     1512.31  1529.64  1558.14  1564.61  1575.14  1576.03
eigval :     1577.49  1584.98  1591.26  1591.44  1593.10  1593.58
eigval :     1602.11  1602.58  3027.01  3027.07  3029.39  3029.41
eigval :     3030.62  3030.70  3035.19  3036.52  3040.96  3040.98
eigval :     3043.67  3043.73  3049.72  3049.73  3051.94  3053.60
eigval :     3053.67  3079.15  3079.84  3080.92  3080.94  3084.76
eigval :     3085.05  3085.32  3085.34  3095.08  3095.43  3095.64
eigval :     3095.91  3096.30  3099.33  3099.40  3100.82  3101.19
eigval :     3102.41  3102.50  3110.78  3111.04  3122.14  3122.53

   temp. (K)  partition function   enthalpy   heat capacity  entropy
                                   cal/mol     cal/K/mol   cal/K/mol   J/K/mol
 298.15  VIB  0.268E+20            25713.716    163.654    158.093
         ROT  0.952E+08              888.752      2.981     39.490
         INT  0.255E+28            26602.469    166.635    197.583
         TR   0.169E+29             1481.254      4.968     45.380
         TOT                       28083.7225   171.6035   242.9630  1016.5570

       T/K    H(0)-H(T)+PV         H(T)/Eh          T*S/Eh         G(T)/Eh
   ------------------------------------------------------------------------
    298.15    0.447543E-01    0.763300E+00    0.115440E+00    0.647860E+00
   ------------------------------------------------------------------------

         :::::::::::::::::::::::::::::::::::::::::::::::::::::
         ::                  THERMODYNAMIC                  ::
         :::::::::::::::::::::::::::::::::::::::::::::::::::::
         :: total free energy        -133.407239156960 Eh   ::
         ::.................................................::
         :: total energy             -134.055099438767 Eh   ::
         :: zero point energy           0.718545565238 Eh   ::
         :: G(RRHO) w/o ZPVE           -0.070685283432 Eh   ::
         :: G(RRHO) contrib.            0.647860281807 Eh   ::
         :::::::::::::::::::::::::::::::::::::::::::::::::::::

           -------------------------------------------------
          | TOTAL ENERGY             -134.055099438767 Eh   |
          | TOTAL ENTHALPY           -133.291799613042 Eh   |
          | TOTAL FREE ENERGY        -133.407239156960 Eh   |
          | GRADIENT NORM               0.000037317705 Eh/α |
          | HOMO-LUMO GAP               2.259826900353 eV   |
           -------------------------------------------------

 * finished run on 2025/09/14 at 13:51:01.363
