   * xtb version 6.7.1 (edcfbbe) compiled by 'albert@albert-system' on 2024-07-22

   ID    Z sym.   atoms
    1    6 C      1-9, 11-22, 24-41, 45-50
    2    7 N      10, 23
    3   16 S      42
    4    8 O      43, 44
    5    1 H      51-90

          program call               : xtb data2507/gas/DDMA-TXO2/DDMA-TXO2_gas_S0_finalOpt.xtbopt.xyz --gfn 2 --spinpol --tblite --uhf 2 --ohess vtight --parallel 40 --molden --ceasefiles --namespace data2507/gas/DDMA-TXO2/DDMA-TXO2_gas_T1_preOpt
 * total energy  :  -133.9499152 Eh     change       -0.7074675E-08 Eh
 * total energy  :  -133.9526383 Eh     change       -0.2723127E-02 Eh
 * total energy  :  -133.9532540 Eh     change       -0.6156425E-03 Eh
 * total energy  :  -133.9533655 Eh     change       -0.1115545E-03 Eh
 * total energy  :  -133.9534610 Eh     change       -0.9552995E-04 Eh
 * total energy  :  -133.9535148 Eh     change       -0.5379069E-04 Eh
 * total energy  :  -133.9535661 Eh     change       -0.5128432E-04 Eh
 * total energy  :  -133.9536088 Eh     change       -0.4267857E-04 Eh
 * total energy  :  -133.9536373 Eh     change       -0.2847815E-04 Eh
 * total energy  :  -133.9536582 Eh     change       -0.2088103E-04 Eh
 * total energy  :  -133.9538217 Eh     change       -0.3063749E-06 Eh
 * total energy  :  -133.9538220 Eh     change       -0.2630708E-06 Eh
 * total energy  :  -133.9538223 Eh     change       -0.3269287E-06 Eh
 * total energy  :  -133.9538226 Eh     change       -0.3022285E-06 Eh
 * total energy  :  -133.9538229 Eh     change       -0.3064617E-06 Eh
 * total energy  :  -133.9538232 Eh     change       -0.3133748E-06 Eh
 * total energy  :  -133.9538233 Eh     change       -0.1293875E-06 Eh
 * total energy  :  -133.9538235 Eh     change       -0.2087429E-06 Eh
 * total energy  :  -133.9538236 Eh     change       -0.9879051E-07 Eh
   *** GEOMETRY OPTIMIZATION CONVERGED AFTER 89 ITERATIONS ***

 final structure:
================
90
 xtb: 6.7.1 (edcfbbe)
C            7.53850197766073       -2.59062798254953       -0.80539492312322
C            6.49171879556909       -2.23445802174434        0.26728060391358
C            6.73161628735476       -3.06637606018390        1.54157757029723
C            6.63091171753472       -0.76769556178463        0.61610811478666
C            7.82701997437012       -0.29584388233182        1.13820846963809
C            7.99733465879293        1.02915784598849        1.49636513042965
C            6.94286921623113        1.91703426274709        1.34732234835340
C            5.74542632084998        1.47872072186526        0.83006616189656
C            5.57611153828325        0.14140026162163        0.44196242701704
N            4.36850422765961       -0.26237495007288       -0.08842450719286
C            3.34191220473889        0.70453534821980       -0.28102783748642
C            3.43079048867346        1.62117984170995       -1.33913022946435
C            2.42079602509804        2.53572721822411       -1.50070702251404
C            1.34627752295782        2.57329092086404       -0.61480803205480
C            1.22881797657233        1.64663965221906        0.44183077723131
C            2.24335690735831        0.71933235157451        0.58197887260499
C            0.01133640842827        1.68179616927543        1.35018488546009
C            0.01179132110702        0.51192165017009        2.34158694449606
C            0.02459500512788        2.97478638389165        2.18849265412510
C           -1.21853005456755        1.65971014410628        0.45832223367540
C           -2.23492414171168        0.73982264413201        0.60619134439222
C           -3.35102151742714        0.73894866726584       -0.24040253366146
N           -4.37746544674662       -0.22058114786744       -0.04273722852591
C           -4.11241492292080       -1.54498373156390       -0.30464129093306
C           -2.84778140689241       -1.92238666037216       -0.80171275203999
C           -2.54674585499996       -3.23943693510444       -1.03579142307175
C           -3.50205914998458       -4.22595987365970       -0.79681357223917
C           -4.76241466507167       -3.85755331581299       -0.35216594587083
C           -5.09945415642598       -2.53791065228232       -0.10568429753643
C           -6.50423877244036       -2.18818717917572        0.32913056388803
C           -7.48037053139406       -2.63780221912798       -0.77584350700533
C           -6.81880456869827       -2.92654722241127        1.64510326924728
C           -6.67865078322111       -0.70470977345446        0.56060942828953
C           -7.90449593533587       -0.20892734021633        0.96999191107898
C           -8.10251286147950        1.13706961578890        1.23665110758656
C           -7.03312489675493        2.02279291087893        1.11847443363260
C           -5.80611836836861        1.56498968559711        0.71169462384803
C           -5.60935302896446        0.20484935207649        0.39579048216505
C           -3.44762293070528        1.66826609623718       -1.29298586724604
C           -2.43173047781494        2.57037572177545       -1.46582279837618
C           -1.34140942014184        2.59539994804822       -0.59450283080222
S            0.00609298485666        3.66127512002957       -1.00177264699362
O           -0.00264875947346        3.89961253119795       -2.42546509829067
O            0.02578738553648        4.85487677451987       -0.18001672748888
C            4.13193076110873       -1.57281844392735       -0.44738434455073
C            2.89403111186475       -1.92433785337820       -1.00627156606757
C            2.62253526551971       -3.22638538973497       -1.35894640006286
C            3.58256902016822       -4.20853110421178       -1.17004338489991
C            4.81318754215962       -3.86274784104142       -0.64213886148021
C            5.11645289030212       -2.55873404534811       -0.27683326181073
H            7.36310009406730       -2.00195002234645       -1.70371762666678
H            8.54326841742966       -2.38239423278231       -0.44911165740740
H            7.48103852198796       -3.64307869249322       -1.06810504921662
H            6.65467036930496       -4.12911380253368        1.33071196635457
H            5.99017337089361       -2.81050724252154        2.29603540069645
H            7.71866580762028       -2.87167962102943        1.95080340119038
H            8.65344657706385       -0.97666389642449        1.27390128757605
H            8.94198716376374        1.36348109564898        1.89661572164102
H            7.05415164281505        2.95062057080350        1.63689417443826
H            4.92228485278497        2.16682340921637        0.72333478462862
H            4.27826707964240        1.58874018751652       -2.00651090635667
H            2.42253237597140        3.24538726135307       -2.31234860824772
H            2.22386901372120       -0.02236406686228        1.36430542725461
H            0.89129221459547        0.56914597313819        2.97850394007843
H            0.00435256549319       -0.45019029820653        1.83323337672809
H           -0.85977474284048        0.57720528021477        2.98855135046912
H           -0.85539860022082        3.00417019450607        2.82825605541934
H            0.02570290056049        3.85915964747420        1.56147521602672
H            0.91327850754723        2.99377693875189        2.81658489227808
H           -2.21265370608724       -0.00371524065562        1.38668956205014
H           -2.11538474762714       -1.15884459470700       -1.00867251312042
H           -1.57177659345468       -3.50902836378771       -1.41197787984655
H           -3.27216785962026       -5.26474896378051       -0.97380523262292
H           -5.49898131259358       -4.63212023408991       -0.20200231771810
H           -8.50681922894949       -2.41860266876472       -0.49652110873763
H           -7.25617866107419       -2.11428698699209       -1.70309239937635
H           -7.39539686065885       -3.70571071971171       -0.95509519379647
H           -6.12698232228451       -2.60848045692491        2.42255768927047
H           -7.83035591381173       -2.71120283383779        1.97654317808780
H           -6.72340428294767       -4.00095050564770        1.51800560254504
H           -8.73790996292333       -0.88376503929128        1.09300349678663
H           -9.07248018278890        1.48980036855303        1.54969575378134
H           -7.16608601858819        3.06785685798404        1.35178399592411
H           -4.97485254082842        2.24720689234853        0.63718135645655
H           -4.30242431834526        1.64245598857793       -1.95117486533861
H           -2.43692393168517        3.28174473987673       -2.27585637012612
H            2.15212782424566       -1.15870122744875       -1.16761934715376
H            1.66352680005763       -3.47587094498300       -1.78683634145740
H            3.37918340015191       -5.23300917660314       -1.44115273261601
H            5.55566038843885       -4.63602277542151       -0.51735779818098

 projected vibrational frequencies (cm⁻¹)
eigval :       -0.00    -0.00     0.00     0.00     0.00     0.00
eigval :        5.22     7.84    11.25    19.11    21.40    23.33
eigval :       44.61    50.92    54.84    79.76    85.80    95.86
eigval :       97.67    98.56   102.74   129.23   130.89   132.16
eigval :      136.26   137.21   148.81   161.15   187.42   192.37
eigval :      194.57   195.89   212.65   216.53   223.88   232.32
eigval :      234.10   235.53   255.78   257.29   270.75   291.30
eigval :      301.57   303.04   315.45   316.36   323.81   326.62
eigval :      327.84   337.13   343.85   347.25   358.91   368.42
eigval :      375.88   379.04   387.03   390.82   393.72   407.43
eigval :      410.76   417.41   424.02   430.50   438.81   444.42
eigval :      450.02   456.55   492.09   497.48   505.91   510.17
eigval :      517.07   519.63   531.81   534.05   539.74   543.52
eigval :      552.95   556.43   578.27   580.90   582.00   585.46
eigval :      609.10   619.91   623.66   641.62   649.56   660.19
eigval :      668.53   669.06   683.33   685.15   686.40   697.55
eigval :      699.87   729.59   754.81   756.96   773.23   775.56
eigval :      777.67   798.02   804.44   819.18   822.75   825.37
eigval :      851.32   855.79   859.65   860.44   869.82   870.36
eigval :      893.21   897.16   897.57   903.10   904.30   909.29
eigval :      909.95   912.57   913.76   914.68   917.52   920.71
eigval :      922.49   926.93   936.27   956.32   957.83   957.92
eigval :      962.86   978.40   986.73  1004.72  1012.62  1013.43
eigval :     1018.02  1031.53  1057.74  1074.05  1078.80  1082.14
eigval :     1090.04  1094.70  1100.64  1107.29  1112.62  1116.24
eigval :     1135.66  1136.47  1138.15  1144.46  1145.37  1151.38
eigval :     1152.27  1164.89  1167.11  1173.26  1174.46  1183.31
eigval :     1183.64  1187.02  1191.60  1202.22  1202.58  1208.15
eigval :     1214.26  1224.09  1234.78  1237.80  1240.50  1245.55
eigval :     1253.93  1259.65  1289.49  1290.55  1293.83  1302.18
eigval :     1305.64  1313.15  1319.60  1330.43  1336.18  1337.16
eigval :     1341.03  1342.10  1348.70  1350.65  1358.63  1374.10
eigval :     1388.92  1390.76  1399.22  1399.95  1400.45  1401.56
eigval :     1401.77  1418.59  1419.27  1419.31  1420.32  1428.19
eigval :     1431.05  1438.74  1453.91  1457.07  1461.80  1468.76
eigval :     1480.50  1486.52  1487.17  1487.49  1488.06  1488.44
eigval :     1490.27  1491.09  1497.44  1498.15  1498.78  1501.67
eigval :     1516.31  1516.78  1521.39  1528.62  1539.08  1561.86
eigval :     1566.87  1586.77  3021.15  3022.10  3027.22  3027.56
eigval :     3029.92  3030.89  3031.93  3032.74  3042.27  3043.94
eigval :     3044.76  3046.40  3047.08  3052.45  3053.05  3056.04
eigval :     3056.63  3084.07  3085.00  3085.06  3085.26  3087.97
eigval :     3088.15  3088.45  3089.24  3091.46  3091.64  3099.82
eigval :     3100.36  3101.11  3102.01  3102.79  3106.01  3106.92
eigval :     3109.87  3110.36  3111.20  3112.12  3113.56  3114.63

   temp. (K)  partition function   enthalpy   heat capacity  entropy
                                   cal/mol     cal/K/mol   cal/K/mol   J/K/mol
 298.15  VIB  0.803E+20            26065.413    166.171    160.675
         ROT  0.936E+08              888.752      2.981     39.456
         INT  0.752E+28            26954.165    169.152    200.131
         TR   0.169E+29             1481.254      4.968     45.380
         TOT                       28435.4190   174.1198   245.5109  1027.2175

       T/K    H(0)-H(T)+PV         H(T)/Eh          T*S/Eh         G(T)/Eh
   ------------------------------------------------------------------------
    298.15    0.453147E-01    0.756568E+00    0.116650E+00    0.639918E+00
   ------------------------------------------------------------------------

         :::::::::::::::::::::::::::::::::::::::::::::::::::::
         ::                  THERMODYNAMIC                  ::
         :::::::::::::::::::::::::::::::::::::::::::::::::::::
         :: total free energy        -133.313905377093 Eh   ::
         ::.................................................::
         :: total energy             -133.953823659385 Eh   ::
         :: zero point energy           0.711253691012 Eh   ::
         :: G(RRHO) w/o ZPVE           -0.071335408720 Eh   ::
         :: G(RRHO) contrib.            0.639918282292 Eh   ::
         :::::::::::::::::::::::::::::::::::::::::::::::::::::

           -------------------------------------------------
          | TOTAL ENERGY             -133.953823659385 Eh   |
          | TOTAL ENTHALPY           -133.197255243839 Eh   |
          | TOTAL FREE ENERGY        -133.313905377093 Eh   |
          | GRADIENT NORM               0.000044844990 Eh/α |
           -------------------------------------------------

 * finished run on 2025/09/14 at 13:51:26.240
