   * xtb version 6.7.1 (edcfbbe) compiled by 'albert@albert-system' on 2024-07-22

   ID    Z sym.   atoms
    1    6 C      1-9, 11-22, 24-41, 45-50
    2    7 N      10, 23
    3   16 S      42
    4    8 O      43, 44
    5    1 H      51-90

          program call               : xtb data2507/gas/DDMA-TXO2/DDMA-TXO2_gas_T1_crest.xyz --gfn 2 --spinpol --tblite --uhf 2 --ohess vtight --parallel 40 --molden --ceasefiles --namespace data2507/gas/DDMA-TXO2/DDMA-TXO2_gas_T1_finalOpt
 * total energy  :  -133.9537894 Eh     change       -0.1031292E-06 Eh
 * total energy  :  -133.9537937 Eh     change       -0.4231418E-05 Eh
 * total energy  :  -133.9537980 Eh     change       -0.4364361E-05 Eh
 * total energy  :  -133.9538009 Eh     change       -0.2893165E-05 Eh
 * total energy  :  -133.9538072 Eh     change       -0.6221066E-05 Eh
 * total energy  :  -133.9538111 Eh     change       -0.3903529E-05 Eh
 * total energy  :  -133.9538130 Eh     change       -0.1893286E-05 Eh
 * total energy  :  -133.9538163 Eh     change       -0.3300132E-05 Eh
 * total energy  :  -133.9538179 Eh     change       -0.1645058E-05 Eh
 * total energy  :  -133.9538209 Eh     change       -0.2951912E-05 Eh
 * total energy  :  -133.9538266 Eh     change       -0.1686459E-05 Eh
 * total energy  :  -133.9538288 Eh     change       -0.2203615E-05 Eh
 * total energy  :  -133.9538307 Eh     change       -0.1876718E-05 Eh
 * total energy  :  -133.9538323 Eh     change       -0.1604819E-05 Eh
 * total energy  :  -133.9538333 Eh     change       -0.1061621E-05 Eh
 * total energy  :  -133.9538339 Eh     change       -0.5764687E-06 Eh
 * total energy  :  -133.9538343 Eh     change       -0.3552327E-06 Eh
 * total energy  :  -133.9538346 Eh     change       -0.3267840E-06 Eh
 * total energy  :  -133.9538347 Eh     change       -0.5505640E-07 Eh
   *** GEOMETRY OPTIMIZATION CONVERGED AFTER 22 ITERATIONS ***

 final structure:
================
90
 xtb: 6.7.1 (edcfbbe)
C            7.40989800133193       -2.69351577939908       -0.83937286464821
C            6.41963823411233       -2.26529531777203        0.26036642306917
C            6.69532589353617       -3.04773146552847        1.55855586381935
C            6.60809736492211       -0.78931212378693        0.53918726979633
C            7.83675390854056       -0.32673407975483        0.98882754131476
C            8.05260599582448        1.00651417071328        1.28713966923298
C            7.01115745991160        1.91231248141188        1.15396430004594
C            5.78218215595395        1.48345703048161        0.70796404002411
C            5.56696731101034        0.13758784848371        0.37480291263660
N            4.32925734643362       -0.25645823978128       -0.09012967237728
C            3.31717846055069        0.72505415828919       -0.27701386688826
C            3.40562267278076        1.63260365255571       -1.34417070683928
C            2.40504323050853        2.55728806926131       -1.50329905582700
C            1.33837471917780        2.61458581215574       -0.60836333836332
C            1.22069667257295        1.69659040212753        0.45693724053725
C            2.22692282119633        0.76092753983452        0.59657322263637
C            0.00527822755777        1.74297431907690        1.36750270108678
C            0.00580457354530        0.58347866683348        2.37109616475438
C            0.01583283132864        3.04379908905534        2.19284562776430
C           -1.22039906659928        1.70694317341609        0.47041558832833
C           -2.22518785062658        0.77377327307573        0.61238407772032
C           -3.33159200734924        0.75109388150341       -0.24659127761885
N           -4.33801465263347       -0.23137981144891       -0.06271412568772
C           -4.03334254781609       -1.55158354441552       -0.30626277457075
C           -2.75097615456584       -1.90029986899174       -0.77682399001116
C           -2.41035974375407       -3.21176528630686       -0.98935925118734
C           -3.34196682265519       -4.22058192759073       -0.75480528992255
C           -4.61963908069707       -3.88107812860776       -0.33829769864788
C           -4.99643140421825       -2.56775562237906       -0.11476708528563
C           -6.41892110485617       -2.25171209304540        0.28764683568916
C           -7.35982701231106       -2.74309926295123       -0.82988893828658
C           -6.73901936320744       -2.98040314460787        1.60759131559351
C           -6.63814576135789       -0.77046839356643        0.49525991567715
C           -7.88631272710201       -0.30364768561879        0.87122923967323
C           -8.12632150573133        1.03909969133062        1.11722844684419
C           -7.07899086269217        1.95138599971010        1.01378647199011
C           -5.83067163571725        1.52201789881517        0.64048202007658
C           -5.59099503043981        0.16514099157659        0.34391868518142
C           -3.43149936827775        1.67573244457996       -1.30344973143930
C           -2.42751924280631        2.59218448479047       -1.46939495104868
C           -1.34531688192443        2.63632729580913       -0.58849312371642
S            0.00037685058337        3.70276769813843       -1.00088970077665
O           -0.00857384102049        3.93206294691697       -2.42615515701739
O            0.02000058943118        4.90185655410286       -0.18714900320177
C            4.04893101965647       -1.57412773372532       -0.38763165334869
C            2.78475994890553       -1.91750468711221       -0.89124697701308
C            2.46892637478225       -3.22611231494411       -1.17522122588010
C            3.40933539141038       -4.22464549470859       -0.97304957267380
C            4.66685941487209       -3.88777466256410       -0.50606382840282
C            5.01531626160122       -2.57730320270838       -0.21128577930284
H            7.20954844649768       -2.13912936348668       -1.75414402399414
H            8.43394540231510       -2.49639812146198       -0.53558618151990
H            7.31578266512063       -3.75430886333974       -1.05342733686246
H            7.70342490857775       -2.86033743089490        1.91666219325593
H            6.58485845180372       -4.11627126185227        1.39794794886510
H            5.99346149009775       -2.74136670783127        2.33180722428987
H            8.65298824240323       -1.02158114590159        1.11463674560176
H            9.02182481672375        1.33327511771718        1.63083214217249
H            7.15732320934733        2.95258643151480        1.40090696089224
H            4.96957640533132        2.18596605232398        0.61624882217155
H            4.24452282903158        1.58311597135266       -2.02130981583151
H            2.40657788079878        3.25913591362427       -2.32169982364890
H            2.20710007170523        0.02748944606813        1.38667489165490
H            0.88397793002028        0.64931499501500        3.00908147015358
H            0.00152300271294       -0.38429148600012        1.87357225516740
H           -0.86769368906006        0.65402487606546        3.01497178458648
H           -0.86518686217965        3.07831473052125        2.83093862060794
H            0.01715159148334        3.92231715696180        1.55786489646236
H            0.90344516556907        3.06958670006888        2.82220748672523
H           -2.20007492420377        0.03433967102451        1.39670983621193
H           -2.03558975651455       -1.12025291838960       -0.98147878746975
H           -1.42198556230524       -3.45859514568943       -1.34563296661552
H           -3.08091345356634       -5.25489501980068       -0.91418238644968
H           -5.33805386723209       -4.67320705050477       -0.19205008234333
H           -8.39740905941203       -2.54936373911953       -0.57391172811331
H           -7.13181910871706       -2.22576611188667       -1.75968283021041
H           -7.24167667238461       -3.81045635900666       -0.99285073868351
H           -6.07175122651337       -2.63260007296747        2.39374341596549
H           -7.76247509609094       -2.78870908201048        1.91626600961935
H           -6.61153116337556       -4.05338617150390        1.49771025844357
H           -8.70363982515594       -0.99965588217168        0.98355963002803
H           -9.11250435520520        1.36889296635389        1.40366947794957
H           -7.24467833088320        2.99501541542168        1.23214229076815
H           -5.01621870049508        2.22540585386675        0.57819961994042
H           -4.27793743836750        1.63345896104324       -1.97155032481180
H           -2.43453093463241        3.29913354877322       -2.28327806160358
H            2.05738762780216       -1.14097664188113       -1.06552066100107
H            1.49025251662103       -3.46851062981186       -1.56048176640441
H            3.17054156144888       -5.25454540479441       -1.18898936696209
H            5.39448908920439       -4.67378242683876       -0.37379432681424

 projected vibrational frequencies (cm⁻¹)
eigval :       -0.00    -0.00    -0.00    -0.00     0.00     0.00
eigval :        6.29     7.33    11.76    18.88    21.18    23.30
eigval :       45.21    51.81    54.84    79.65    86.09    96.22
eigval :       98.36    98.90   104.07   129.28   131.44   132.47
eigval :      137.80   138.18   146.97   161.58   187.47   192.38
eigval :      195.42   196.27   212.91   216.25   224.79   231.88
eigval :      233.86   235.61   255.32   258.69   271.41   291.48
eigval :      301.78   303.03   315.27   316.60   324.01   326.54
eigval :      328.05   337.13   343.82   347.61   358.21   367.93
eigval :      376.23   378.97   387.55   390.17   394.93   407.58
eigval :      410.78   418.01   424.04   432.34   439.03   444.26
eigval :      449.84   457.08   493.40   496.20   505.38   510.73
eigval :      517.09   519.39   532.67   534.86   539.46   543.26
eigval :      552.66   556.54   577.99   580.81   582.27   585.42
eigval :      608.96   612.79   621.71   640.87   648.81   659.09
eigval :      668.53   670.20   684.10   684.87   685.98   697.21
eigval :      699.68   728.91   755.91   758.84   772.43   774.91
eigval :      777.69   798.36   804.33   817.76   823.08   825.30
eigval :      852.45   857.50   859.35   860.65   869.64   870.16
eigval :      893.30   896.79   898.31   903.95   905.30   907.93
eigval :      908.97   909.89   913.38   913.47   914.35   919.71
eigval :      922.23   925.68   935.68   954.57   957.89   957.93
eigval :      962.08   970.24   982.39  1003.80  1012.79  1013.50
eigval :     1018.07  1024.17  1059.43  1073.38  1077.37  1082.02
eigval :     1089.57  1096.58  1098.67  1107.55  1112.31  1116.12
eigval :     1135.21  1135.96  1138.13  1145.05  1145.39  1150.72
eigval :     1151.95  1165.80  1168.37  1174.21  1175.00  1182.90
eigval :     1183.41  1186.14  1191.66  1201.15  1202.25  1210.43
eigval :     1212.05  1224.03  1234.76  1237.41  1239.70  1245.55
eigval :     1253.60  1259.85  1289.04  1290.68  1293.60  1301.66
eigval :     1303.86  1310.96  1318.87  1330.34  1336.44  1337.34
eigval :     1340.89  1343.52  1346.87  1351.65  1364.33  1373.11
eigval :     1389.58  1392.77  1398.64  1400.12  1400.70  1401.57
eigval :     1402.34  1417.53  1418.74  1419.25  1420.22  1427.79
eigval :     1431.08  1439.10  1450.89  1456.20  1461.97  1468.18
eigval :     1478.42  1486.69  1486.90  1487.37  1487.63  1488.21
eigval :     1490.20  1490.90  1497.52  1498.09  1499.19  1501.59
eigval :     1506.88  1518.81  1522.31  1527.31  1531.42  1555.36
eigval :     1561.72  1585.50  3020.53  3021.99  3026.59  3027.25
eigval :     3029.80  3030.55  3031.73  3032.42  3041.14  3043.96
eigval :     3044.68  3046.37  3046.92  3051.96  3052.45  3055.68
eigval :     3056.12  3083.92  3084.92  3084.99  3085.24  3087.53
eigval :     3087.75  3087.79  3088.86  3091.22  3091.41  3099.55
eigval :     3100.78  3101.49  3101.81  3102.61  3105.67  3106.38
eigval :     3109.57  3110.17  3111.61  3112.27  3113.87  3114.42

   temp. (K)  partition function   enthalpy   heat capacity  entropy
                                   cal/mol     cal/K/mol   cal/K/mol   J/K/mol
 298.15  VIB  0.653E+20            26058.116    166.256    160.436
         ROT  0.926E+08              888.752      2.981     39.434
         INT  0.605E+28            26946.868    169.237    199.871
         TR   0.169E+29             1481.254      4.968     45.380
         TOT                       28428.1223   174.2051   245.2507  1026.1288

       T/K    H(0)-H(T)+PV         H(T)/Eh          T*S/Eh         G(T)/Eh
   ------------------------------------------------------------------------
    298.15    0.453031E-01    0.756388E+00    0.116527E+00    0.639862E+00
   ------------------------------------------------------------------------

         :::::::::::::::::::::::::::::::::::::::::::::::::::::
         ::                  THERMODYNAMIC                  ::
         :::::::::::::::::::::::::::::::::::::::::::::::::::::
         :: total free energy        -133.313972918849 Eh   ::
         ::.................................................::
         :: total energy             -133.953834533428 Eh   ::
         :: zero point energy           0.711085021395 Eh   ::
         :: G(RRHO) w/o ZPVE           -0.071223406816 Eh   ::
         :: G(RRHO) contrib.            0.639861614579 Eh   ::
         :::::::::::::::::::::::::::::::::::::::::::::::::::::

           -------------------------------------------------
          | TOTAL ENERGY             -133.953834533428 Eh   |
          | TOTAL ENTHALPY           -133.197446415554 Eh   |
          | TOTAL FREE ENERGY        -133.313972918849 Eh   |
          | GRADIENT NORM               0.000104020615 Eh/α |
           -------------------------------------------------

 * finished run on 2025/09/14 at 14:01:33.489
