   * xtb version 6.7.1 (edcfbbe) compiled by 'albert@albert-system' on 2024-07-22

   ID    Z sym.   atoms
    1    6 C      1-9, 11-22, 24-41, 45-50
    2    7 N      10, 23
    3   16 S      42
    4    8 O      43, 44
    5    1 H      51-90

          program call               : xtb data2507/gas/DDMA-TXO2/DDMA-TXO2.xyz --gfn 2 --ohess vtight --parallel 40 --molden --ceasefiles --namespace data2507/gas/DDMA-TXO2/DDMA-TXO2_gas_S0_preOpt
          :  Hamiltonian                  GFN2-xTB          :
 * total energy  :  -134.0161317 Eh     change       -0.3065111E-08 Eh
 * total energy  :  -134.0366034 Eh     change       -0.2047167E-01 Eh
 * total energy  :  -134.0444889 Eh     change       -0.7885470E-02 Eh
 * total energy  :  -134.0463453 Eh     change       -0.1856422E-02 Eh
 * total energy  :  -134.0474559 Eh     change       -0.1110557E-02 Eh
 * total energy  :  -134.0479039 Eh     change       -0.4479990E-03 Eh
 * total energy  :  -134.0481021 Eh     change       -0.1982512E-03 Eh
 * total energy  :  -134.0481957 Eh     change       -0.9354025E-04 Eh
 * total energy  :  -134.0482402 Eh     change       -0.4452785E-04 Eh
 * total energy  :  -134.0482589 Eh     change       -0.1875859E-04 Eh
 * total energy  :  -134.0483488 Eh     change       -0.5416483E-06 Eh
 * total energy  :  -134.0483492 Eh     change       -0.4054444E-06 Eh
 * total energy  :  -134.0483495 Eh     change       -0.3016171E-06 Eh
 * total energy  :  -134.0483498 Eh     change       -0.2373030E-06 Eh
 * total energy  :  -134.0483500 Eh     change       -0.1858647E-06 Eh
 * total energy  :  -134.0483501 Eh     change       -0.1782748E-06 Eh
 * total energy  :  -134.0483503 Eh     change       -0.1329554E-06 Eh
 * total energy  :  -134.0483504 Eh     change       -0.1171197E-06 Eh
 * total energy  :  -134.0483505 Eh     change       -0.8452440E-07 Eh
   *** GEOMETRY OPTIMIZATION CONVERGED AFTER 42 ITERATIONS ***

 final structure:
================
90
 xtb: 6.7.1 (edcfbbe)
C            8.80322351237858       -0.00394907164741       -0.60175007837562
C            7.38790224171691       -0.00293575797087       -1.20727297455191
C            7.46625290557250       -0.00426393213129       -2.74490198493860
C            6.66673903163745       -1.25949824816548       -0.75650481714099
C            7.18603879800451       -2.50374605471141       -1.08687548152070
C            6.57194230019039       -3.68129397611287       -0.70203485331580
C            5.40345842728168       -3.62621557745456        0.03580176243431
C            4.86524744565018       -2.40360885203712        0.37874921652614
C            5.48579863119702       -1.21308774981816       -0.00930279258151
N            4.91998318523952        0.00094624625392        0.34832875351426
C            3.73320829089934        0.00287821820913        1.12893011921705
C            3.80914704033865        0.00665814785565        2.51841601230062
C            2.63373532980194        0.00841781600559        3.23791263646147
C            1.41057758886077        0.00647341365567        2.58581360647136
C            1.30029842417353        0.00275685956492        1.20641296356902
C            2.50232543989144        0.00098912180434        0.49297941326783
C           -0.00001224992607        0.00051536236088        0.41610082696316
C           -0.00003335322469        1.27089277603292       -0.45942511472197
C           -0.00002832861141       -1.27478964665499       -0.45222581331064
C           -1.30028960272634        0.00274883146976        1.20646782740852
C           -2.50234613889714        0.00098423321770        0.49308442822389
C           -3.73320287950476        0.00285989390727        1.12908565209262
N           -4.92000642316346        0.00095537581299        0.34852783392907
C           -5.48812208421566        1.21321918598053       -0.01146671909301
C           -4.86951264069708        2.40565669708710        0.37378791077524
C           -5.41004551629751        3.62657643827873        0.02849319747174
C           -6.57888030789247        3.67801580011098       -0.70905065528000
C           -7.19086909178103        2.49856715502166       -1.09141929803256
C           -6.66920774535131        1.25594607742782       -0.75865339164309
C           -7.38790178363323       -0.00285469510332       -1.20711098662673
C           -8.80323983988556       -0.00351182620054       -0.60162719876586
C           -7.46620990149203       -0.00449333270938       -2.74474200172590
C           -6.66695184781184       -1.25943908580791       -0.75606290516413
C           -7.18644434144035       -2.50367269375526       -1.08618386793671
C           -6.57253087126011       -3.68123828541500       -0.70110527177895
C           -5.40403123494667       -3.62619292971773        0.03670898481511
C           -4.86563016370659       -2.40360078355795        0.37940978588677
C           -5.48600899579248       -1.21306200589041       -0.00886302450481
C           -3.80908480520928        0.00660791129860        2.51857467198229
C           -2.63364303786114        0.00836398378134        3.23802254136734
C           -1.41051209013997        0.00644568733313        2.58587304488426
S            0.00005562629464        0.00899535276433        3.67432735071755
O            0.00005731935592        1.23853058790032        4.42106967059119
O            0.00008554012075       -1.21710682864489        4.42669948578156
C            5.48829236078800        1.21319352332323       -0.01141624743932
C            4.86983886913586        2.40564911864056        0.37403218829361
C            5.41056515863524        3.62655429436787        0.02898903405514
C            6.57943655609767        3.67796034425983       -0.70849922522164
C            7.19125804959833        2.49849376173305       -1.09108013476716
C            6.66939922703534        1.25588686440633       -0.75857095793649
H            8.74058475675626       -0.00303531100014        0.48482224608763
H            9.35759037378464       -0.88519181018994       -0.91231802256461
H            9.35942774637170        0.87564860404421       -0.91369448555633
H            7.99111805351238        0.87498708716152       -3.10773357412599
H            6.46285002459621       -0.00350802238360       -3.16680822848765
H            7.98919645642062       -0.88524685146239       -3.10630624039147
H            8.09816400001499       -2.56261929567099       -1.66118658429812
H            7.00378120407692       -4.63173489867468       -0.97563959840750
H            4.90831027248757       -4.53363445674498        0.34741849282501
H            3.95482511972594       -2.36636130353338        0.95762619346690
H            4.77077120209150        0.00815466187135        3.00711957718226
H            2.62751403474986        0.01129968753726        4.31645726066393
H            2.50650754239988       -0.00198106016388       -0.58627795277177
H            0.87847546060077        1.30983082890713       -1.09606452483578
H           -0.00002899919763        2.15272537208328        0.17844099819932
H           -0.87856131528382        1.30982067324249       -1.09603877366249
H           -0.87857574167203       -1.31731663060337       -1.08858899224178
H           -0.00000703997886       -2.15300029082948        0.19061902869385
H            0.87848524955774       -1.31730780219979       -1.08863634749480
H           -2.50657314778622       -0.00196361626249       -0.58617281900611
H           -3.95870656125007        2.37125179222749        0.95223627082687
H           -4.91639048696199        4.53552905173025        0.33799932501945
H           -7.01253930918716        4.62710720672484       -0.98445476806422
H           -8.10318462541472        2.55460380441271       -1.66571200234979
H           -8.74063088159886       -0.00237273023011        0.48494658848336
H           -9.35929664426827        0.87610598843686       -0.91377736735126
H           -9.35773783014168       -0.88473375804837       -0.91201985799145
H           -6.46279519201572       -0.00399324849349       -3.16662065127614
H           -7.98928988071346       -0.88546528410019       -3.10597557843859
H           -7.99091837426924        0.87476923513970       -3.10777241604577
H           -8.09857592495649       -2.56252004540593       -1.66048752240625
H           -7.00451743594946       -4.63166724559819       -0.97451840493294
H           -4.90901533736389       -4.53362589626420        0.34849461197777
H           -3.95518773424505       -2.36637702570252        0.95825677014690
H           -4.77068869864061        0.00808458874996        3.00731814960379
H           -2.62737708340761        0.01123054716375        4.31656697392367
H            3.95899734035233        2.37126841522913        0.95242625836933
H            4.91702956493939        4.53552126074122        0.33864327905934
H            7.01324790002018        4.62703975980936       -0.98370467655439
H            8.10359791741572        2.55450427199030       -1.66533675790487

          :  Hamiltonian                  GFN2-xTB          :
         :: gradient norm              0.000015875034 Eh/a0 ::
         :: HOMO-LUMO gap              2.313356978518 eV    ::
         :: SCC energy              -136.315899752119 Eh    ::
         :: -> dispersion             -0.130718825826 Eh    ::
         :: repulsion energy           2.267549280609 Eh    ::

    * Orbital Energies and Occupations

         #    Occupation            Energy/Eh            Energy/eV
      -------------------------------------------------------------
         1        2.0000           -0.7719617             -21.0061
       ...           ...                  ...                  ...
       112        2.0000           -0.4121684             -11.2157
       113        2.0000           -0.4117944             -11.2055
       114        2.0000           -0.4117649             -11.2047
       115        2.0000           -0.4104071             -11.1677
       116        2.0000           -0.4061601             -11.0522
       117        2.0000           -0.4061370             -11.0516
       118        2.0000           -0.4053786             -11.0309
       119        2.0000           -0.4006618             -10.9026
       120        2.0000           -0.4006553             -10.9024
       121        2.0000           -0.3953790             -10.7588
       122        2.0000           -0.3953761             -10.7587
       123        2.0000           -0.3504646              -9.5366
       124        2.0000           -0.3501249              -9.5274 (HOMO)
       125                         -0.2651107              -7.2140 (LUMO)
       126                         -0.2603065              -7.0833
       127                         -0.2566831              -6.9847
       128                         -0.2560772              -6.9682
       129                         -0.2267264              -6.1695
       130                         -0.2267260              -6.1695
       131                         -0.2217300              -6.0336
       132                         -0.2217269              -6.0335
       133                         -0.2207707              -6.0075
       134                         -0.2207684              -6.0074
       135                         -0.1929110              -5.2494
       ...                                ...                  ...
       245                          1.2119091              32.9777
      -------------------------------------------------------------
                  HL-Gap            0.0850143 Eh            2.3134 eV

     #   Z          covCN         q      C6AA      α(0)
     1   6 C        3.761    -0.104    22.526     6.766
     2   6 C        3.909     0.021    20.161     6.382
     3   6 C        3.761    -0.104    22.527     6.766
     4   6 C        2.979    -0.014    28.348     8.734
     5   6 C        2.928    -0.036    28.893     8.815
     6   6 C        2.917    -0.044    29.103     8.846
     7   6 C        2.920    -0.033    28.812     8.802
     8   6 C        2.924    -0.060    29.498     8.907
     9   6 C        2.929     0.057    26.723     8.478
    10   7 N        2.756    -0.073    22.652     7.069
    11   6 C        2.928     0.077    26.280     8.407
    12   6 C        2.921    -0.034    28.852     8.808
    13   6 C        3.000    -0.020    28.504     8.758
    14   6 C        2.978    -0.080    29.985     8.982
    15   6 C        2.998     0.011    27.760     8.643
    16   6 C        2.936    -0.042    29.055     8.840
    17   6 C        3.907     0.018    20.217     6.391
    18   6 C        3.763    -0.109    22.626     6.780
    19   6 C        3.763    -0.109    22.625     6.780
    20   6 C        2.998     0.011    27.760     8.643
    21   6 C        2.936    -0.042    29.055     8.840
    22   6 C        2.928     0.077    26.280     8.407
    23   7 N        2.756    -0.073    22.652     7.069
    24   6 C        2.929     0.057    26.723     8.478
    25   6 C        2.924    -0.060    29.497     8.907
    26   6 C        2.920    -0.033    28.812     8.802
    27   6 C        2.917    -0.044    29.103     8.846
    28   6 C        2.928    -0.036    28.893     8.815
    29   6 C        2.979    -0.014    28.348     8.734
    30   6 C        3.909     0.021    20.161     6.382
    31   6 C        3.761    -0.104    22.526     6.766
    32   6 C        3.761    -0.104    22.527     6.766
    33   6 C        2.979    -0.014    28.348     8.734
    34   6 C        2.928    -0.036    28.893     8.815
    35   6 C        2.917    -0.044    29.103     8.846
    36   6 C        2.920    -0.033    28.812     8.802
    37   6 C        2.924    -0.060    29.498     8.907
    38   6 C        2.929     0.057    26.723     8.478
    39   6 C        2.921    -0.034    28.852     8.808
    40   6 C        3.000    -0.020    28.504     8.758
    41   6 C        2.978    -0.080    29.985     8.982
    42  16 S        3.875     0.963   107.725    17.469
    43   8 O        0.860    -0.547    24.851     6.684
    44   8 O        0.860    -0.547    24.851     6.684
    45   6 C        2.929     0.057    26.723     8.478
    46   6 C        2.924    -0.060    29.497     8.907
    47   6 C        2.920    -0.033    28.812     8.802
    48   6 C        2.917    -0.044    29.103     8.846
    49   6 C        2.928    -0.036    28.893     8.815
    50   6 C        2.979    -0.014    28.348     8.734
    51   1 H        0.925     0.032     2.557     2.501
    52   1 H        0.925     0.040     2.449     2.447
    53   1 H        0.925     0.040     2.449     2.447
    54   1 H        0.925     0.040     2.449     2.447
    55   1 H        0.925     0.030     2.580     2.512
    56   1 H        0.925     0.040     2.449     2.447
    57   1 H        0.926     0.031     2.568     2.506
    58   1 H        0.926     0.028     2.618     2.530
    59   1 H        0.926     0.029     2.600     2.522
    60   1 H        0.926     0.021     2.715     2.577
    61   1 H        0.926     0.061     2.183     2.311
    62   1 H        0.926     0.066     2.133     2.284
    63   1 H        0.926     0.057     2.235     2.338
    64   1 H        0.925     0.053     2.285     2.364
    65   1 H        0.925     0.042     2.420     2.433
    66   1 H        0.925     0.053     2.285     2.364
    67   1 H        0.925     0.053     2.285     2.364
    68   1 H        0.925     0.042     2.420     2.433
    69   1 H        0.925     0.053     2.285     2.364
    70   1 H        0.926     0.057     2.235     2.338
    71   1 H        0.926     0.021     2.715     2.577
    72   1 H        0.926     0.029     2.600     2.522
    73   1 H        0.926     0.028     2.618     2.530
    74   1 H        0.926     0.031     2.568     2.506
    75   1 H        0.925     0.032     2.557     2.501
    76   1 H        0.925     0.040     2.449     2.447
    77   1 H        0.925     0.040     2.449     2.447
    78   1 H        0.925     0.030     2.580     2.512
    79   1 H        0.925     0.040     2.449     2.447
    80   1 H        0.925     0.040     2.449     2.447
    81   1 H        0.926     0.031     2.568     2.506
    82   1 H        0.926     0.028     2.618     2.530
    83   1 H        0.926     0.029     2.600     2.522
    84   1 H        0.926     0.021     2.715     2.577
    85   1 H        0.926     0.061     2.183     2.311
    86   1 H        0.926     0.066     2.133     2.284
    87   1 H        0.926     0.021     2.715     2.577
    88   1 H        0.926     0.029     2.600     2.522
    89   1 H        0.926     0.028     2.618     2.530
    90   1 H        0.926     0.031     2.568     2.506

molecular dipole:
                 x           y           z       tot (Debye)
 q only:       -0.000      -0.005      -2.425
   full:       -0.000      -0.005      -2.207       5.609

 projected vibrational frequencies (cm⁻¹)
eigval :       -0.00    -0.00    -0.00     0.00     0.00     0.00
eigval :      -12.96    -6.78     1.41    13.92    21.36    21.73
eigval :       22.63    35.58    47.10    79.22    80.67    92.75
eigval :       94.86    98.03   100.06   100.25   114.27   114.32
eigval :      128.11   128.66   128.69   153.47   154.60   165.16
eigval :      178.50   190.26   190.35   206.60   218.25   219.69
eigval :      219.89   225.75   231.16   234.93   240.98   245.51
eigval :      303.99   304.42   311.13   318.35   330.18   330.49
eigval :      330.61   340.20   344.04   345.65   346.93   352.54
eigval :      364.70   376.51   378.20   390.02   395.42   411.64
eigval :      412.53   416.06   440.72   441.79   449.34   449.82
eigval :      464.96   486.85   493.08   501.51   510.98   515.48
eigval :      515.51   530.71   542.83   547.56   547.65   552.21
eigval :      552.98   564.46   586.55   587.10   592.97   597.08
eigval :      640.01   644.45   651.08   655.26   664.44   681.89
eigval :      682.03   692.86   692.88   697.25   699.74   703.46
eigval :      706.15   745.18   776.97   777.12   778.33   778.41
eigval :      784.96   821.03   821.11   832.02   832.18   838.58
eigval :      866.15   866.23   866.73   866.78   890.11   891.43
eigval :      913.31   913.32   914.13   914.14   916.87   917.20
eigval :      918.47   918.54   921.56   921.57   921.58   921.59
eigval :      926.19   938.66   938.78   957.26   957.26   959.48
eigval :      979.20   980.19  1014.31  1014.31  1021.86  1028.75
eigval :     1047.56  1077.33  1077.34  1087.12  1089.04  1107.14
eigval :     1112.68  1112.92  1118.99  1119.00  1130.90  1137.75
eigval :     1140.94  1140.94  1145.92  1150.53  1155.17  1160.92
eigval :     1160.94  1172.05  1173.79  1187.05  1187.14  1187.51
eigval :     1187.60  1191.55  1195.90  1223.39  1226.74  1236.06
eigval :     1240.51  1240.96  1248.29  1249.68  1249.81  1268.06
eigval :     1269.14  1272.45  1294.28  1294.31  1304.29  1308.19
eigval :     1322.78  1325.33  1325.36  1326.23  1334.94  1335.34
eigval :     1345.66  1346.09  1388.37  1394.92  1402.79  1402.79
eigval :     1405.97  1421.00  1421.00  1423.60  1436.64  1436.77
eigval :     1444.26  1444.54  1461.75  1466.03  1481.67  1482.23
eigval :     1486.19  1487.80  1489.78  1489.79  1490.59  1490.59
eigval :     1496.35  1496.53  1498.44  1499.66  1500.38  1500.38
eigval :     1505.27  1505.35  1563.12  1570.75  1576.29  1576.33
eigval :     1584.51  1590.19  1591.81  1592.21  1593.10  1593.26
eigval :     1602.28  1602.61  3026.62  3026.64  3029.49  3029.50
eigval :     3033.47  3034.72  3040.36  3040.36  3043.16  3043.18
eigval :     3049.07  3049.07  3052.99  3053.06  3053.29  3055.50
eigval :     3062.68  3066.20  3079.68  3079.69  3079.81  3079.85
eigval :     3083.83  3083.85  3083.97  3083.99  3092.79  3092.80
eigval :     3092.84  3093.16  3094.69  3094.99  3099.31  3099.44
eigval :     3100.20  3100.23  3100.70  3100.82  3109.82  3109.98

   temp. (K)  partition function   enthalpy   heat capacity  entropy
                                   cal/mol     cal/K/mol   cal/K/mol   J/K/mol
 298.15  VIB  0.471E+22            26289.181    163.378    165.604
         ROT  0.524E+08              888.752      2.981     38.303
         INT  0.247E+30            27177.933    166.359    203.907
         TR   0.169E+29             1481.254      4.968     45.380
         TOT                       28659.1871   171.3275   249.2870  1043.0170

       T/K    H(0)-H(T)+PV         H(T)/Eh          T*S/Eh         G(T)/Eh
   ------------------------------------------------------------------------
    298.15    0.456713E-01    0.762667E+00    0.118444E+00    0.644223E+00
   ------------------------------------------------------------------------

         :::::::::::::::::::::::::::::::::::::::::::::::::::::
         ::                  THERMODYNAMIC                  ::
         :::::::::::::::::::::::::::::::::::::::::::::::::::::
         :: total free energy        -133.404127644348 Eh   ::
         ::.................................................::
         :: total energy             -134.048350471513 Eh   ::
         :: zero point energy           0.716995820986 Eh   ::
         :: G(RRHO) w/o ZPVE           -0.072772993821 Eh   ::
         :: G(RRHO) contrib.            0.644222827165 Eh   ::
         :::::::::::::::::::::::::::::::::::::::::::::::::::::

           -------------------------------------------------
          | TOTAL ENERGY             -134.048350471513 Eh   |
          | TOTAL ENTHALPY           -133.285683328849 Eh   |
          | TOTAL FREE ENERGY        -133.404127644348 Eh   |
          | GRADIENT NORM               0.000015855263 Eh/α |
          | HOMO-LUMO GAP               2.313356412775 eV   |
           -------------------------------------------------

 * finished run on 2025/09/14 at 13:42:24.057
