   * xtb version 6.7.1 (edcfbbe) compiled by 'albert@albert-system' on 2024-07-22

   ID    Z sym.   atoms
    1    6 C      1-9, 11-17, 19-33, 35, 37-42
    2    7 N      10, 18, 34, 36
    3    1 H      43-74

          program call               : xtb data2507/toluene/DMAC-ND/DMAC-ND_toluene_S0_crest.xyz --gfn 2 --gbsa toluene --ohess vtight --parallel 40 --molden --ceasefiles --namespace data2507/toluene/DMAC-ND/DMAC-ND_toluene_S0_finalOpt
      * Solvation model:               GBSA
        Solvent                        toluene
        Solvent mass                       9.2140E+01 g/mol
          :  Hamiltonian                  GFN2-xTB          :
 * total energy  :  -109.5150930 Eh     change       -0.7990337E-09 Eh
 * total energy  :  -109.5151464 Eh     change       -0.5341066E-04 Eh
 * total energy  :  -109.5151760 Eh     change       -0.2955202E-04 Eh
 * total energy  :  -109.5151937 Eh     change       -0.1769627E-04 Eh
 * total energy  :  -109.5152067 Eh     change       -0.1300301E-04 Eh
 * total energy  :  -109.5152162 Eh     change       -0.9496462E-05 Eh
 * total energy  :  -109.5152186 Eh     change       -0.2450397E-05 Eh
 * total energy  :  -109.5152214 Eh     change       -0.2768140E-05 Eh
 * total energy  :  -109.5152235 Eh     change       -0.2138787E-05 Eh
 * total energy  :  -109.5152259 Eh     change       -0.2375051E-05 Eh
 * total energy  :  -109.5152325 Eh     change       -0.1239728E-05 Eh
 * total energy  :  -109.5152337 Eh     change       -0.1245391E-05 Eh
 * total energy  :  -109.5152348 Eh     change       -0.1040990E-05 Eh
 * total energy  :  -109.5152357 Eh     change       -0.9491847E-06 Eh
 * total energy  :  -109.5152366 Eh     change       -0.9168867E-06 Eh
 * total energy  :  -109.5152374 Eh     change       -0.8019051E-06 Eh
 * total energy  :  -109.5152381 Eh     change       -0.6348136E-06 Eh
 * total energy  :  -109.5152386 Eh     change       -0.4853102E-06 Eh
 * total energy  :  -109.5152386 Eh     change       -0.3894954E-08 Eh
   *** GEOMETRY OPTIMIZATION CONVERGED AFTER 22 ITERATIONS ***

 final structure:
================
74
 xtb: 6.7.1 (edcfbbe)
C            7.04498207656354       -1.56144405585380        1.13618164110461
C            5.70723990339762       -0.85345680645117        0.92022211377660
C            5.14941171718424       -0.45182020463878        2.30231792350635
C            5.84228260337168        0.39588724410654        0.07214940571784
C            7.04442102384568        1.01760787349981       -0.23109465328728
C            7.07792996124268        2.17206966254863       -0.99516455695285
C            5.90304325429547        2.71551627271392       -1.48579064959013
C            4.69651250836695        2.10208188735620       -1.20967724969980
C            4.66037135913001        0.95764133879672       -0.41887397249086
N            3.44371741294828        0.29135474532295       -0.18752892419885
C            2.29042411701995        0.98594751735255        0.09341517876923
C            2.39334570148512        2.27501487335230        0.69155064575212
C            1.25034232009103        2.94600054078067        1.01116482468328
C           -0.00037252145439        2.35912984693550        0.74052869967141
C           -1.24832374606792        2.94285414003610        1.03070283991017
C           -2.39489167677292        2.27519426350192        0.71725525877228
C           -2.29896050166709        0.99645662130560        0.09578683615955
N           -3.45151042976314        0.31040000892730       -0.20277123291735
C           -3.52230731021618       -1.09055802160187       -0.36903792514061
C           -2.54191579734587       -1.80041017428374       -1.04931955161278
C           -2.67351814066185       -3.16645845843731       -1.22089141934097
C           -3.79193078298075       -3.82056950584627       -0.73828502375228
C           -4.77504053860593       -3.10928465811401       -0.07064220119459
C           -4.65591071468791       -1.74319455647199        0.13286917116653
C           -5.67229557239976       -0.91531530559405        0.90225912103424
C           -5.07853989595829       -0.58034387886453        2.28711314332386
C           -6.99672511330721       -1.64802463739169        1.11825393396587
C           -5.84276022094988        0.37465683450789        0.12391452380643
C           -7.05873779976187        0.99881243825101       -0.11169568709714
C           -7.12494464513784        2.19088025185649       -0.81333861024054
C           -5.97058077958279        2.76810970957720       -1.31395699015053
C           -4.75121415682563        2.15274373893416       -1.10656439432535
C           -4.68097800432428        0.97296510012400       -0.37213113926454
N           -1.14088803212402        0.41654196663018       -0.13921948648297
C           -0.00390758790250        1.05715799144083        0.16328214603893
N            1.13028777130026        0.40898463529118       -0.13579797295312
C            3.52467614165880       -1.11523962185181       -0.28079462366265
C            2.53191247131136       -1.87080100679015       -0.89050832321888
C            2.67206730630125       -3.24330503987627       -0.98838977799513
C            3.81066268052590       -3.85997279924764       -0.50384492695273
C            4.80514475577468       -3.10391664460456        0.09405312862727
C            4.67829022018336       -1.72965061806768        0.22453665289761
H            6.90842991191910       -2.43516964794665        1.76781660737316
H            7.73861175058245       -0.89921439519151        1.64798482094972
H            7.48012723115966       -1.87087739928637        0.18869672763827
H            5.02091953438436       -1.33806245526257        2.92011703411139
H            5.84034602117856        0.22626918412753        2.79944554876347
H            4.18514864403733        0.04234570847787        2.21294810785925
H            7.97347091894113        0.60850855096546        0.13038199206096
H            8.02448602730800        2.64392776152156       -1.21224671771560
H            5.92447872316111        3.60673650567323       -2.09520079660069
H            3.77486366150133        2.49938560777304       -1.61046564258604
H            3.36330616101821        2.69020589878983        0.91594154587015
H            1.29037097426753        3.91949817390767        1.48235101917825
H           -1.28328977291313        3.91157925769981        1.51199174216696
H           -3.36151613872571        2.68682711338872        0.96118354461140
H           -1.67886665433607       -1.27821465167274       -1.42248489193824
H           -1.90447005453173       -3.71405507097107       -1.74492255072147
H           -3.90402951703876       -4.88562428818472       -0.87870633739753
H           -5.63816236374990       -3.63977697319776        0.29682871697304
H           -4.91953031044830       -1.49653543991574        2.85180714047486
H           -4.12404288111719       -0.06776663929752        2.19682347967892
H           -5.76307760641055        0.05952259811137        2.84050617136878
H           -7.45625205402910       -1.91169291373965        0.16842531268125
H           -7.68153210689500       -1.02140701109623        1.68391794595652
H           -6.83360550432089       -2.55236481261908        1.69840270077865
H           -7.97285339197932        0.56254051093877        0.25601058184732
H           -8.08136120507246        2.66471416194431       -0.97592445376894
H           -6.01833264221261        3.68760678978197       -1.87814217091274
H           -3.84599833020037        2.57647636208198       -1.51760649797177
H            1.65275087040888       -1.37738060047513       -1.26525952022094
H            1.89280115297065       -3.82605523619761       -1.45648604988762
H            3.92936439012201       -4.93029162064194       -0.58756966084201
H            5.68338221011946       -3.60581240145168        0.46584843115424

          :  Hamiltonian                  GFN2-xTB          :
         :: gradient norm              0.000057420065 Eh/a0 ::
         :: HOMO-LUMO gap              2.125700183663 eV    ::
         :: SCC energy              -111.448611878166 Eh    ::
         :: -> dispersion             -0.104386926505 Eh    ::
         :: -> Gsolv                  -0.043632127082 Eh    ::
         :: repulsion energy           1.933373304637 Eh    ::

    * Orbital Energies and Occupations

         #    Occupation            Energy/Eh            Energy/eV
      -------------------------------------------------------------
         1        2.0000           -0.6725737             -18.3017
       ...           ...                  ...                  ...
        90        2.0000           -0.4138604             -11.2617
        91        2.0000           -0.4109026             -11.1812
        92        2.0000           -0.4092243             -11.1356
        93        2.0000           -0.4028989             -10.9634
        94        2.0000           -0.4024455             -10.9511
        95        2.0000           -0.3998841             -10.8814
        96        2.0000           -0.3996463             -10.8749
        97        2.0000           -0.3945837             -10.7372
        98        2.0000           -0.3941669             -10.7258
        99        2.0000           -0.3794390             -10.3251
       100        2.0000           -0.3652138              -9.9380
       101        2.0000           -0.3567652              -9.7081
       102        2.0000           -0.3533689              -9.6157 (HOMO)
       103                         -0.2752509              -7.4900 (LUMO)
       104                         -0.2421319              -6.5887
       105                         -0.2281293              -6.2077
       106                         -0.2278356              -6.1997
       107                         -0.2245323              -6.1098
       108                         -0.2225047              -6.0547
       109                         -0.2165723              -5.8932
       110                         -0.2163196              -5.8864
       111                         -0.2137539              -5.8165
       112                         -0.2129116              -5.7936
       113                         -0.1959832              -5.3330
       ...                                ...                  ...
       200                          0.6808214              18.5261
      -------------------------------------------------------------
                  HL-Gap            0.0781180 Eh            2.1257 eV

     #   Z          covCN         q      C6AA      α(0)
     1   6 C        3.759    -0.110    22.648     6.785
     2   6 C        3.911     0.022    20.150     6.380
     3   6 C        3.762    -0.099    22.428     6.751
     4   6 C        2.986    -0.007    28.179     8.708
     5   6 C        2.923    -0.039    28.970     8.827
     6   6 C        2.919    -0.039    28.960     8.825
     7   6 C        2.919    -0.034    28.851     8.808
     8   6 C        2.921    -0.048    29.187     8.859
     9   6 C        2.946     0.056    26.735     8.480
    10   7 N        2.759    -0.072    22.641     7.067
    11   6 C        2.891     0.164    24.469     8.110
    12   6 C        2.915    -0.071    29.761     8.946
    13   6 C        2.919    -0.028    28.694     8.784
    14   6 C        2.984    -0.037    28.904     8.819
    15   6 C        2.919    -0.028    28.694     8.784
    16   6 C        2.915    -0.071    29.769     8.947
    17   6 C        2.891     0.164    24.472     8.111
    18   7 N        2.759    -0.071    22.622     7.064
    19   6 C        2.940     0.061    26.625     8.463
    20   6 C        2.919    -0.049    29.205     8.862
    21   6 C        2.921    -0.034    28.836     8.806
    22   6 C        2.918    -0.039    28.976     8.827
    23   6 C        2.923    -0.042    29.035     8.836
    24   6 C        2.986    -0.010    28.258     8.720
    25   6 C        3.911     0.022    20.149     6.380
    26   6 C        3.762    -0.099    22.428     6.751
    27   6 C        3.758    -0.110    22.650     6.785
    28   6 C        2.986    -0.006    28.173     8.707
    29   6 C        2.923    -0.039    28.967     8.826
    30   6 C        2.919    -0.038    28.955     8.824
    31   6 C        2.919    -0.034    28.851     8.808
    32   6 C        2.921    -0.048    29.184     8.859
    33   6 C        2.946     0.056    26.741     8.481
    34   7 N        1.857    -0.299    28.589     7.925
    35   6 C        2.939     0.183    24.089     8.049
    36   7 N        1.856    -0.298    28.575     7.923
    37   6 C        2.939     0.061    26.630     8.463
    38   6 C        2.919    -0.050    29.243     8.868
    39   6 C        2.921    -0.034    28.840     8.807
    40   6 C        2.918    -0.040    28.984     8.828
    41   6 C        2.923    -0.042    29.038     8.837
    42   6 C        2.986    -0.010    28.266     8.721
    43   1 H        0.925     0.046     2.371     2.408
    44   1 H        0.925     0.046     2.375     2.410
    45   1 H        0.925     0.042     2.424     2.435
    46   1 H        0.925     0.042     2.417     2.431
    47   1 H        0.925     0.042     2.425     2.435
    48   1 H        0.925     0.028     2.617     2.530
    49   1 H        0.926     0.049     2.338     2.391
    50   1 H        0.926     0.038     2.476     2.461
    51   1 H        0.926     0.036     2.504     2.475
    52   1 H        0.926     0.026     2.638     2.540
    53   1 H        0.926     0.034     2.526     2.485
    54   1 H        0.925     0.032     2.553     2.499
    55   1 H        0.925     0.032     2.553     2.499
    56   1 H        0.926     0.035     2.520     2.483
    57   1 H        0.926     0.063     2.159     2.298
    58   1 H        0.926     0.036     2.507     2.476
    59   1 H        0.926     0.035     2.519     2.482
    60   1 H        0.926     0.045     2.386     2.416
    61   1 H        0.925     0.042     2.416     2.431
    62   1 H        0.925     0.028     2.617     2.530
    63   1 H        0.925     0.042     2.424     2.435
    64   1 H        0.925     0.042     2.422     2.434
    65   1 H        0.925     0.046     2.374     2.410
    66   1 H        0.925     0.046     2.369     2.407
    67   1 H        0.926     0.049     2.335     2.389
    68   1 H        0.926     0.038     2.472     2.459
    69   1 H        0.926     0.036     2.500     2.473
    70   1 H        0.926     0.027     2.627     2.535
    71   1 H        0.926     0.065     2.139     2.287
    72   1 H        0.926     0.035     2.511     2.478
    73   1 H        0.926     0.034     2.525     2.485
    74   1 H        0.926     0.044     2.391     2.418

molecular dipole:
                 x           y           z       tot (Debye)
 q only:       -0.047      -0.362       0.457
   full:       -0.043       0.544       0.756       2.370

 projected vibrational frequencies (cm⁻¹)
eigval :       -0.00     0.00     0.00     0.00     0.00     0.00
eigval :       10.09    14.06    29.05    37.11    58.27    60.56
eigval :       67.04    71.75    90.83   104.31   107.40   121.00
eigval :      129.75   138.07   149.43   170.72   176.21   188.46
eigval :      190.17   203.99   226.76   238.39   252.35   262.84
eigval :      272.37   280.32   283.60   285.36   306.81   310.80
eigval :      314.06   327.17   339.89   346.73   359.08   363.87
eigval :      380.99   396.30   408.85   409.16   410.23   412.30
eigval :      422.11   431.30   444.24   446.84   466.47   486.14
eigval :      487.65   501.18   505.18   538.16   539.29   555.43
eigval :      556.10   570.06   573.57   577.52   577.95   590.31
eigval :      596.96   617.42   625.80   649.73   654.69   667.37
eigval :      690.83   691.22   709.17   719.99   720.75   727.81
eigval :      740.33   771.16   773.84   780.76   782.87   795.88
eigval :      811.34   811.72   814.12   833.89   841.72   864.59
eigval :      868.23   881.03   883.58   888.13   904.46   905.22
eigval :      909.21   909.49   914.32   915.82   916.50   919.53
eigval :      921.25   924.07   929.71   931.10   942.06   942.31
eigval :      965.63   966.35   986.06  1008.35  1009.95  1032.24
eigval :     1071.87  1072.33  1085.12  1088.17  1100.12  1101.35
eigval :     1107.80  1108.93  1136.07  1136.44  1140.57  1150.14
eigval :     1150.95  1161.43  1171.36  1174.13  1180.25  1182.11
eigval :     1187.15  1188.60  1199.75  1200.08  1230.90  1232.30
eigval :     1239.24  1254.74  1255.77  1269.00  1269.79  1272.04
eigval :     1272.42  1279.21  1291.43  1301.24  1307.06  1322.17
eigval :     1322.87  1326.40  1326.65  1331.43  1360.86  1364.71
eigval :     1394.10  1394.75  1411.53  1411.60  1427.55  1433.37
eigval :     1437.39  1438.23  1440.38  1443.67  1453.80  1457.37
eigval :     1475.36  1478.80  1481.81  1490.40  1490.60  1490.85
eigval :     1491.66  1504.01  1504.03  1519.80  1520.55  1522.72
eigval :     1562.60  1575.58  1576.16  1584.12  1584.55  1587.48
eigval :     1587.55  1594.29  1597.93  1601.27  3023.78  3024.06
eigval :     3027.60  3028.03  3032.90  3032.91  3034.20  3034.24
eigval :     3043.24  3043.34  3048.34  3048.39  3049.02  3051.41
eigval :     3072.28  3072.92  3074.88  3075.60  3080.32  3080.62
eigval :     3086.94  3088.00  3091.27  3091.44  3095.60  3096.95
eigval :     3112.28  3112.54  3114.41  3114.50  3142.84  3144.50

   temp. (K)  partition function   enthalpy   heat capacity  entropy
                                   cal/mol     cal/K/mol   cal/K/mol   J/K/mol
 298.15  VIB  0.512E+14            19840.087    131.743    119.800
         ROT  0.507E+08              888.752      2.981     38.237
         INT  0.260E+22            20728.840    134.724    158.037
         TR   0.123E+29             1481.254      4.968     44.750
         TOT                       22210.0936   139.6920   202.7872   848.4616

       T/K    H(0)-H(T)+PV         H(T)/Eh          T*S/Eh         G(T)/Eh
   ------------------------------------------------------------------------
    298.15    0.353940E-01    0.624995E+00    0.963507E-01    0.528644E+00
   ------------------------------------------------------------------------

         :::::::::::::::::::::::::::::::::::::::::::::::::::::
         ::                  THERMODYNAMIC                  ::
         :::::::::::::::::::::::::::::::::::::::::::::::::::::
         :: total free energy        -108.986594668638 Eh   ::
         ::.................................................::
         :: total energy             -109.515238575362 Eh   ::
         :: zero point energy           0.589600609547 Eh   ::
         :: G(RRHO) w/o ZPVE           -0.060956702823 Eh   ::
         :: G(RRHO) contrib.            0.528643906724 Eh   ::
         :::::::::::::::::::::::::::::::::::::::::::::::::::::

           -------------------------------------------------
          | TOTAL ENERGY             -109.515238575362 Eh   |
          | TOTAL ENTHALPY           -108.890243928739 Eh   |
          | TOTAL FREE ENERGY        -108.986594668638 Eh   |
          | GRADIENT NORM               0.000057418972 Eh/α |
          | HOMO-LUMO GAP               2.125700158331 eV   |
           -------------------------------------------------

 * finished run on 2025/09/07 at 22:39:13.831
