   * xtb version 6.7.1 (edcfbbe) compiled by 'albert@albert-system' on 2024-07-22

   ID    Z sym.   atoms
    1    6 C      1-9, 11-17, 19-33, 35, 37-42
    2    7 N      10, 18, 34, 36
    3    1 H      43-74

          program call               : xtb data2507/toluene/DMAC-ND/DMAC-ND_toluene_T1_crest.xyz --gfn 2 --uhf 2 --gbsa toluene --ohess vtight --parallel 40 --molden --ceasefiles --namespace data2507/toluene/DMAC-ND/DMAC-ND_toluene_T1_finalOpt
      * Solvation model:               GBSA
        Solvent                        toluene
        Solvent mass                       9.2140E+01 g/mol
          :  Hamiltonian                  GFN2-xTB          :
 * total energy  :  -109.4383629 Eh     change       -0.3710795E-08 Eh
 * total energy  :  -109.4384234 Eh     change       -0.6053487E-04 Eh
 * total energy  :  -109.4384506 Eh     change       -0.2723765E-04 Eh
 * total energy  :  -109.4384614 Eh     change       -0.1076323E-04 Eh
 * total energy  :  -109.4384720 Eh     change       -0.1064434E-04 Eh
 * total energy  :  -109.4384795 Eh     change       -0.7433107E-05 Eh
 * total energy  :  -109.4384855 Eh     change       -0.6013306E-05 Eh
 * total energy  :  -109.4384921 Eh     change       -0.6648248E-05 Eh
 * total energy  :  -109.4385001 Eh     change       -0.7959120E-05 Eh
 * total energy  :  -109.4385083 Eh     change       -0.8167094E-05 Eh
 * total energy  :  -109.4385279 Eh     change       -0.3413456E-05 Eh
 * total energy  :  -109.4385307 Eh     change       -0.2855795E-05 Eh
 * total energy  :  -109.4385329 Eh     change       -0.2205945E-05 Eh
 * total energy  :  -109.4385347 Eh     change       -0.1721325E-05 Eh
 * total energy  :  -109.4385361 Eh     change       -0.1475195E-05 Eh
 * total energy  :  -109.4385375 Eh     change       -0.1356498E-05 Eh
 * total energy  :  -109.4385386 Eh     change       -0.1098006E-05 Eh
 * total energy  :  -109.4385394 Eh     change       -0.7877868E-06 Eh
 * total energy  :  -109.4385394 Eh     change       -0.1758575E-07 Eh
   *** GEOMETRY OPTIMIZATION CONVERGED AFTER 22 ITERATIONS ***

 final structure:
================
74
 xtb: 6.7.1 (edcfbbe)
C            7.44119364648417       -1.40498733934954        0.34387631191638
C            6.04792463617050       -0.79468708327994        0.49927597805338
C            5.80719363359283       -0.52278615186009        2.00188509233132
C            5.89824435001052        0.51765491181631       -0.24144076244495
C            6.96303290806149        1.28288185328201       -0.69044756383802
C            6.75875572078317        2.50962290087903       -1.30031828368353
C            5.47068698253722        2.98767791986729       -1.48131881711139
C            4.39464965687267        2.23652789530662       -1.05729045479903
C            4.59750626615739        1.00576527177721       -0.43012118707803
N            3.50381634502660        0.22109376088685       -0.06328063159662
C            2.32901447341590        0.84975001825270        0.35251002428741
C            2.41814592623260        1.93897796097839        1.21083740913281
C            1.24826580125881        2.53501017973037        1.66819311801173
C           -0.00010865461765        2.01998167610375        1.29058495154277
C           -1.24868918673387        2.53836302848332        1.66378600163419
C           -2.41812858715259        1.94321717263035        1.20440878339020
C           -2.32821020725653        0.84973959203542        0.35197238332001
N           -3.50451941573713        0.22110813522354       -0.06212956295193
C           -3.66783949274441       -1.16553777027401       -0.12559998994106
C           -2.58986364864825       -2.00864076145059       -0.38769381170495
C           -2.78717381841159       -3.36672781226709       -0.53380517188742
C           -4.06207904888463       -3.89515556534226       -0.42198606046014
C           -5.13103193501381       -3.06348788528218       -0.12966536994709
C           -4.95710730233707       -1.69941921780395        0.04041984490315
C           -6.06720937896452       -0.76363606234381        0.48070079520503
C           -5.85462853468680       -0.46443383301184        1.98244231981745
C           -7.46174120302126       -1.36662644653185        0.30849711280014
C           -5.89364138738029        0.53393989917646       -0.28055698697464
C           -6.94452720728069        1.30124681788043       -0.75796196240665
C           -6.72014354823916        2.51572795218612       -1.38510526412848
C           -5.42527952611524        2.97944932891198       -1.55476121615280
C           -4.36264336130441        2.22603452756289       -1.10223736460859
C           -4.58595520460663        1.00764057393801       -0.45787172942551
N           -1.13900824095220        0.36378518908461       -0.03726759017456
C            0.00007863715016        0.88106845365113        0.40299652003345
N            1.13964120369138        0.36612408909482       -0.03873083021065
C            3.65784754542131       -1.16551261399374       -0.15848237850851
C            2.57992427723677       -1.99390043838175       -0.46333872193721
C            2.77163713994772       -3.34883894264524       -0.64274161899140
C            4.04076554881508       -3.88882426911350       -0.52105550963541
C            5.10909378447525       -3.07261515746363       -0.18617658601930
C            4.94019844155489       -1.71248359957862        0.01726651694535
H            7.51282567660468       -2.32603951821639        0.91579978913060
H            8.19272519784458       -0.72551529209050        0.73677745447643
H            7.66032217684185       -1.61446319262148       -0.70057863760789
H            5.87513489053679       -1.45277704936812        2.56216809997928
H            6.55573035168627        0.17134127570322        2.37837920602632
H            4.82203983702831       -0.09401340130994        2.17043363164813
H            7.97367330909151        0.93175744566525       -0.56304337404256
H            7.60486402778503        3.09068329724608       -1.63465925000096
H            5.30334936544899        3.93880902189927       -1.96427441614775
H            3.38534037061696        2.58593550966416       -1.21845002859702
H            3.38446682773070        2.28644633686057        1.54313514863196
H            1.29257749344618        3.38263462452950        2.33530770051349
H           -1.29326360519038        3.38776214243598        2.32857522958950
H           -3.38515240395260        2.29417142512703        1.53103084727258
H           -1.60660645226619       -1.57535394752818       -0.48111018007233
H           -1.94484290847302       -4.00966873107587       -0.74102960365845
H           -4.22527556492307       -4.95563821473790       -0.54302876506245
H           -6.11005921224963       -3.50141381630157       -0.02608143718967
H           -5.94480128611721       -1.38212469523886        2.55957709776962
H           -4.86813343167442       -0.04344900881544        2.16261873237562
H           -6.60264946798504        0.24555799982958        2.32919068346441
H           -7.66115773407277       -1.59387776280546       -0.73618294329172
H           -8.21591629958952       -0.67467355853615        0.67343898680595
H           -7.55223903885909       -2.27622839540755        0.89575900562541
H           -7.96017420575678        0.96154040161289       -0.63991648838848
H           -7.55586951139918        3.09844902846124       -1.74186197504263
H           -5.24212931379514        3.92072919019526       -2.05105471924043
H           -3.34774482181244        2.56319166391348       -1.25420910250101
H            1.60120232811215       -1.55174721391957       -0.56244915804178
H            1.92942829602706       -3.98012225451005       -0.88363603237458
H            4.19963214039555       -4.94669593619539       -0.66798847827826
H            6.08342815300493       -3.51937373363562       -0.07617079947731

          :  Hamiltonian                  GFN2-xTB          :
         :: gradient norm              0.000080647258 Eh/a0 ::
         :: HOMO-LUMO gap              1.041042562420 eV    ::
         :: SCC energy              -111.361660849674 Eh    ::
         :: -> dispersion             -0.104147731744 Eh    ::
         :: -> Gsolv                  -0.044553175782 Eh    ::
         :: repulsion energy           1.923121445605 Eh    ::

    * Orbital Energies and Occupations

         #    Occupation            Energy/Eh            Energy/eV
      -------------------------------------------------------------
         1        2.0000           -0.6741527             -18.3446
       ...           ...                  ...                  ...
        91        2.0000           -0.4109290             -11.1819
        92        2.0000           -0.4070798             -11.0772
        93        2.0000           -0.4051850             -11.0256
        94        2.0000           -0.4027302             -10.9588
        95        2.0000           -0.4025059             -10.9527
        96        2.0000           -0.3989264             -10.8553
        97        2.0000           -0.3984183             -10.8415
        98        2.0000           -0.3952015             -10.7540
        99        2.0000           -0.3869306             -10.5289
       100        1.9986           -0.3628731              -9.8743
       101        1.9908           -0.3610804              -9.8255
       102        1.0106           -0.3523304              -9.5874
       103        1.0000           -0.2764051              -7.5214 (HOMO)
       104                         -0.2381475              -6.4803 (LUMO)
       105                         -0.2293987              -6.2423
       106                         -0.2282964              -6.2123
       107                         -0.2279439              -6.2027
       108                         -0.2276769              -6.1954
       109                         -0.2208009              -6.0083
       110                         -0.2205552              -6.0016
       111                         -0.2105480              -5.7293
       112                         -0.2090036              -5.6873
       113                         -0.1951179              -5.3094
       114                         -0.1520290              -4.1369
       ...                                ...                  ...
       200                          0.6813492              18.5405
      -------------------------------------------------------------
                  HL-Gap            0.0382576 Eh            1.0410 eV

     #   Z          covCN         q      C6AA      α(0)
     1   6 C        3.758    -0.111    22.669     6.788
     2   6 C        3.910     0.022    20.141     6.379
     3   6 C        3.764    -0.099    22.440     6.752
     4   6 C        2.984    -0.007    28.177     8.707
     5   6 C        2.922    -0.039    28.957     8.825
     6   6 C        2.918    -0.038    28.936     8.821
     7   6 C        2.918    -0.033    28.820     8.803
     8   6 C        2.921    -0.047    29.155     8.855
     9   6 C        2.943     0.058    26.694     8.474
    10   7 N        2.756    -0.056    22.330     7.018
    11   6 C        2.879     0.137    25.006     8.198
    12   6 C        2.913    -0.067    29.669     8.932
    13   6 C        2.919    -0.069    29.715     8.939
    14   6 C        2.975    -0.011    28.279     8.723
    15   6 C        2.919    -0.069    29.719     8.940
    16   6 C        2.913    -0.067    29.659     8.930
    17   6 C        2.879     0.137    25.013     8.199
    18   7 N        2.756    -0.056    22.321     7.017
    19   6 C        2.933     0.061    26.623     8.462
    20   6 C        2.920    -0.054    29.332     8.881
    21   6 C        2.919    -0.032    28.806     8.801
    22   6 C        2.918    -0.038    28.937     8.821
    23   6 C        2.923    -0.040    28.999     8.831
    24   6 C        2.984    -0.009    28.226     8.715
    25   6 C        3.910     0.022    20.141     6.379
    26   6 C        3.764    -0.099    22.441     6.752
    27   6 C        3.758    -0.111    22.671     6.788
    28   6 C        2.984    -0.007    28.176     8.707
    29   6 C        2.922    -0.038    28.957     8.824
    30   6 C        2.918    -0.038    28.934     8.821
    31   6 C        2.918    -0.033    28.818     8.803
    32   6 C        2.921    -0.047    29.155     8.855
    33   6 C        2.943     0.058    26.691     8.473
    34   7 N        1.853    -0.283    28.179     7.868
    35   6 C        2.902     0.188    23.980     8.029
    36   7 N        1.853    -0.282    28.177     7.867
    37   6 C        2.934     0.061    26.626     8.462
    38   6 C        2.920    -0.054    29.333     8.882
    39   6 C        2.919    -0.032    28.808     8.802
    40   6 C        2.918    -0.038    28.939     8.822
    41   6 C        2.923    -0.040    29.001     8.831
    42   6 C        2.984    -0.009    28.228     8.715
    43   1 H        0.925     0.048     2.350     2.397
    44   1 H        0.925     0.047     2.354     2.400
    45   1 H        0.925     0.043     2.413     2.429
    46   1 H        0.925     0.044     2.392     2.419
    47   1 H        0.925     0.044     2.396     2.421
    48   1 H        0.925     0.029     2.596     2.520
    49   1 H        0.926     0.050     2.317     2.380
    50   1 H        0.926     0.039     2.456     2.450
    51   1 H        0.926     0.037     2.490     2.468
    52   1 H        0.926     0.028     2.612     2.527
    53   1 H        0.926     0.026     2.640     2.541
    54   1 H        0.926     0.025     2.655     2.548
    55   1 H        0.926     0.025     2.654     2.548
    56   1 H        0.926     0.026     2.641     2.542
    57   1 H        0.926     0.067     2.117     2.275
    58   1 H        0.926     0.037     2.495     2.470
    59   1 H        0.926     0.038     2.480     2.463
    60   1 H        0.926     0.048     2.346     2.395
    61   1 H        0.925     0.045     2.389     2.417
    62   1 H        0.925     0.029     2.596     2.520
    63   1 H        0.925     0.044     2.394     2.420
    64   1 H        0.925     0.043     2.412     2.429
    65   1 H        0.925     0.047     2.353     2.399
    66   1 H        0.925     0.048     2.349     2.397
    67   1 H        0.926     0.050     2.316     2.380
    68   1 H        0.926     0.040     2.454     2.450
    69   1 H        0.926     0.037     2.490     2.468
    70   1 H        0.926     0.028     2.613     2.528
    71   1 H        0.926     0.068     2.110     2.272
    72   1 H        0.926     0.037     2.495     2.470
    73   1 H        0.926     0.038     2.482     2.463
    74   1 H        0.926     0.048     2.348     2.396

molecular dipole:
                 x           y           z       tot (Debye)
 q only:       -0.025      -0.934       0.061
   full:       -0.023      -0.309       0.472       1.434

 projected vibrational frequencies (cm⁻¹)
eigval :       -0.00     0.00     0.00     0.00     0.00     0.00
eigval :       -2.54     8.63    26.21    30.71    48.46    52.23
eigval :       62.23    65.55    91.81    96.25   101.00   111.34
eigval :      117.19   139.34   141.53   166.85   169.07   194.34
eigval :      204.30   206.63   222.40   227.21   243.56   266.89
eigval :      270.89   272.30   278.79   279.43   296.79   299.75
eigval :      311.22   314.50   336.19   352.03   367.26   367.89
eigval :      380.23   385.22   401.95   402.87   411.87   412.57
eigval :      419.45   440.76   441.00   446.06   470.17   484.95
eigval :      485.23   496.32   502.10   525.60   527.06   544.62
eigval :      548.19   551.93   553.01   572.76   575.93   581.88
eigval :      583.12   594.75   616.58   620.52   648.08   660.86
eigval :      686.82   687.01   693.87   706.89   713.22   714.84
eigval :      718.51   723.08   740.92   770.30   772.47   775.93
eigval :      777.59   786.96   813.06   813.44   825.55   830.76
eigval :      839.29   854.19   871.72   872.03   873.27   874.98
eigval :      902.39   904.54   906.41   907.64   910.74   911.26
eigval :      920.35   920.94   922.29   924.84   936.40   936.95
eigval :      962.85   964.09   976.90  1006.08  1006.18  1026.60
eigval :     1072.68  1072.94  1084.09  1092.27  1097.80  1099.12
eigval :     1106.09  1106.81  1109.24  1124.57  1132.88  1134.99
eigval :     1145.55  1146.01  1163.92  1168.80  1176.97  1178.48
eigval :     1185.05  1185.67  1196.28  1197.73  1220.39  1231.64
eigval :     1233.21  1250.05  1252.99  1268.28  1269.30  1270.16
eigval :     1272.21  1278.43  1287.85  1288.29  1301.40  1307.26
eigval :     1316.67  1317.82  1321.88  1323.70  1329.33  1329.63
eigval :     1354.46  1385.98  1391.91  1392.17  1408.75  1409.01
eigval :     1409.37  1424.11  1425.01  1431.30  1433.01  1449.58
eigval :     1450.42  1463.53  1467.41  1473.06  1487.94  1488.30
eigval :     1488.38  1488.80  1497.41  1502.27  1502.33  1514.01
eigval :     1521.74  1522.59  1560.27  1560.54  1569.17  1569.83
eigval :     1576.08  1576.38  1588.15  1589.65  3025.45  3025.61
eigval :     3028.27  3028.38  3034.91  3035.12  3035.48  3035.74
eigval :     3038.69  3038.91  3051.09  3051.78  3069.52  3072.39
eigval :     3076.64  3076.71  3077.42  3078.28  3083.21  3083.42
eigval :     3084.25  3085.67  3087.07  3088.31  3093.00  3093.44
eigval :     3095.85  3097.90  3114.32  3114.90  3115.71  3116.19

   temp. (K)  partition function   enthalpy   heat capacity  entropy
                                   cal/mol     cal/K/mol   cal/K/mol   J/K/mol
 298.15  VIB  0.107E+16            20200.145    132.940    123.973
         ROT  0.522E+08              888.752      2.981     38.297
         INT  0.559E+23            21088.897    135.921    162.271
         TR   0.123E+29             1481.254      4.968     44.750
         TOT                       22570.1513   140.8891   207.0208   866.1749

       T/K    H(0)-H(T)+PV         H(T)/Eh          T*S/Eh         G(T)/Eh
   ------------------------------------------------------------------------
    298.15    0.359678E-01    0.621384E+00    0.983623E-01    0.523022E+00
   ------------------------------------------------------------------------

         :::::::::::::::::::::::::::::::::::::::::::::::::::::
         ::                  THERMODYNAMIC                  ::
         :::::::::::::::::::::::::::::::::::::::::::::::::::::
         :: total free energy        -108.915517415256 Eh   ::
         ::.................................................::
         :: total energy             -109.438539403247 Eh   ::
         :: zero point energy           0.585416413680 Eh   ::
         :: G(RRHO) w/o ZPVE           -0.062394425689 Eh   ::
         :: G(RRHO) contrib.            0.523021987991 Eh   ::
         :::::::::::::::::::::::::::::::::::::::::::::::::::::

           -------------------------------------------------
          | TOTAL ENERGY             -109.438539403247 Eh   |
          | TOTAL ENTHALPY           -108.817155163983 Eh   |
          | TOTAL FREE ENERGY        -108.915517415256 Eh   |
          | GRADIENT NORM               0.000080688456 Eh/α |
          | HOMO-LUMO GAP               1.041041525311 eV   |
           -------------------------------------------------

 * finished run on 2025/09/07 at 22:44:05.546
