   * xtb version 6.7.1 (edcfbbe) compiled by 'albert@albert-system' on 2024-07-22

   ID    Z sym.   atoms
    1    6 C      1-9, 11-17, 19-33, 35, 37-42
    2    7 N      10, 18, 34, 36
    3    1 H      43-74

          program call               : xtb data2507/toluene/DMAC-ND/DMAC-ND.xyz --gfn 2 --gbsa toluene --ohess vtight --parallel 40 --molden --ceasefiles --namespace data2507/toluene/DMAC-ND/DMAC-ND_toluene_S0_preOpt
      * Solvation model:               GBSA
        Solvent                        toluene
        Solvent mass                       9.2140E+01 g/mol
          :  Hamiltonian                  GFN2-xTB          :
 * total energy  :  -109.4705012 Eh     change       -0.2291230E-08 Eh
 * total energy  :  -109.4896770 Eh     change       -0.1917582E-01 Eh
 * total energy  :  -109.4967405 Eh     change       -0.7063405E-02 Eh
 * total energy  :  -109.4983714 Eh     change       -0.1630985E-02 Eh
 * total energy  :  -109.4995006 Eh     change       -0.1129204E-02 Eh
 * total energy  :  -109.4999674 Eh     change       -0.4667115E-03 Eh
 * total energy  :  -109.5002324 Eh     change       -0.2650856E-03 Eh
 * total energy  :  -109.5004344 Eh     change       -0.2019927E-03 Eh
 * total energy  :  -109.5006032 Eh     change       -0.1688027E-03 Eh
 * total energy  :  -109.5007906 Eh     change       -0.1873727E-03 Eh
 * total energy  :  -109.5152350 Eh     change       -0.6602183E-06 Eh
 * total energy  :  -109.5152357 Eh     change       -0.6573669E-06 Eh
 * total energy  :  -109.5152364 Eh     change       -0.6553838E-06 Eh
 * total energy  :  -109.5152370 Eh     change       -0.6520960E-06 Eh
 * total energy  :  -109.5152377 Eh     change       -0.6492667E-06 Eh
 * total energy  :  -109.5152383 Eh     change       -0.6455762E-06 Eh
 * total energy  :  -109.5152389 Eh     change       -0.6422067E-06 Eh
 * total energy  :  -109.5152396 Eh     change       -0.6377644E-06 Eh
 * total energy  :  -109.5152396 Eh     change       -0.5872181E-08 Eh
   *** GEOMETRY OPTIMIZATION CONVERGED AFTER 580 ITERATIONS ***

 final structure:
================
74
 xtb: 6.7.1 (edcfbbe)
C            7.07305386418786       -1.67248657593016        0.46196644638672
C            5.72848378001436       -0.94518470578327        0.48802343151377
C            5.18371710508449       -0.99663816021272        1.93142775232354
C            5.84633348070851        0.50651958315415        0.06773369521584
C            7.04112483142754        1.20374834292880       -0.03326888178432
C            7.05946654254071        2.53945909185247       -0.39806473921687
C            5.87650653296889        3.19656281472543       -0.69001933885101
C            4.67729737422089        2.51523156141040       -0.61355812841146
C            4.65606330596324        1.18129217658978       -0.21730625428306
N            3.44539201779287        0.46608378465043       -0.19462552406811
C            2.29083938485729        1.03778669828014        0.28793117333242
C            2.39368929053456        2.07649385683950        1.25777548397762
C            1.25089630309484        2.62036766629828        1.76459956983336
C            0.00011984109454        2.15027453939804        1.32115653473502
C           -1.24770167768162        2.62444583044356        1.76891480990254
C           -2.39417232644518        2.08885776470230        1.26178275833550
C           -2.29833731677647        1.05679669989933        0.28393126165798
N           -3.45328905960130        0.49700106656144       -0.20815285841956
C           -3.53565833968879       -0.79645568187991       -0.76927592288035
C           -2.54882508132635       -1.29912442527600       -1.60690010641109
C           -2.69107009242836       -2.55761071625715       -2.16268248940664
C           -3.82641794846124       -3.30380741204897       -1.90621147331337
C           -4.81513302331295       -2.79661348590710       -1.07958839648633
C           -4.68608581587262       -1.54718833265882       -0.49305006620590
C           -5.70849825227857       -0.95900207002457        0.46563319868555
C           -5.13850280482202       -1.04683611977287        1.89740328311102
C           -7.04517237697606       -1.70070689262041        0.44060201830267
C           -5.84958135929338        0.50289793343973        0.08932226782223
C           -7.05384955968059        1.18802097263118        0.02482579543136
C           -7.09326965428243        2.53242809303584       -0.30473228653602
C           -5.92297867430266        3.21070116998859       -0.59925076955860
C           -4.71472041379982        2.54224381457432       -0.55861372477107
C           -4.67191675452854        1.19953108174044       -0.19570193067756
N           -1.14077600816176        0.57359646831344       -0.11453011965256
C           -0.00361060987511        1.08881787819797        0.37174163260271
N            1.13052705649170        0.56336650451032       -0.11170124326424
C            3.53223557368078       -0.84421494190982       -0.71342944401120
C            2.53414910664813       -1.38820605370091       -1.51124702227686
C            2.68029821910670       -2.66345790130962       -2.02621783558526
C            3.83015022396613       -3.38687440526057       -1.76952148693619
C            4.82867934267211       -2.84014301154104       -0.98080454739378
C            4.69622479548777       -1.57312949962803       -0.43411642920340
H            6.94944962715185       -2.70047649775193        0.79195806063064
H            7.76810816908693       -1.19529176424967        1.14810133196720
H            7.49970603793439       -1.66797972218915       -0.53845105326834
H            4.21692990346019       -0.50521713070264        2.00829807887142
H            5.06435139011367       -2.03182274598196        2.24405199881939
H            5.87739103869904       -0.50271633894083        2.60900889380470
H            7.97617319624235        0.71152066260078        0.17762227418678
H            8.00039564428227        3.06510801350186       -0.46120222088926
H            5.88608114280274        4.23346588375623       -0.99131839246749
H            3.74956625941440        3.00814014746480       -0.86711199738166
H            3.36374855827862        2.39803211532350        1.60312976923064
H            1.29065831246495        3.40050550361479        2.51370038919576
H           -1.28222575127422        3.40132920963118        2.52164073727608
H           -3.36154016791330        2.41264592975222        1.61229260751253
H           -1.67264343863888       -0.70605637696520       -1.80035619671070
H           -1.91678160919436       -2.94523791636563       -2.80786514681639
H           -3.94741019053558       -4.28278312863594       -2.34620300858770
H           -5.69074576133788       -3.39641049840956       -0.89262203152601
H           -5.00323273505688       -2.08940277183035        2.17728726972098
H           -4.17563026036439       -0.54761402144894        1.97284040528555
H           -5.82560191020143       -0.58065223997073        2.60084027861321
H           -7.48950004048165       -1.67070077041312       -0.55163865415525
H           -7.73322210842190       -1.25279495064124        1.15303291499441
H           -6.90420960168474       -2.73676869204387        0.73668935050079
H           -7.97967777837106        0.67932563358896        0.23733142698784
H           -8.04106108205801        3.04829788803965       -0.33936168743301
H           -5.94964810802723        4.25445390104038       -0.87471664317323
H           -3.79704214990968        3.05211864760126       -0.81515143726332
H            1.64607303679135       -0.81319002927440       -1.70463856250048
H            1.89673254091960       -3.08270312972409       -2.63962705978995
H            3.95416594035844       -4.37877382898795       -2.17863229190113
H            5.71496107250071       -3.42319498356624       -0.79113149741195

          :  Hamiltonian                  GFN2-xTB          :
         :: gradient norm              0.000062321838 Eh/a0 ::
         :: HOMO-LUMO gap              2.120737213311 eV    ::
         :: SCC energy              -111.448534311634 Eh    ::
         :: -> dispersion             -0.104390939114 Eh    ::
         :: -> Gsolv                  -0.043614524341 Eh    ::
         :: repulsion energy           1.933294723062 Eh    ::

    * Orbital Energies and Occupations

         #    Occupation            Energy/Eh            Energy/eV
      -------------------------------------------------------------
         1        2.0000           -0.6726558             -18.3039
       ...           ...                  ...                  ...
        90        2.0000           -0.4138893             -11.2625
        91        2.0000           -0.4110132             -11.1842
        92        2.0000           -0.4094968             -11.1430
        93        2.0000           -0.4029366             -10.9645
        94        2.0000           -0.4024588             -10.9515
        95        2.0000           -0.3998796             -10.8813
        96        2.0000           -0.3997050             -10.8765
        97        2.0000           -0.3945477             -10.7362
        98        2.0000           -0.3941534             -10.7255
        99        2.0000           -0.3797749             -10.3342
       100        2.0000           -0.3651370              -9.9359
       101        2.0000           -0.3569654              -9.7135
       102        2.0000           -0.3535594              -9.6208 (HOMO)
       103                         -0.2756238              -7.5001 (LUMO)
       104                         -0.2424338              -6.5970
       105                         -0.2280778              -6.2063
       106                         -0.2278106              -6.1990
       107                         -0.2245164              -6.1094
       108                         -0.2226332              -6.0582
       109                         -0.2165598              -5.8929
       110                         -0.2163455              -5.8871
       111                         -0.2138331              -5.8187
       112                         -0.2127611              -5.7895
       113                         -0.1961591              -5.3378
       ...                                ...                  ...
       200                          0.6806454              18.5213
      -------------------------------------------------------------
                  HL-Gap            0.0779357 Eh            2.1207 eV

     #   Z          covCN         q      C6AA      α(0)
     1   6 C        3.758    -0.110    22.648     6.785
     2   6 C        3.911     0.022    20.150     6.380
     3   6 C        3.763    -0.099    22.429     6.751
     4   6 C        2.986    -0.007    28.179     8.708
     5   6 C        2.923    -0.039    28.970     8.827
     6   6 C        2.919    -0.039    28.961     8.825
     7   6 C        2.919    -0.034    28.851     8.808
     8   6 C        2.921    -0.048    29.188     8.860
     9   6 C        2.946     0.056    26.734     8.480
    10   7 N        2.759    -0.072    22.640     7.067
    11   6 C        2.892     0.164    24.469     8.110
    12   6 C        2.915    -0.070    29.752     8.945
    13   6 C        2.919    -0.028    28.693     8.784
    14   6 C        2.984    -0.036    28.897     8.818
    15   6 C        2.919    -0.028    28.692     8.784
    16   6 C        2.915    -0.071    29.759     8.945
    17   6 C        2.891     0.164    24.472     8.111
    18   7 N        2.759    -0.072    22.626     7.065
    19   6 C        2.940     0.061    26.630     8.463
    20   6 C        2.919    -0.049    29.226     8.865
    21   6 C        2.921    -0.034    28.837     8.806
    22   6 C        2.918    -0.039    28.979     8.828
    23   6 C        2.923    -0.042    29.035     8.837
    24   6 C        2.986    -0.010    28.261     8.720
    25   6 C        3.911     0.022    20.150     6.380
    26   6 C        3.762    -0.099    22.429     6.751
    27   6 C        3.758    -0.110    22.650     6.785
    28   6 C        2.986    -0.006    28.175     8.707
    29   6 C        2.923    -0.039    28.968     8.826
    30   6 C        2.919    -0.038    28.956     8.824
    31   6 C        2.919    -0.034    28.850     8.808
    32   6 C        2.921    -0.048    29.185     8.859
    33   6 C        2.946     0.056    26.739     8.481
    34   7 N        1.857    -0.298    28.576     7.923
    35   6 C        2.939     0.183    24.091     8.050
    36   7 N        1.856    -0.298    28.563     7.921
    37   6 C        2.939     0.061    26.633     8.464
    38   6 C        2.919    -0.051    29.260     8.870
    39   6 C        2.921    -0.034    28.841     8.807
    40   6 C        2.918    -0.040    28.986     8.829
    41   6 C        2.923    -0.042    29.038     8.837
    42   6 C        2.986    -0.010    28.268     8.721
    43   1 H        0.925     0.046     2.371     2.408
    44   1 H        0.925     0.046     2.375     2.410
    45   1 H        0.925     0.042     2.425     2.435
    46   1 H        0.925     0.028     2.616     2.530
    47   1 H        0.925     0.042     2.417     2.431
    48   1 H        0.925     0.042     2.425     2.435
    49   1 H        0.926     0.049     2.338     2.391
    50   1 H        0.926     0.038     2.476     2.461
    51   1 H        0.926     0.036     2.505     2.475
    52   1 H        0.926     0.026     2.642     2.542
    53   1 H        0.926     0.035     2.523     2.484
    54   1 H        0.925     0.033     2.548     2.496
    55   1 H        0.925     0.033     2.549     2.496
    56   1 H        0.926     0.035     2.519     2.482
    57   1 H        0.926     0.064     2.149     2.292
    58   1 H        0.926     0.036     2.509     2.477
    59   1 H        0.926     0.035     2.522     2.483
    60   1 H        0.926     0.045     2.388     2.416
    61   1 H        0.925     0.043     2.416     2.431
    62   1 H        0.925     0.028     2.617     2.530
    63   1 H        0.925     0.042     2.424     2.435
    64   1 H        0.925     0.042     2.423     2.434
    65   1 H        0.925     0.046     2.374     2.410
    66   1 H        0.925     0.046     2.370     2.407
    67   1 H        0.926     0.049     2.335     2.390
    68   1 H        0.926     0.038     2.473     2.459
    69   1 H        0.926     0.036     2.501     2.473
    70   1 H        0.926     0.027     2.632     2.537
    71   1 H        0.926     0.066     2.133     2.284
    72   1 H        0.926     0.035     2.513     2.479
    73   1 H        0.926     0.034     2.527     2.486
    74   1 H        0.926     0.044     2.392     2.419

molecular dipole:
                 x           y           z       tot (Debye)
 q only:       -0.041      -0.457       0.337
   full:       -0.037       0.309       0.898       2.416

 projected vibrational frequencies (cm⁻¹)
eigval :       -0.00    -0.00    -0.00     0.00     0.00     0.00
eigval :       10.55    13.70    28.69    36.97    57.02    60.21
eigval :       64.42    73.49    92.39   104.53   106.27   120.40
eigval :      128.21   137.65   147.55   170.02   177.94   197.20
eigval :      198.13   204.02   227.86   238.89   252.99   261.61
eigval :      273.06   280.84   283.59   285.24   306.43   311.42
eigval :      313.89   326.96   339.14   347.38   361.46   365.68
eigval :      379.45   396.32   408.83   409.58   409.93   412.58
eigval :      422.51   430.98   444.37   446.85   466.92   486.51
eigval :      488.12   501.53   505.50   537.99   539.39   555.66
eigval :      556.35   569.93   573.30   577.41   578.07   590.31
eigval :      597.01   617.45   626.75   649.86   655.09   667.33
eigval :      691.37   691.73   709.27   720.06   720.83   728.23
eigval :      741.38   773.05   774.77   780.64   783.35   794.26
eigval :      811.46   811.96   814.26   833.89   841.36   867.91
eigval :      871.78   880.71   881.84   888.32   905.79   906.36
eigval :      907.87   908.97   913.18   914.50   916.03   916.86
eigval :      922.76   923.88   925.79   932.12   941.46   941.58
eigval :      966.49   967.19   986.20  1008.52  1008.83  1032.44
eigval :     1071.89  1072.31  1085.36  1088.44  1100.79  1101.56
eigval :     1108.39  1108.97  1136.18  1136.38  1140.74  1149.94
eigval :     1150.84  1160.75  1171.43  1173.69  1180.48  1182.18
eigval :     1188.81  1189.46  1199.47  1200.08  1231.69  1232.67
eigval :     1238.80  1255.34  1256.03  1269.29  1269.94  1272.18
eigval :     1272.42  1279.42  1291.27  1300.72  1306.89  1322.05
eigval :     1322.85  1326.54  1326.67  1331.22  1360.71  1364.58
eigval :     1394.06  1394.19  1411.47  1411.61  1426.97  1433.61
eigval :     1437.34  1438.16  1440.36  1443.65  1454.01  1457.52
eigval :     1475.34  1478.72  1481.96  1490.20  1490.58  1492.17
eigval :     1492.46  1504.55  1504.60  1520.24  1521.09  1523.09
eigval :     1562.30  1575.63  1576.18  1584.18  1584.64  1587.38
eigval :     1587.53  1594.30  1597.92  1601.25  3023.40  3024.55
eigval :     3028.09  3028.32  3032.29  3033.22  3033.44  3033.76
eigval :     3043.55  3044.07  3047.92  3048.04  3048.87  3050.17
eigval :     3072.40  3072.53  3074.82  3075.25  3080.29  3080.37
eigval :     3086.98  3087.61  3091.36  3091.42  3094.81  3096.12
eigval :     3111.48  3111.98  3114.68  3115.14  3142.16  3146.33

   temp. (K)  partition function   enthalpy   heat capacity  entropy
                                   cal/mol     cal/K/mol   cal/K/mol   J/K/mol
 298.15  VIB  0.505E+14            19823.739    131.651    119.649
         ROT  0.508E+08              888.752      2.981     38.242
         INT  0.256E+22            20712.492    134.632    157.891
         TR   0.123E+29             1481.254      4.968     44.750
         TOT                       22193.7456   139.5999   202.6409   847.8494

       T/K    H(0)-H(T)+PV         H(T)/Eh          T*S/Eh         G(T)/Eh
   ------------------------------------------------------------------------
    298.15    0.353680E-01    0.625028E+00    0.962812E-01    0.528747E+00
   ------------------------------------------------------------------------

         :::::::::::::::::::::::::::::::::::::::::::::::::::::
         ::                  THERMODYNAMIC                  ::
         :::::::::::::::::::::::::::::::::::::::::::::::::::::
         :: total free energy        -108.986492393874 Eh   ::
         ::.................................................::
         :: total energy             -109.515239588574 Eh   ::
         :: zero point energy           0.589660426547 Eh   ::
         :: G(RRHO) w/o ZPVE           -0.060913231847 Eh   ::
         :: G(RRHO) contrib.            0.528747194700 Eh   ::
         :::::::::::::::::::::::::::::::::::::::::::::::::::::

           -------------------------------------------------
          | TOTAL ENERGY             -109.515239588574 Eh   |
          | TOTAL ENTHALPY           -108.890211177100 Eh   |
          | TOTAL FREE ENERGY        -108.986492393874 Eh   |
          | GRADIENT NORM               0.000062323245 Eh/α |
          | HOMO-LUMO GAP               2.120737217555 eV   |
           -------------------------------------------------

 * finished run on 2025/09/07 at 22:35:57.248
