   * xtb version 6.7.1 (edcfbbe) compiled by 'albert@albert-system' on 2024-07-22

   ID    Z sym.   atoms
    1    6 C      1-9, 11-17, 19-33, 35, 37-42
    2    7 N      10, 18, 34, 36
    3    1 H      43-74

          program call               : xtb data2507/toluene/DMAC-ND/DMAC-ND_toluene_S0_finalOpt.xtbopt.xyz --gfn 2 --uhf 2 --gbsa toluene --ohess vtight --parallel 40 --molden --ceasefiles --namespace data2507/toluene/DMAC-ND/DMAC-ND_toluene_T1_preOpt
      * Solvation model:               GBSA
        Solvent                        toluene
        Solvent mass                       9.2140E+01 g/mol
          :  Hamiltonian                  GFN2-xTB          :
 * total energy  :  -109.4304260 Eh     change       -0.4452758E-08 Eh
 * total energy  :  -109.4345071 Eh     change       -0.4081155E-02 Eh
 * total energy  :  -109.4360045 Eh     change       -0.1497367E-02 Eh
 * total energy  :  -109.4363017 Eh     change       -0.2972246E-03 Eh
 * total energy  :  -109.4365911 Eh     change       -0.2893651E-03 Eh
 * total energy  :  -109.4367031 Eh     change       -0.1120154E-03 Eh
 * total energy  :  -109.4368155 Eh     change       -0.1123730E-03 Eh
 * total energy  :  -109.4368895 Eh     change       -0.7406617E-04 Eh
 * total energy  :  -109.4369273 Eh     change       -0.3779434E-04 Eh
 * total energy  :  -109.4369622 Eh     change       -0.3484591E-04 Eh
 * total energy  :  -109.4384688 Eh     change       -0.8112292E-06 Eh
 * total energy  :  -109.4384696 Eh     change       -0.7987376E-06 Eh
 * total energy  :  -109.4384704 Eh     change       -0.7847096E-06 Eh
 * total energy  :  -109.4384712 Eh     change       -0.7720040E-06 Eh
 * total energy  :  -109.4384720 Eh     change       -0.7582067E-06 Eh
 * total energy  :  -109.4384727 Eh     change       -0.7456554E-06 Eh
 * total energy  :  -109.4384734 Eh     change       -0.7334016E-06 Eh
 * total energy  :  -109.4384742 Eh     change       -0.7223322E-06 Eh
 * total energy  :  -109.4384742 Eh     change       -0.7034274E-08 Eh
   *** GEOMETRY OPTIMIZATION CONVERGED AFTER 260 ITERATIONS ***

 final structure:
================
74
 xtb: 6.7.1 (edcfbbe)
C            7.40754824221353       -1.41754438208707        0.51648725226356
C            6.01836444648402       -0.78443325784103        0.60265791002936
C            5.74254484917509       -0.42796510638914        2.08137673477062
C            5.90462605126004        0.48793489271103       -0.21089077754646
C            6.99008486894699        1.21830230592118       -0.66854417161937
C            6.81660221656040        2.41453308926712       -1.34504172689567
C            5.53968793634176        2.89604763169252       -1.58636103066684
C            4.44384432087000        2.17813921070998       -1.15562745078911
C            4.61559563508835        0.97914183576653       -0.46134822626905
N            3.50280518160373        0.22656719839562       -0.08579347980610
C            2.33028754948141        0.88661854496338        0.28356574813765
C            2.41936265335554        2.01842235754217        1.08520760011842
C            1.24940492931586        2.63766520656023        1.51045561070019
C            0.00092918233724        2.10294676638214        1.16138548568663
C           -1.24802414623471        2.63371026041341        1.51480989617730
C           -2.41747427187028        2.01065186491026        1.09377600056312
C           -2.32760480411100        0.87905291787330        0.29194067196453
N           -3.49931217379899        0.21518651633862       -0.07319106607106
C           -3.63531562224535       -1.17693772270037       -0.09002778188073
C           -2.55541142205598       -2.00486351001420       -0.38878147654678
C           -2.72966817954561       -3.37093488283270       -0.48057001648234
C           -3.98292017385915       -3.92252661775682       -0.27559450948771
C           -5.05311647687642       -3.10414948380137        0.04746341905274
C           -4.90173562322204       -1.73131011975672        0.16037358558340
C           -6.00955948954950       -0.80371664754253        0.62325585914672
C           -5.73048333383990       -0.44607514250535        2.10108018719123
C           -7.39695620387712       -1.44129857533780        0.54135905844197
C           -5.90234916182560        0.46888307777635       -0.19080741410819
C           -6.99154429579101        1.19576835230932       -0.64510810946108
C           -6.82399489407058        2.39257621485075       -1.32208225448559
C           -5.54938075232353        2.87816092941523       -1.56735733672055
C           -4.44991999649895        2.16370521860973       -1.14011912890361
C           -4.61566636709071        0.96416991442007       -0.44529983427115
N           -1.13775278941110        0.38470307218794       -0.08417811533687
C            0.00134905995666        0.92331378544293        0.32853867197082
N            1.14070926148402        0.38841205256692       -0.08828111606527
C            3.64319926582397       -1.16512121792262       -0.10350927356171
C            2.56506764336490       -1.99639073331795       -0.39933143333257
C            2.74341671667598       -3.36187984839007       -0.49197481399601
C            3.99902427292118       -3.90951314247283       -0.29085048980050
C            5.06757074761335       -3.08781610612334        0.02922454339105
C            4.91213692104175       -1.71549270641331        0.14290584812483
H            7.45436550706890       -2.30610454975157        1.13999016393043
H            8.15775590861264       -0.72568790541164        0.88977583639988
H            7.64933367116372       -1.68714857059204       -0.50902401686417
H            5.78607656439989       -1.32623457321839        2.69346355624541
H            6.48859713092204        0.27893658048006        2.43856165770720
H            4.75807640596353        0.01868342420691        2.20057089559021
H            7.99277044381418        0.86400483215197       -0.49539010772574
H            7.67831091979961        2.96919605234119       -1.68432734503792
H            5.39684499340491        3.82312134971654       -2.12108561657268
H            3.44305956544746        2.52810746318243       -1.36237158796846
H            3.38526749428584        2.37972226439273        1.40363546536513
H            1.29385792606873        3.51732209147308        2.13469774295770
H           -1.29309809830618        3.51328726859817        2.13911856860805
H           -3.38341411441212        2.36890903467257        1.41552236803759
H           -1.58863654218854       -1.55443240167107       -0.54868783523587
H           -1.88620286434430       -4.00236139631856       -0.71644269882375
H           -4.12757319511471       -4.98999387567950       -0.35015653362721
H           -6.01456534561187       -3.55874043391329        0.22053601991461
H           -5.76919075293449       -1.34438048358025        2.71344022226179
H           -4.74715357542706        0.00387030919085        2.21723807645505
H           -6.47780394418974        0.25840793561177        2.46038990528661
H           -7.64095122562977       -1.71185494396107       -0.48337771345128
H           -8.14825224154342       -0.75178021291280        0.91677319204743
H           -7.43906664814835       -2.32989555776813        1.16514669462448
H           -7.99254819173850        0.83826132632469       -0.46885321021104
H           -7.68854608446681        2.94449932549908       -1.65859297184251
H           -5.41113211986313        3.80572133239493       -2.10244183865377
H           -3.45092865096745        2.51685973570374       -1.35006633484209
H            1.59638172402624       -1.54901035817139       -0.55619271630064
H            1.90130046365899       -3.99595450018268       -0.72555067116836
H            4.14685858565818       -4.97649375040287       -0.36612624632479
H            6.03098109068684       -3.53937586674523        0.19929915961117

          :  Hamiltonian                  GFN2-xTB          :
         :: gradient norm              0.000068310155 Eh/a0 ::
         :: HOMO-LUMO gap              1.033958417344 eV    ::
         :: SCC energy              -111.361738348144 Eh    ::
         :: -> dispersion             -0.104193803133 Eh    ::
         :: -> Gsolv                  -0.044506994979 Eh    ::
         :: repulsion energy           1.923264177065 Eh    ::

    * Orbital Energies and Occupations

         #    Occupation            Energy/Eh            Energy/eV
      -------------------------------------------------------------
         1        2.0000           -0.6740390             -18.3415
       ...           ...                  ...                  ...
        91        2.0000           -0.4108841             -11.1807
        92        2.0000           -0.4068893             -11.0720
        93        2.0000           -0.4051135             -11.0237
        94        2.0000           -0.4027079             -10.9582
        95        2.0000           -0.4025353             -10.9535
        96        2.0000           -0.3988807             -10.8541
        97        2.0000           -0.3984190             -10.8415
        98        2.0000           -0.3951272             -10.7520
        99        2.0000           -0.3867263             -10.5234
       100        1.9991           -0.3631713              -9.8824
       101        1.9898           -0.3608645              -9.8196
       102        1.0111           -0.3522530              -9.5853
       103        1.0000           -0.2760673              -7.5122 (HOMO)
       104                         -0.2380701              -6.4782 (LUMO)
       105                         -0.2292738              -6.2389
       106                         -0.2280675              -6.2060
       107                         -0.2279400              -6.2026
       108                         -0.2276602              -6.1949
       109                         -0.2206926              -6.0054
       110                         -0.2206564              -6.0044
       111                         -0.2108280              -5.7369
       112                         -0.2090137              -5.6876
       113                         -0.1949043              -5.3036
       114                         -0.1516775              -4.1274
       ...                                ...                  ...
       200                          0.6818212              18.5533
      -------------------------------------------------------------
                  HL-Gap            0.0379973 Eh            1.0340 eV

     #   Z          covCN         q      C6AA      α(0)
     1   6 C        3.758    -0.111    22.669     6.788
     2   6 C        3.910     0.022    20.141     6.379
     3   6 C        3.764    -0.099    22.438     6.752
     4   6 C        2.984    -0.007    28.177     8.707
     5   6 C        2.922    -0.038    28.957     8.825
     6   6 C        2.918    -0.038    28.935     8.821
     7   6 C        2.918    -0.033    28.819     8.803
     8   6 C        2.921    -0.046    29.154     8.854
     9   6 C        2.943     0.058    26.696     8.474
    10   7 N        2.756    -0.056    22.329     7.018
    11   6 C        2.879     0.137    25.007     8.198
    12   6 C        2.913    -0.067    29.671     8.932
    13   6 C        2.919    -0.069    29.720     8.940
    14   6 C        2.975    -0.011    28.278     8.723
    15   6 C        2.919    -0.069    29.720     8.940
    16   6 C        2.913    -0.067    29.671     8.932
    17   6 C        2.879     0.137    25.007     8.198
    18   7 N        2.756    -0.056    22.328     7.018
    19   6 C        2.934     0.061    26.629     8.463
    20   6 C        2.920    -0.053    29.329     8.881
    21   6 C        2.919    -0.032    28.807     8.802
    22   6 C        2.918    -0.038    28.938     8.821
    23   6 C        2.923    -0.040    29.001     8.831
    24   6 C        2.984    -0.009    28.226     8.715
    25   6 C        3.910     0.022    20.141     6.379
    26   6 C        3.764    -0.099    22.438     6.752
    27   6 C        3.758    -0.111    22.669     6.788
    28   6 C        2.984    -0.007    28.177     8.707
    29   6 C        2.922    -0.038    28.957     8.825
    30   6 C        2.918    -0.038    28.935     8.821
    31   6 C        2.918    -0.033    28.819     8.803
    32   6 C        2.921    -0.046    29.154     8.854
    33   6 C        2.943     0.058    26.696     8.474
    34   7 N        1.853    -0.282    28.172     7.867
    35   6 C        2.901     0.189    23.977     8.029
    36   7 N        1.853    -0.282    28.172     7.867
    37   6 C        2.934     0.061    26.629     8.463
    38   6 C        2.920    -0.053    29.329     8.881
    39   6 C        2.919    -0.032    28.807     8.802
    40   6 C        2.918    -0.038    28.938     8.821
    41   6 C        2.923    -0.040    29.001     8.831
    42   6 C        2.984    -0.009    28.227     8.715
    43   1 H        0.925     0.048     2.351     2.398
    44   1 H        0.925     0.047     2.354     2.399
    45   1 H        0.925     0.043     2.413     2.429
    46   1 H        0.925     0.044     2.392     2.418
    47   1 H        0.925     0.044     2.396     2.421
    48   1 H        0.925     0.029     2.598     2.521
    49   1 H        0.926     0.050     2.317     2.381
    50   1 H        0.926     0.039     2.456     2.451
    51   1 H        0.926     0.037     2.489     2.467
    52   1 H        0.926     0.028     2.608     2.525
    53   1 H        0.926     0.026     2.639     2.541
    54   1 H        0.926     0.025     2.655     2.548
    55   1 H        0.926     0.025     2.655     2.548
    56   1 H        0.926     0.026     2.639     2.541
    57   1 H        0.926     0.068     2.109     2.271
    58   1 H        0.926     0.037     2.494     2.470
    59   1 H        0.926     0.038     2.481     2.463
    60   1 H        0.926     0.048     2.348     2.396
    61   1 H        0.925     0.044     2.392     2.418
    62   1 H        0.925     0.029     2.598     2.521
    63   1 H        0.925     0.044     2.396     2.421
    64   1 H        0.925     0.043     2.413     2.429
    65   1 H        0.925     0.047     2.354     2.399
    66   1 H        0.925     0.048     2.350     2.398
    67   1 H        0.926     0.050     2.317     2.381
    68   1 H        0.926     0.039     2.456     2.451
    69   1 H        0.926     0.037     2.489     2.467
    70   1 H        0.926     0.028     2.608     2.525
    71   1 H        0.926     0.068     2.109     2.271
    72   1 H        0.926     0.037     2.494     2.470
    73   1 H        0.926     0.038     2.481     2.463
    74   1 H        0.926     0.048     2.348     2.396

molecular dipole:
                 x           y           z       tot (Debye)
 q only:        0.001      -0.964       0.161
   full:        0.001      -0.317       0.539       1.588

 projected vibrational frequencies (cm⁻¹)
eigval :       -0.00     0.00     0.00     0.00     0.00     0.00
eigval :       11.44    13.53    31.34    31.93    53.06    56.09
eigval :       63.02    69.75    96.98    98.02   101.69   114.56
eigval :      123.49   139.31   143.10   172.01   172.32   196.03
eigval :      205.47   206.09   224.76   226.16   242.66   267.30
eigval :      272.55   272.82   279.14   279.54   298.21   301.77
eigval :      311.83   317.18   338.93   353.05   367.87   368.07
eigval :      382.03   386.38   402.44   404.60   411.56   412.68
eigval :      419.99   442.44   443.05   449.20   470.75   485.78
eigval :      485.96   498.89   503.94   526.66   527.91   545.12
eigval :      549.07   553.45   553.93   573.60   575.95   582.22
eigval :      583.26   594.44   616.40   620.17   648.46   661.19
eigval :      688.62   689.17   692.70   706.93   714.74   716.29
eigval :      723.25   735.82   754.19   769.46   771.26   774.87
eigval :      776.06   786.99   813.50   813.75   828.04   830.86
eigval :      842.51   853.72   870.52   873.28   873.51   874.04
eigval :      904.66   904.81   905.87   906.86   911.39   911.87
eigval :      920.18   920.31   921.99   924.56   937.87   937.94
eigval :      964.85   966.46   977.76  1007.48  1007.56  1027.15
eigval :     1073.09  1073.34  1084.90  1092.29  1097.55  1098.86
eigval :     1106.18  1106.84  1110.27  1126.38  1133.13  1135.34
eigval :     1146.37  1146.61  1164.25  1169.42  1178.15  1179.61
eigval :     1184.74  1185.11  1197.06  1198.00  1220.63  1231.61
eigval :     1233.14  1249.84  1252.69  1268.34  1269.37  1270.26
eigval :     1271.94  1278.76  1288.01  1288.20  1302.94  1307.22
eigval :     1317.35  1317.76  1321.78  1323.89  1329.24  1329.52
eigval :     1355.21  1386.81  1393.20  1393.24  1409.60  1410.02
eigval :     1410.31  1424.38  1425.44  1431.34  1433.06  1449.57
eigval :     1450.46  1463.47  1467.40  1472.94  1488.44  1488.61
eigval :     1488.85  1489.56  1497.69  1502.69  1502.73  1513.70
eigval :     1522.18  1522.80  1560.60  1560.95  1569.54  1570.09
eigval :     1576.23  1576.51  1588.04  1589.66  3025.62  3025.70
eigval :     3027.96  3028.00  3035.59  3035.63  3036.23  3036.28
eigval :     3038.97  3039.11  3051.53  3051.76  3070.05  3072.92
eigval :     3077.23  3077.42  3077.47  3077.66  3083.48  3083.70
eigval :     3084.59  3085.98  3087.02  3087.85  3093.00  3093.49
eigval :     3096.42  3098.36  3114.33  3114.74  3115.83  3116.29

   temp. (K)  partition function   enthalpy   heat capacity  entropy
                                   cal/mol     cal/K/mol   cal/K/mol   J/K/mol
 298.15  VIB  0.841E+14            20086.723    133.058    121.208
         ROT  0.520E+08              888.752      2.981     38.289
         INT  0.437E+22            20975.475    136.039    159.497
         TR   0.123E+29             1481.254      4.968     44.750
         TOT                       22456.7293   141.0072   204.2477   854.5725

       T/K    H(0)-H(T)+PV         H(T)/Eh          T*S/Eh         G(T)/Eh
   ------------------------------------------------------------------------
    298.15    0.357871E-01    0.621622E+00    0.970447E-01    0.524577E+00
   ------------------------------------------------------------------------

         :::::::::::::::::::::::::::::::::::::::::::::::::::::
         ::                  THERMODYNAMIC                  ::
         :::::::::::::::::::::::::::::::::::::::::::::::::::::
         :: total free energy        -108.913896829182 Eh   ::
         ::.................................................::
         :: total energy             -109.438474171469 Eh   ::
         :: zero point energy           0.585834958145 Eh   ::
         :: G(RRHO) w/o ZPVE           -0.061257615858 Eh   ::
         :: G(RRHO) contrib.            0.524577342287 Eh   ::
         :::::::::::::::::::::::::::::::::::::::::::::::::::::

           -------------------------------------------------
          | TOTAL ENERGY             -109.438474171469 Eh   |
          | TOTAL ENTHALPY           -108.816852137220 Eh   |
          | TOTAL FREE ENERGY        -108.913896829182 Eh   |
          | GRADIENT NORM               0.000068351379 Eh/α |
          | HOMO-LUMO GAP               1.033958217058 eV   |
           -------------------------------------------------

 * finished run on 2025/09/07 at 22:39:30.215
