   * xtb version 6.7.1 (edcfbbe) compiled by 'albert@albert-system' on 2024-07-22

   ID    Z sym.   atoms
    1    8 O      1
    2    6 C      2-12, 14-17, 19-35, 37-53
    3    7 N      13, 18, 36
    4    1 H      54-88

          program call               : xtb data2507/gas/CCDD/CCDD_gas_T1_crest.xyz --gfn 2 --spinpol --tblite --uhf 2 --ohess vtight --parallel 40 --molden --ceasefiles --namespace data2507/gas/CCDD/CCDD_gas_T1_finalOpt
 * total energy  :  -135.5596660 Eh     change       -0.3658926E-07 Eh
 * total energy  :  -135.5598564 Eh     change       -0.1903470E-03 Eh
 * total energy  :  -135.5599577 Eh     change       -0.1013362E-03 Eh
 * total energy  :  -135.5599665 Eh     change       -0.8838957E-05 Eh
 * total energy  :  -135.5599747 Eh     change       -0.8192102E-05 Eh
 * total energy  :  -135.5599832 Eh     change       -0.8448887E-05 Eh
 * total energy  :  -135.5599970 Eh     change       -0.1387272E-04 Eh
 * total energy  :  -135.5600106 Eh     change       -0.1356389E-04 Eh
 * total energy  :  -135.5600164 Eh     change       -0.5779171E-05 Eh
 * total energy  :  -135.5600193 Eh     change       -0.2895056E-05 Eh
 * total energy  :  -135.5600393 Eh     change       -0.1267276E-05 Eh
 * total energy  :  -135.5600401 Eh     change       -0.8227582E-06 Eh
 * total energy  :  -135.5600405 Eh     change       -0.3959499E-06 Eh
 * total energy  :  -135.5600413 Eh     change       -0.7459819E-06 Eh
 * total energy  :  -135.5600416 Eh     change       -0.2864925E-06 Eh
 * total energy  :  -135.5600420 Eh     change       -0.4636237E-06 Eh
 * total energy  :  -135.5600423 Eh     change       -0.2746447E-06 Eh
 * total energy  :  -135.5600423 Eh     change       -0.3609591E-07 Eh
 * total energy  :  -135.5600424 Eh     change       -0.9044820E-07 Eh
   *** GEOMETRY OPTIMIZATION CONVERGED AFTER 28 ITERATIONS ***

 final structure:
================
88
 xtb: 6.7.1 (edcfbbe)
O            6.70924011967864        3.49340063034085        1.60830110590667
C            6.51119562580355        2.42446629569452        0.96449703272934
C            7.66444052132374        1.69885946771092        0.41259417342067
C            7.70536890705455        0.30252782073416        0.35020587060528
C            8.82367969058150       -0.33771999112282       -0.14478296263900
C            9.92245070848654        0.39234397886894       -0.57337077313202
C            9.90349534578667        1.77617856944799       -0.47946992386463
C            8.79335382933845        2.42546904644543        0.01786120686160
C            5.17894481926431        1.92708773925959        0.75552080812219
C            4.13229292008664        2.45931279303338        1.54896522973498
C            2.84041734759166        2.03983888097065        1.39345843859397
C            2.51911042021540        1.08578095485816        0.41692407026852
N            1.20023274104459        0.64177175786188        0.25766200920380
C            0.08558627610523        1.43934555810124        0.15998867957506
C           -0.02320005791980        2.82513272099223        0.15535269233141
C           -1.27710347307973        3.38255148621551        0.03743606016766
C           -2.43007111098023        2.58580328710358       -0.08909039211416
N           -3.68517328906060        3.18913480127067       -0.19059690581988
C           -4.80289807579796        2.57878684742696        0.38706981419803
C           -4.69152161523393        1.90343997480576        1.60337563347808
C           -5.79744046528757        1.29712325299042        2.16546624974541
C           -7.02926869057087        1.35878371685000        1.53383745631231
C           -7.14666745609817        2.03279702469747        0.32895197660066
C           -6.04538679113041        2.63629169334490       -0.24569870617670
C           -3.83175238750734        4.39898632033527       -0.87867398255965
C           -3.09900104204654        4.64454009438831       -2.04024229907181
C           -3.24602224970043        5.84143241536829       -2.71335534752340
C           -4.12529608817519        6.80548552165032       -2.24714874086852
C           -4.85770338207875        6.56471456121660       -1.09577622841759
C           -4.71340841518653        5.37389442144481       -0.41135537453796
C           -2.32056635009724        1.19685928879798       -0.12000214895309
C           -1.06732504699519        0.62410324388179        0.00180849271354
C           -0.60422367573427       -0.73259980296287        0.00263624967622
C           -1.24557339464125       -1.95395713490624       -0.10575895066164
C           -0.48688153132795       -3.11949727461471       -0.02119620759880
N           -1.10645948888909       -4.36744007158832       -0.11736854422986
C           -2.38509339659277       -4.55820566913557        0.41598600930817
C           -2.75739700645902       -3.92926960790908        1.60490573622362
C           -4.02390722966454       -4.11564719606732        2.12253198829058
C           -4.93465290603052       -4.93365701882516        1.47330307587949
C           -4.56819474894402       -5.56507004342733        0.29566506315416
C           -3.30665600625871       -5.37944717752709       -0.23478775724279
C           -0.45100818700568       -5.42783050022861       -0.75265509468161
C            0.33261892310552       -5.19725488200892       -1.88385040049225
C            0.98134239090977       -6.24640322666572       -2.50470382389191
C            0.85606967616568       -7.53688775383137       -2.01596634491699
C            0.07622061753407       -7.77144425963333       -0.89487179031069
C           -0.57166764562842       -6.72846826942723       -0.26261055060619
C            0.90426974846913       -3.04501897379579        0.17758328685274
C            1.55636663594054       -1.83590541776765        0.27238213535699
C            0.80478187378624       -0.67140100844881        0.16959138751824
C            3.53379248022833        0.59169564065457       -0.41441063467487
C            4.82990180512525        1.00821508477030       -0.25938561208494
H            6.87459258133824       -0.27847788964005        0.72311725629954
H            8.84446430874675       -1.41791904981586       -0.18654613368359
H           10.79290491876858       -0.11550125622670       -0.96210209782924
H           10.76307579718702        2.35040723656277       -0.79487349672148
H            8.77089220056995        3.50160944284700        0.10004013203393
H            4.39408276489467        3.18641332444170        2.30227953420754
H            2.06190661354175        2.41304968486745        2.04328481377292
H            0.84920081594096        3.45292929159692        0.24326657416710
H           -1.38648777618697        4.45615710315123        0.05135482393497
H           -3.73548548891183        1.86643148980345        2.10435924391188
H           -5.69849936579551        0.78049687851363        3.10857499989957
H           -7.89177653731496        0.88597653019925        1.97789823984683
H           -8.10180769300585        2.08201686042673       -0.17245044482923
H           -6.13657191229888        3.14980350552422       -1.19151630128108
H           -2.42244779280925        3.88858591036055       -2.41071529177481
H           -2.67563565422941        6.01920454570240       -3.61279830753505
H           -4.23879197866490        7.73852307420790       -2.77735461826313
H           -5.54046616697259        7.31338958528245       -0.72250011601104
H           -5.27538290044914        5.19224233625254        0.49301702989521
H           -3.19816162007469        0.58168985878973       -0.24909829591617
H           -2.31316263916568       -2.00513449206157       -0.25662417803453
H           -2.04413140914414       -3.30272799654486        2.11981194989188
H           -4.29864103099976       -3.62553750411644        3.04473362994841
H           -5.92258044300525       -5.07884470236126        1.88265919430865
H           -5.27311815465559       -6.20070835926401       -0.21928375420866
H           -3.02761534152627       -5.86209268584832       -1.15988045381966
H            0.42082157512978       -4.19341318320522       -2.27235575320183
H            1.58254794964844       -6.05605056554395       -3.38125793907338
H            1.36299554444809       -8.35431323004521       -2.50527309388079
H           -0.02152901798495       -8.77330280418738       -0.50402149854345
H           -1.16882002720417       -6.91077089376352        0.61878363884563
H            1.46378504114284       -3.96296283840729        0.27424542629625
H            2.61985043175489       -1.79713715312281        0.44844154545484
H            3.27411376118598       -0.09261390140117       -1.21002409241669
H            5.58382271719690        0.65981221819189       -0.94848935485125

 projected vibrational frequencies (cm⁻¹)
eigval :       -0.00    -0.00     0.00     0.00     0.00     0.00
eigval :       10.05    12.52    13.03    15.37    23.45    23.73
eigval :       33.99    38.94    43.01    48.28    54.97    57.41
eigval :       60.16    67.18    71.17    81.87    84.02    94.41
eigval :      100.75   114.60   128.66   136.36   157.95   169.80
eigval :      194.89   197.14   216.57   224.21   226.06   235.23
eigval :      245.72   251.82   260.51   283.16   306.29   310.74
eigval :      316.32   320.01   326.97   348.75   352.97   368.31
eigval :      373.79   377.31   377.39   382.29   383.35   391.88
eigval :      400.41   404.85   407.91   426.71   429.31   449.07
eigval :      459.45   465.49   471.57   495.34   498.15   507.56
eigval :      529.52   547.64   555.33   559.17   566.88   580.02
eigval :      583.73   585.68   587.85   589.70   592.32   597.27
eigval :      606.85   607.48   622.75   632.73   640.07   653.63
eigval :      659.41   660.64   661.90   664.80   668.37   675.22
eigval :      698.49   705.07   706.41   742.95   753.11   756.49
eigval :      756.81   757.24   759.61   801.84   802.41   820.03
eigval :      822.33   845.50   864.07   865.45   867.55   872.44
eigval :      872.86   874.68   874.76   879.48   884.71   889.98
eigval :      893.71   894.01   895.81   896.16   901.74   905.64
eigval :      909.18   909.67   915.98   919.70   920.87   927.01
eigval :      927.40   927.69   928.44   928.49   928.91   929.30
eigval :      929.42   930.29   938.74   945.91   969.86   980.89
eigval :      988.96  1000.27  1002.93  1004.20  1010.35  1032.47
eigval :     1078.02  1081.96  1082.19  1083.10  1083.17  1117.31
eigval :     1121.21  1121.34  1122.57  1123.29  1125.56  1132.28
eigval :     1147.56  1166.02  1167.80  1168.02  1178.31  1178.85
eigval :     1178.92  1179.17  1179.44  1181.78  1188.23  1192.87
eigval :     1193.37  1197.12  1200.76  1207.30  1226.16  1231.77
eigval :     1243.26  1250.05  1257.82  1274.12  1276.29  1276.75
eigval :     1277.70  1279.29  1283.71  1301.43  1309.63  1313.69
eigval :     1317.50  1319.37  1319.54  1324.96  1326.69  1326.77
eigval :     1330.96  1353.70  1357.69  1371.11  1387.38  1419.92
eigval :     1420.63  1425.50  1430.15  1433.02  1433.53  1441.56
eigval :     1442.03  1447.20  1452.44  1454.68  1465.74  1466.44
eigval :     1466.99  1467.72  1469.29  1485.09  1540.00  1547.91
eigval :     1550.03  1554.06  1566.32  1571.39  1573.36  1573.94
eigval :     1577.59  1577.63  1586.21  1588.28  1588.64  1593.35
eigval :     1594.30  3062.95  3068.31  3068.79  3073.08  3079.30
eigval :     3079.63  3079.78  3080.22  3080.43  3080.73  3081.00
eigval :     3081.18  3081.45  3085.64  3088.73  3088.90  3089.47
eigval :     3089.67  3090.67  3092.06  3092.23  3092.58  3092.82
eigval :     3093.20  3093.50  3094.33  3095.21  3097.00  3099.05
eigval :     3100.29  3100.68  3100.93  3101.45  3104.34  3107.40

   temp. (K)  partition function   enthalpy   heat capacity  entropy
                                   cal/mol     cal/K/mol   cal/K/mol   J/K/mol
 298.15  VIB  0.604E+21            25455.700    158.736    160.078
         ROT  0.150E+09              888.752      2.981     40.394
         INT  0.906E+29            26344.452    161.717    200.471
         TR   0.172E+29             1481.254      4.968     45.419
         TOT                       27825.7064   166.6855   245.8908  1028.8069

       T/K    H(0)-H(T)+PV         H(T)/Eh          T*S/Eh         G(T)/Eh
   ------------------------------------------------------------------------
    298.15    0.443431E-01    0.722401E+00    0.116831E+00    0.605571E+00
   ------------------------------------------------------------------------

         :::::::::::::::::::::::::::::::::::::::::::::::::::::
         ::                  THERMODYNAMIC                  ::
         :::::::::::::::::::::::::::::::::::::::::::::::::::::
         :: total free energy        -134.954471702749 Eh   ::
         ::.................................................::
         :: total energy             -135.560042511329 Eh   ::
         :: zero point energy           0.678058358530 Eh   ::
         :: G(RRHO) w/o ZPVE           -0.072487549950 Eh   ::
         :: G(RRHO) contrib.            0.605570808580 Eh   ::
         :::::::::::::::::::::::::::::::::::::::::::::::::::::

           -------------------------------------------------
          | TOTAL ENERGY             -135.560042511329 Eh   |
          | TOTAL ENTHALPY           -134.837641067060 Eh   |
          | TOTAL FREE ENERGY        -134.954471702749 Eh   |
          | GRADIENT NORM               0.000130900182 Eh/α |
           -------------------------------------------------

 * finished run on 2025/09/12 at 20:01:10.121
