   * xtb version 6.7.1 (edcfbbe) compiled by 'albert@albert-system' on 2024-07-22

   ID    Z sym.   atoms
    1    8 O      1
    2    6 C      2-12, 14-17, 19-35, 37-53
    3    7 N      13, 18, 36
    4    1 H      54-88

          program call               : xtb data2507/gas/CCDD/CCDD_gas_S0_finalOpt.xtbopt.xyz --gfn 2 --spinpol --tblite --uhf 2 --ohess vtight --parallel 40 --molden --ceasefiles --namespace data2507/gas/CCDD/CCDD_gas_T1_preOpt
 * total energy  :  -135.5553786 Eh     change        0.7710153E-07 Eh
 * total energy  :  -135.5580078 Eh     change       -0.2629197E-02 Eh
 * total energy  :  -135.5589196 Eh     change       -0.9117738E-03 Eh
 * total energy  :  -135.5590941 Eh     change       -0.1745404E-03 Eh
 * total energy  :  -135.5592352 Eh     change       -0.1410903E-03 Eh
 * total energy  :  -135.5593420 Eh     change       -0.1067996E-03 Eh
 * total energy  :  -135.5594553 Eh     change       -0.1133666E-03 Eh
 * total energy  :  -135.5595468 Eh     change       -0.9141212E-04 Eh
 * total energy  :  -135.5596077 Eh     change       -0.6097146E-04 Eh
 * total energy  :  -135.5596588 Eh     change       -0.5108946E-04 Eh
 * total energy  :  -135.5600328 Eh     change       -0.3422223E-06 Eh
 * total energy  :  -135.5600330 Eh     change       -0.2596960E-06 Eh
 * total energy  :  -135.5600333 Eh     change       -0.2534213E-06 Eh
 * total energy  :  -135.5600335 Eh     change       -0.2221690E-06 Eh
 * total energy  :  -135.5600337 Eh     change       -0.1608598E-06 Eh
 * total energy  :  -135.5600339 Eh     change       -0.1903669E-06 Eh
 * total energy  :  -135.5600340 Eh     change       -0.1221945E-06 Eh
 * total energy  :  -135.5600342 Eh     change       -0.1728663E-06 Eh
 * total energy  :  -135.5600342 Eh     change       -0.7086760E-07 Eh
   *** GEOMETRY OPTIMIZATION CONVERGED AFTER 92 ITERATIONS ***

 final structure:
================
88
 xtb: 6.7.1 (edcfbbe)
O            6.69203135409238        3.50158908784222        1.63850276682949
C            6.50027282089425        2.43166399857466        0.99444330971586
C            7.65932236373146        1.70088946688132        0.46235424553318
C            7.69503519963663        0.30434854408831        0.39955601281417
C            8.81965603834022       -0.34071065063180       -0.07434395285166
C            9.92999135587051        0.38445722232180       -0.48100554863728
C            9.91562087694175        1.76830243586438       -0.38642348759616
C            8.79910798094921        2.42241784233213        0.08980175940364
C            5.16940450266316        1.93724665007688        0.76896934842762
C            4.11480445346575        2.47046161988390        1.55093006601813
C            2.82468007077539        2.05031535647106        1.38307711477359
C            2.51321378862203        1.09526500172774        0.40427256421971
N            1.19684527764774        0.64617587859524        0.23829340415266
C            0.07867961062112        1.43910083515079        0.14245799830458
C           -0.03511199173281        2.82449843388508        0.13116378869785
C           -1.29163284914211        3.37672037390843        0.01631047371883
C           -2.44226157530686        2.57484569422578       -0.09787256921434
N           -3.70078143670828        3.17310527449924       -0.19242167320271
C           -4.80781190615076        2.56825437775470        0.41057428622112
C           -4.67464903460245        1.90809879700209        1.63308520166153
C           -5.76984741850432        1.30760630337071        2.22171438231502
C           -7.01241947673842        1.35982966588162        1.61061361678807
C           -7.15128277219951        2.01808882534697        0.39930319357086
C           -6.06094898335279        2.61573598780810       -0.20175391704675
C           -3.85853494711309        4.37202772266116       -0.89653188774627
C           -3.13846696095879        4.60171128873758       -2.06926646725761
C           -3.29617310769183        5.78748313593257       -2.75939596351806
C           -4.17333114346235        6.75621770137427       -2.29894985213515
C           -4.89258749125150        6.53149401085016       -1.13608522488500
C           -4.73777997587662        5.35182599878270       -0.43486785441277
C           -2.32812106185810        1.18634991643833       -0.12291789396570
C           -1.07182642530043        0.61883564759554       -0.00727996033993
C           -0.60327039883461       -0.73588223355569       -0.00612361120620
C           -1.24040082387561       -1.95986688056707       -0.11045075168807
C           -0.47621847410333       -3.12205560056111       -0.03183188014828
N           -1.09109025937204       -4.37276791400091       -0.12605902007091
C           -2.36046099426874       -4.57208772482175        0.42549895385479
C           -2.71799179260715       -3.94790597030399        1.62147708977420
C           -3.97501167719700       -4.14319746209093        2.15853382633865
C           -4.89086065576221       -4.96529482581877        1.52177039031203
C           -4.53929625590659       -5.59134158473367        0.33673587184535
C           -3.28741294469868       -5.39688007171655       -0.21306162602946
C           -0.43900190199606       -5.42554881217657       -0.77683349085895
C            0.32982702933155       -5.18274170973138       -1.91564500415962
C            0.97502642434821       -6.22420294241608       -2.55287508124714
C            0.86103192987280       -7.51905095255746       -2.07301806833757
C            0.09641059562868       -7.76566701978765       -0.94403349477934
C           -0.54781538634127       -6.73049318453917       -0.29545203455479
C            0.91568047063268       -3.04210641783368        0.15860747225990
C            1.56316932754027       -1.83037261869634        0.25194358825863
C            0.80634942942553       -0.66885247117593        0.15371279877776
C            3.53581041675953        0.60294437883575       -0.41831831957010
C            4.83036119751419        1.01960244109652       -0.25035611021473
H            6.85472986463605       -0.27315312213610        0.75618615257298
H            8.83625515086104       -1.42097781837956       -0.11648729588458
H           10.80547186343837       -0.12722771028495       -0.85304772296547
H           10.78384466126833        2.33875367488693       -0.68453102840078
H            8.78024556776305        3.49858396643558        0.17248371146214
H            4.36880936369703        3.19788199908671        2.30659482343641
H            2.03992297824584        2.42348687040678        2.02536654229671
H            0.83554458317339        3.45577171457124        0.21135456327641
H           -1.40540223492816        4.44995657940881        0.02376790003825
H           -3.71013726469294        1.87865292053005        2.11805234036504
H           -5.65397547725462        0.80318913203614        3.16949224331256
H           -7.86657539897264        0.89188439698867        2.07548148183047
H           -8.11492337150082        2.05953862436774       -0.08630116690854
H           -6.16912146685240        3.11683796376269       -1.15242180808603
H           -2.46356500448671        3.84194184975670       -2.43493180926582
H           -2.73595596639353        5.95273396524666       -3.66758015118148
H           -4.29529357309818        7.68050335946047       -2.84243882320657
H           -5.57326835237505        7.28418043927835       -0.76709153695570
H           -5.28942370077598        5.18289423444456        0.47827944126422
H           -3.20457513299679        0.56765970173762       -0.24274918977242
H           -2.30873819020987       -2.01558475225569       -0.25434129646131
H           -2.00049164418032       -3.31825833923520        2.12661585886885
H           -4.23806708072828       -3.65702191322568        3.08620427484972
H           -5.87119773337922       -5.11776112879405        1.94644187187925
H           -5.24848753076551       -6.22985678389271       -0.16871425249840
H           -3.02028734428680       -5.87540856483026       -1.14378918318555
H            0.40910976419954       -4.17550190754740       -2.29722934762441
H            1.56443565713139       -6.02437935244250       -3.43531841251877
H            1.36493415754346       -8.33049728003891       -2.57522721508939
H            0.00776726329179       -8.77096517984500       -0.55989513341358
H           -1.13288963929369       -6.92230002128922        0.59199603145751
H            1.47944475570446       -3.95801022680754        0.24996621679800
H            2.62731578651793       -1.78765061870041        0.42286013129930
H            3.28407925059973       -0.08057058134732       -1.21714214987424
H            5.59118717223554        0.67192163469117       -0.93222483731615

 projected vibrational frequencies (cm⁻¹)
eigval :       -0.00    -0.00    -0.00    -0.00     0.00     0.00
eigval :       11.11    12.74    13.38    15.42    23.58    23.75
eigval :       33.78    39.30    42.65    48.37    54.91    57.57
eigval :       59.99    67.06    71.38    82.30    84.46    94.47
eigval :      101.01   114.57   128.24   136.28   157.89   169.76
eigval :      194.89   196.69   216.60   224.18   225.96   235.13
eigval :      246.61   251.54   260.51   283.16   306.28   309.96
eigval :      316.16   319.97   327.06   348.78   353.35   368.21
eigval :      373.80   377.30   377.37   382.43   383.47   391.91
eigval :      400.16   404.70   408.19   426.52   429.83   448.67
eigval :      459.82   465.23   471.49   495.28   497.99   507.60
eigval :      530.17   547.76   555.15   558.92   566.53   580.06
eigval :      583.73   585.66   587.85   589.67   592.25   597.22
eigval :      606.93   607.35   623.07   632.77   640.52   653.75
eigval :      659.31   660.55   661.96   664.78   668.41   675.36
eigval :      698.37   705.17   705.76   743.11   753.01   756.56
eigval :      756.95   757.36   759.76   801.87   802.51   820.31
eigval :      822.41   845.49   864.17   865.72   867.49   872.69
eigval :      872.99   874.10   875.21   879.50   884.71   889.94
eigval :      893.73   893.95   895.90   896.20   901.71   905.70
eigval :      909.19   909.66   916.14   919.73   920.87   927.32
eigval :      927.52   928.02   928.63   928.75   929.10   929.62
eigval :      929.67   930.20   938.90   946.00   969.64   980.98
eigval :      988.87  1000.47  1002.99  1004.04  1010.19  1032.25
eigval :     1078.12  1081.98  1082.07  1083.04  1083.12  1117.38
eigval :     1121.32  1121.45  1122.67  1123.49  1125.61  1132.12
eigval :     1147.44  1165.37  1166.95  1167.87  1178.53  1179.36
eigval :     1179.71  1179.75  1179.99  1180.15  1187.66  1193.35
eigval :     1193.82  1198.05  1200.82  1207.28  1226.31  1231.72
eigval :     1243.45  1249.39  1257.87  1274.23  1276.48  1276.82
eigval :     1277.78  1279.23  1283.58  1301.18  1309.89  1313.97
eigval :     1317.59  1319.42  1319.58  1325.04  1326.69  1326.77
eigval :     1331.02  1353.70  1357.75  1370.71  1388.46  1420.05
eigval :     1420.59  1425.51  1429.94  1432.96  1433.41  1441.52
eigval :     1442.04  1446.50  1452.31  1454.74  1466.04  1466.31
eigval :     1467.20  1467.88  1469.41  1484.84  1539.88  1548.36
eigval :     1549.86  1554.73  1566.42  1570.82  1573.33  1573.81
eigval :     1577.50  1577.58  1586.23  1588.29  1588.65  1593.86
eigval :     1594.46  3062.33  3067.87  3068.44  3073.03  3079.04
eigval :     3079.38  3079.47  3079.99  3080.17  3080.49  3080.70
eigval :     3080.91  3081.15  3085.13  3088.51  3088.68  3089.25
eigval :     3089.34  3090.33  3091.57  3091.73  3092.07  3092.29
eigval :     3092.63  3092.93  3093.99  3094.81  3096.78  3098.76
eigval :     3100.13  3100.46  3100.88  3101.11  3104.18  3106.98

   temp. (K)  partition function   enthalpy   heat capacity  entropy
                                   cal/mol     cal/K/mol   cal/K/mol   J/K/mol
 298.15  VIB  0.519E+21            25452.445    158.736    159.920
         ROT  0.150E+09              888.752      2.981     40.394
         INT  0.779E+29            26341.197    161.716    200.314
         TR   0.172E+29             1481.254      4.968     45.419
         TOT                       27822.4508   166.6846   245.7338  1028.1502

       T/K    H(0)-H(T)+PV         H(T)/Eh          T*S/Eh         G(T)/Eh
   ------------------------------------------------------------------------
    298.15    0.443379E-01    0.722387E+00    0.116756E+00    0.605631E+00
   ------------------------------------------------------------------------

         :::::::::::::::::::::::::::::::::::::::::::::::::::::
         ::                  THERMODYNAMIC                  ::
         :::::::::::::::::::::::::::::::::::::::::::::::::::::
         :: total free energy        -134.954403126498 Eh   ::
         ::.................................................::
         :: total energy             -135.560034243961 Eh   ::
         :: zero point energy           0.678049280449 Eh   ::
         :: G(RRHO) w/o ZPVE           -0.072418162986 Eh   ::
         :: G(RRHO) contrib.            0.605631117464 Eh   ::
         :::::::::::::::::::::::::::::::::::::::::::::::::::::

           -------------------------------------------------
          | TOTAL ENERGY             -135.560034243961 Eh   |
          | TOTAL ENTHALPY           -134.837647065911 Eh   |
          | TOTAL FREE ENERGY        -134.954403126498 Eh   |
          | GRADIENT NORM               0.000045782146 Eh/α |
           -------------------------------------------------

 * finished run on 2025/09/12 at 19:46:35.268
