   * xtb version 6.7.1 (edcfbbe) compiled by 'albert@albert-system' on 2024-07-22

   ID    Z sym.   atoms
    1    8 O      1
    2    6 C      2-12, 14-17, 19-35, 37-53
    3    7 N      13, 18, 36
    4    1 H      54-88

          program call               : xtb data2507/gas/CCDD/CCDD_gas_S0_crest.xyz --gfn 2 --ohess vtight --parallel 40 --molden --ceasefiles --namespace data2507/gas/CCDD/CCDD_gas_S0_finalOpt
          :  Hamiltonian                  GFN2-xTB          :
 * total energy  :  -135.6372840 Eh     change       -0.1281705E-08 Eh
 * total energy  :  -135.6372859 Eh     change       -0.1930953E-05 Eh
 * total energy  :  -135.6372886 Eh     change       -0.2709051E-05 Eh
 * total energy  :  -135.6372908 Eh     change       -0.2160739E-05 Eh
 * total energy  :  -135.6372949 Eh     change       -0.4116080E-05 Eh
 * total energy  :  -135.6373028 Eh     change       -0.7940687E-05 Eh
 * total energy  :  -135.6373101 Eh     change       -0.7268520E-05 Eh
 * total energy  :  -135.6373137 Eh     change       -0.3573851E-05 Eh
 * total energy  :  -135.6373157 Eh     change       -0.2022201E-05 Eh
 * total energy  :  -135.6373173 Eh     change       -0.1609173E-05 Eh
 * total energy  :  -135.6373364 Eh     change       -0.2821795E-06 Eh
 * total energy  :  -135.6373368 Eh     change       -0.3824140E-06 Eh
 * total energy  :  -135.6373372 Eh     change       -0.4241382E-06 Eh
 * total energy  :  -135.6373376 Eh     change       -0.3778337E-06 Eh
 * total energy  :  -135.6373380 Eh     change       -0.4067181E-06 Eh
 * total energy  :  -135.6373384 Eh     change       -0.4048869E-06 Eh
 * total energy  :  -135.6373387 Eh     change       -0.3172215E-06 Eh
 * total energy  :  -135.6373389 Eh     change       -0.2075296E-06 Eh
 * total energy  :  -135.6373389 Eh     change       -0.2395734E-07 Eh
   *** GEOMETRY OPTIMIZATION CONVERGED AFTER 32 ITERATIONS ***

 final structure:
================
88
 xtb: 6.7.1 (edcfbbe)
O            6.71949122284848        3.74282078629882        1.15397607161042
C            6.52560317825098        2.60593892113501        0.76891369529450
C            7.65298332678020        1.69499602125744        0.44089845068339
C            7.59855989703197        0.32975509270137        0.71302608536345
C            8.68438424710515       -0.47678938757651        0.42525345827096
C            9.82655994736546        0.06668869610031       -0.14069982462197
C            9.89168725017936        1.42607110543171       -0.40193198443799
C            8.81495511136518        2.23848828560963       -0.10231170842991
C            5.15469590683091        2.06622373487685        0.60639206904629
C            4.13431730780432        2.58459069835858        1.40410656261771
C            2.84061700585924        2.12753796421846        1.28089775339482
C            2.53199430502559        1.15493587430413        0.32894906709585
N            1.22408274877158        0.69285472883098        0.19054446011396
C            0.08618510546272        1.47911715483495        0.12538875399485
C           -0.04611829283524        2.86048462790569        0.11949252916843
C           -1.31447718359259        3.39392652428565        0.02349585765786
C           -2.45153105451240        2.58085268151934       -0.09487254895487
N           -3.72184863350370        3.16748763959927       -0.17991769641906
C           -4.81107871879175        2.56130606170987        0.45344336417081
C           -4.64801904942527        1.91282130744642        1.67800607072476
C           -5.72473257588172        1.30699843808311        2.29499027445831
C           -6.98081693820915        1.34340290173938        1.71205803391209
C           -7.14998198329982        1.98979887021919        0.49864526920243
C           -6.07745297010068        2.59007166649903       -0.13129000939978
C           -3.89749730082618        4.34591926999539       -0.91223042294220
C           -3.18434303820442        4.55862640500776       -2.09212092971654
C           -3.35450581705834        5.72757286748996       -2.80774682336613
C           -4.23980446752356        6.69789056560586       -2.36786109845397
C           -4.95292888460034        6.49070393105016       -1.19829269127471
C           -4.78344702128356        5.32901402095850       -0.47100451185059
C           -2.31499630694694        1.19807571554926       -0.13263432209488
C           -1.04840789563872        0.64948059800550       -0.01750895985666
C           -0.56750416264555       -0.70397021050288       -0.02973410869748
C           -1.20788549147264       -1.92876569580270       -0.12328422559255
C           -0.44512148060041       -3.08888044462503       -0.05904841286074
N           -1.06042506289838       -4.34643755688728       -0.13722129972329
C           -2.30104683414753       -4.55270139592817        0.47472880086676
C           -2.60247376993838       -3.93618835974380        1.68942304998587
C           -3.83270931674747       -4.13377560190194        2.28487064057892
C           -4.77808315344358       -4.95293254143569        1.68970519151354
C           -4.48266469632216       -5.57161853427115        0.48605746729724
C           -3.25884499868611       -5.37246219212114       -0.12244082676445
C           -0.43838410288015       -5.38183691326216       -0.84041793111529
C            0.28720022003547       -5.11281153138667       -2.00136183751210
C            0.90809998110468       -6.13740076784433       -2.68835318687941
C            0.81201621007323       -7.44411599008105       -2.23877922507411
C            0.09039273419155       -7.71776859096041       -1.08823548458182
C           -0.52695717342090       -6.69915185290047       -0.38938355660459
C            0.94540506471220       -3.00511411413072        0.10565595521068
C            1.59664278622900       -1.79174165328250        0.18154990602197
C            0.83770847049514       -0.63295397870638        0.09658461841371
C            3.54394341425429        0.65446301329440       -0.49139967860706
C            4.84108078957131        1.10043320440301       -0.34971076433371
H            6.71678884411166       -0.09311363155013        1.17242190602313
H            8.64088009151003       -1.53368320110714        0.64416241833058
H           10.66923425239159       -0.56882808108052       -0.36996437862698
H           10.78530775299862        1.85182146774389       -0.83363378076434
H            8.85107258662396        3.30142304431753       -0.28945204695764
H            4.38474619401906        3.33990427023402        2.13396921035511
H            2.06379312522833        2.50397456074962        1.92876480929748
H            0.81308655275249        3.50980714093306        0.18521528387001
H           -1.44210114641704        4.46595714010221        0.03733311895003
H           -3.67246157465369        1.89037194545567        2.14122808020604
H           -5.58290890797953        0.80957673546303        3.24332537365205
H           -7.82074104436035        0.87170579947795        2.19902024344235
H           -8.12417482129073        2.01927103123176        0.03284745255590
H           -6.21162872432314        3.08230217003129       -1.08343192805462
H           -2.50046670309105        3.79938499869658       -2.44266343911197
H           -2.79740343491441        5.87781814220317       -3.72095956455423
H           -4.37280505373104        7.60867610480459       -2.93167386579944
H           -5.64087191387785        7.24435212501000       -0.84395460399693
H           -5.33297375275172        5.17484197825999        0.44614543571602
H           -3.18103391760580        0.56485688876917       -0.25008835727197
H           -2.28014293182922       -1.98240361686458       -0.23292422509804
H           -1.86446490844613       -3.30422669179651        2.16148591850699
H           -4.05161309185238       -3.65031243423805        3.22570864433612
H           -5.73738130548377       -5.10750535584530        2.15974666735351
H           -5.21500195092922       -6.20791265699964        0.01100995460744
H           -3.03713477230014       -5.84696104571353       -1.06722252281115
H            0.35509160776067       -4.09621685100588       -2.36042492845950
H            1.46405518660888       -5.91447180037684       -3.58739659729518
H            1.29544826338953       -8.24280165386121       -2.78055364238750
H            0.01453725956746       -8.73271707070766       -0.72634897946990
H           -1.07982670239827       -6.91478774050795        0.51323272886728
H            1.51412485262477       -3.91991395857420        0.18122355498941
H            2.66504179697164       -1.75596445909581        0.32932972425747
H            3.29793853754535       -0.06817039252146       -1.25479154555656
H            5.61018832241512        0.72368959937967       -1.00779228990351

          :  Hamiltonian                  GFN2-xTB          :
         :: gradient norm              0.000154815045 Eh/a0 ::
         :: HOMO-LUMO gap              1.445894060075 eV    ::
         :: SCC energy              -138.147545625966 Eh    ::
         :: -> dispersion             -0.121523531437 Eh    ::
         :: repulsion energy           2.510206707048 Eh    ::

    * Orbital Energies and Occupations

         #    Occupation            Energy/Eh            Energy/eV
      -------------------------------------------------------------
         1        2.0000           -0.7024011             -19.1133
       ...           ...                  ...                  ...
       114        2.0000           -0.4158506             -11.3159
       115        2.0000           -0.4104616             -11.1692
       116        2.0000           -0.4060593             -11.0494
       117        2.0000           -0.4050358             -11.0216
       118        2.0000           -0.4045364             -11.0080
       119        2.0000           -0.4034123             -10.9774
       120        2.0000           -0.4029432             -10.9646
       121        2.0000           -0.4019888             -10.9387
       122        2.0000           -0.3891003             -10.5880
       123        2.0000           -0.3865120             -10.5175
       124        2.0000           -0.3794622             -10.3257
       125        2.0000           -0.3489313              -9.4949
       126        2.0000           -0.3408782              -9.2758 (HOMO)
       127                         -0.2877426              -7.8299 (LUMO)
       128                         -0.2518318              -6.8527
       129                         -0.2419733              -6.5844
       130                         -0.2405065              -6.5445
       131                         -0.2344366              -6.3793
       132                         -0.2323184              -6.3217
       133                         -0.2288081              -6.2262
       134                         -0.2278020              -6.1988
       135                         -0.2237757              -6.0892
       136                         -0.2226719              -6.0592
       137                         -0.2200693              -5.9884
       ...                                ...                  ...
       247                          0.7399540              20.1352
      -------------------------------------------------------------
                  HL-Gap            0.0531356 Eh            1.4459 eV

     #   Z          covCN         q      C6AA      α(0)
     1   8 O        0.858    -0.372    21.132     6.163
     2   6 C        2.828     0.225    23.281     7.906
     3   6 C        2.973    -0.011    28.286     8.724
     4   6 C        2.921    -0.027    28.672     8.781
     5   6 C        2.918    -0.028    28.692     8.784
     6   6 C        2.920    -0.024    28.595     8.769
     7   6 C        2.918    -0.027    28.665     8.780
     8   6 C        2.925    -0.018    28.452     8.747
     9   6 C        2.971    -0.017    28.430     8.746
    10   6 C        2.924    -0.018    28.452     8.747
    11   6 C        2.920    -0.043    29.079     8.843
    12   6 C        2.913     0.070    26.440     8.432
    13   7 N        2.801    -0.038    21.983     6.964
    14   6 C        3.072     0.039    27.045     8.527
    15   6 C        2.909    -0.050    29.245     8.867
    16   6 C        2.926    -0.050    29.234     8.867
    17   6 C        2.924     0.057    26.725     8.478
    18   7 N        2.753    -0.076    22.720     7.079
    19   6 C        2.924     0.065    26.546     8.449
    20   6 C        2.923    -0.049    29.206     8.862
    21   6 C        2.920    -0.029    28.735     8.790
    22   6 C        2.919    -0.039    28.977     8.827
    23   6 C        2.920    -0.030    28.737     8.791
    24   6 C        2.922    -0.049    29.206     8.862
    25   6 C        2.924     0.065    26.546     8.449
    26   6 C        2.922    -0.048    29.202     8.862
    27   6 C        2.919    -0.030    28.737     8.791
    28   6 C        2.919    -0.039    28.969     8.826
    29   6 C        2.920    -0.029    28.736     8.791
    30   6 C        2.922    -0.048    29.193     8.860
    31   6 C        2.916    -0.051    29.273     8.872
    32   6 C        3.067    -0.015    28.322     8.727
    33   6 C        3.066    -0.015    28.318     8.726
    34   6 C        2.915    -0.051    29.277     8.873
    35   6 C        2.924     0.057    26.731     8.479
    36   7 N        2.753    -0.076    22.723     7.080
    37   6 C        2.923     0.065    26.547     8.449
    38   6 C        2.923    -0.048    29.201     8.862
    39   6 C        2.920    -0.029    28.732     8.790
    40   6 C        2.919    -0.039    28.971     8.826
    41   6 C        2.920    -0.029    28.736     8.791
    42   6 C        2.922    -0.048    29.200     8.862
    43   6 C        2.924     0.065    26.544     8.449
    44   6 C        2.923    -0.049    29.212     8.863
    45   6 C        2.919    -0.030    28.744     8.792
    46   6 C        2.919    -0.039    28.981     8.828
    47   6 C        2.919    -0.030    28.738     8.791
    48   6 C        2.922    -0.048    29.202     8.862
    49   6 C        2.926    -0.050    29.235     8.867
    50   6 C        2.909    -0.050    29.250     8.868
    51   6 C        3.072     0.039    27.047     8.527
    52   6 C        2.921    -0.044    29.089     8.845
    53   6 C        2.920    -0.027    28.667     8.780
    54   1 H        0.926     0.035     2.518     2.482
    55   1 H        0.926     0.036     2.498     2.472
    56   1 H        0.926     0.038     2.480     2.463
    57   1 H        0.926     0.039     2.459     2.452
    58   1 H        0.926     0.053     2.277     2.360
    59   1 H        0.926     0.060     2.198     2.318
    60   1 H        0.926     0.048     2.348     2.396
    61   1 H        0.926     0.035     2.519     2.482
    62   1 H        0.926     0.036     2.496     2.471
    63   1 H        0.926     0.030     2.586     2.515
    64   1 H        0.926     0.030     2.584     2.514
    65   1 H        0.926     0.029     2.600     2.522
    66   1 H        0.926     0.030     2.581     2.512
    67   1 H        0.926     0.031     2.573     2.508
    68   1 H        0.926     0.030     2.585     2.514
    69   1 H        0.926     0.030     2.580     2.512
    70   1 H        0.926     0.029     2.594     2.519
    71   1 H        0.926     0.031     2.574     2.509
    72   1 H        0.926     0.032     2.564     2.504
    73   1 H        0.926     0.037     2.494     2.470
    74   1 H        0.926     0.037     2.491     2.468
    75   1 H        0.926     0.030     2.584     2.514
    76   1 H        0.926     0.031     2.579     2.511
    77   1 H        0.926     0.029     2.595     2.519
    78   1 H        0.926     0.031     2.577     2.510
    79   1 H        0.926     0.031     2.571     2.507
    80   1 H        0.926     0.030     2.591     2.517
    81   1 H        0.926     0.030     2.589     2.516
    82   1 H        0.926     0.029     2.601     2.522
    83   1 H        0.926     0.031     2.578     2.511
    84   1 H        0.926     0.031     2.567     2.505
    85   1 H        0.926     0.035     2.514     2.480
    86   1 H        0.926     0.031     2.567     2.506
    87   1 H        0.926     0.045     2.382     2.413
    88   1 H        0.926     0.041     2.430     2.438

molecular dipole:
                 x           y           z       tot (Debye)
 q only:       -0.004      -0.951      -0.348
   full:        0.050      -1.089      -0.400       2.952

 projected vibrational frequencies (cm⁻¹)
eigval :       -0.00    -0.00    -0.00     0.00     0.00     0.00
eigval :       10.72    12.61    13.16    15.87    21.44    23.03
eigval :       33.03    37.76    41.92    47.66    52.99    55.62
eigval :       59.39    66.57    70.42    83.50    84.49    91.18
eigval :       99.28   110.75   125.36   136.72   160.13   165.60
eigval :      180.56   194.23   209.39   222.62   225.08   234.59
eigval :      245.03   249.72   261.61   281.25   309.83   313.64
eigval :      316.93   325.45   333.15   355.09   359.62   368.19
eigval :      372.10   377.97   378.09   383.69   384.38   387.70
eigval :      400.39   402.39   405.48   429.88   438.67   452.57
eigval :      470.12   473.43   480.44   489.61   491.72   507.05
eigval :      546.67   549.62   554.82   566.69   581.82   586.34
eigval :      586.77   588.39   590.23   594.07   599.90   608.16
eigval :      618.25   625.45   633.11   642.00   657.81   659.07
eigval :      660.99   664.31   669.14   675.36   677.15   701.59
eigval :      704.64   707.28   717.67   752.67   755.96   756.38
eigval :      757.89   760.02   775.43   803.37   818.12   821.43
eigval :      832.23   869.65   873.30   873.76   874.88   875.44
eigval :      877.61   878.40   880.83   882.88   890.23   890.44
eigval :      892.84   893.40   902.42   908.24   909.60   910.99
eigval :      911.07   913.53   926.79   926.97   927.48   927.91
eigval :      928.02   928.19   928.70   930.02   930.11   932.05
eigval :      934.37   938.77   948.99   949.32   971.61   990.22
eigval :      995.20  1004.02  1004.86  1013.98  1024.53  1037.52
eigval :     1080.87  1083.46  1083.49  1084.49  1084.59  1119.44
eigval :     1122.12  1122.15  1124.05  1124.46  1129.41  1134.83
eigval :     1156.90  1170.38  1175.72  1180.46  1180.81  1180.84
eigval :     1181.17  1181.18  1181.88  1183.24  1193.46  1195.91
eigval :     1196.35  1200.47  1201.12  1207.39  1230.36  1242.94
eigval :     1253.01  1262.20  1264.56  1275.41  1277.74  1278.69
eigval :     1279.57  1284.35  1287.77  1315.20  1317.97  1320.24
eigval :     1321.10  1322.79  1324.61  1327.81  1328.20  1328.34
eigval :     1331.38  1350.42  1363.92  1383.12  1407.51  1420.15
eigval :     1429.73  1431.60  1435.30  1436.16  1444.00  1444.83
eigval :     1463.15  1468.93  1472.74  1473.22  1476.57  1478.20
eigval :     1485.53  1492.24  1552.91  1563.86  1571.95  1576.51
eigval :     1577.99  1580.70  1580.75  1580.87  1584.33  1592.15
eigval :     1595.32  1595.86  1598.72  1600.73  1602.13  1616.10
eigval :     1689.07  3074.27  3074.41  3074.88  3075.13  3075.24
eigval :     3075.90  3076.00  3076.46  3076.54  3079.05  3082.67
eigval :     3085.15  3085.39  3085.52  3085.87  3086.33  3086.47
eigval :     3087.93  3088.22  3088.59  3089.22  3089.46  3091.14
eigval :     3091.90  3094.66  3096.17  3096.70  3096.83  3097.22
eigval :     3097.25  3097.33  3097.51  3098.30  3099.67  3101.12

   temp. (K)  partition function   enthalpy   heat capacity  entropy
                                   cal/mol     cal/K/mol   cal/K/mol   J/K/mol
 298.15  VIB  0.741E+21            25351.265    157.328    159.769
         ROT  0.149E+09              888.752      2.981     40.379
         INT  0.110E+30            26240.017    160.309    200.148
         TR   0.172E+29             1481.254      4.968     45.419
         TOT                       27721.2713   165.2771   245.5670  1027.4523

       T/K    H(0)-H(T)+PV         H(T)/Eh          T*S/Eh         G(T)/Eh
   ------------------------------------------------------------------------
    298.15    0.441767E-01    0.725457E+00    0.116677E+00    0.608780E+00
   ------------------------------------------------------------------------

         :::::::::::::::::::::::::::::::::::::::::::::::::::::
         ::                  THERMODYNAMIC                  ::
         :::::::::::::::::::::::::::::::::::::::::::::::::::::
         :: total free energy        -135.028558847152 Eh   ::
         ::.................................................::
         :: total energy             -135.637338918946 Eh   ::
         :: zero point energy           0.681280216930 Eh   ::
         :: G(RRHO) w/o ZPVE           -0.072500145136 Eh   ::
         :: G(RRHO) contrib.            0.608780071794 Eh   ::
         :::::::::::::::::::::::::::::::::::::::::::::::::::::

           -------------------------------------------------
          | TOTAL ENERGY             -135.637338918946 Eh   |
          | TOTAL ENTHALPY           -134.911882044225 Eh   |
          | TOTAL FREE ENERGY        -135.028558847152 Eh   |
          | GRADIENT NORM               0.000154896249 Eh/α |
          | HOMO-LUMO GAP               1.445893681802 eV   |
           -------------------------------------------------

 * finished run on 2025/09/12 at 19:46:14.360
