   * xtb version 6.7.1 (edcfbbe) compiled by 'albert@albert-system' on 2024-07-22

   ID    Z sym.   atoms
    1    8 O      1
    2    6 C      2-12, 14-17, 19-35, 37-53
    3    7 N      13, 18, 36
    4    1 H      54-88

          program call               : xtb data2507/gas/CCDD/CCDD.xyz --gfn 2 --ohess vtight --parallel 40 --molden --ceasefiles --namespace data2507/gas/CCDD/CCDD_gas_S0_preOpt
          :  Hamiltonian                  GFN2-xTB          :
 * total energy  :  -135.6084080 Eh     change       -0.1857529E-08 Eh
 * total energy  :  -135.6249422 Eh     change       -0.1653416E-01 Eh
 * total energy  :  -135.6320484 Eh     change       -0.7106168E-02 Eh
 * total energy  :  -135.6344604 Eh     change       -0.2412039E-02 Eh
 * total energy  :  -135.6355668 Eh     change       -0.1106434E-02 Eh
 * total energy  :  -135.6359653 Eh     change       -0.3984918E-03 Eh
 * total energy  :  -135.6361761 Eh     change       -0.2107275E-03 Eh
 * total energy  :  -135.6363866 Eh     change       -0.2105189E-03 Eh
 * total energy  :  -135.6366119 Eh     change       -0.2253462E-03 Eh
 * total energy  :  -135.6368042 Eh     change       -0.1922929E-03 Eh
 * total energy  :  -135.6371571 Eh     change       -0.4528630E-06 Eh
 * total energy  :  -135.6371574 Eh     change       -0.3843785E-06 Eh
 * total energy  :  -135.6371577 Eh     change       -0.2271670E-06 Eh
 * total energy  :  -135.6371579 Eh     change       -0.1840872E-06 Eh
 * total energy  :  -135.6371581 Eh     change       -0.2514317E-06 Eh
 * total energy  :  -135.6371584 Eh     change       -0.2465406E-06 Eh
 * total energy  :  -135.6371585 Eh     change       -0.1678835E-06 Eh
 * total energy  :  -135.6371586 Eh     change       -0.1276347E-06 Eh
 * total energy  :  -135.6371587 Eh     change       -0.5438372E-07 Eh
   *** GEOMETRY OPTIMIZATION CONVERGED AFTER 59 ITERATIONS ***

 final structure:
================
88
 xtb: 6.7.1 (edcfbbe)
O            6.48686105662334       -4.55606210432644       -0.52496988331879
C            6.38826686163835       -3.36550337497708       -0.29918521455485
C            7.58657214006820       -2.51515982713769       -0.07759299543059
C            8.69880236676000       -3.07612517716821        0.54605549686909
C            9.83899155851778       -2.32262605646360        0.74943681730827
C            9.88737531002967       -1.00884548767480        0.31119796454566
C            8.79471261018511       -0.45239357244818       -0.33435744184919
C            7.64576390708453       -1.19759066024902       -0.52641944239571
C            5.06751205867212       -2.69546029322566       -0.23486665758861
C            4.82865257112798       -1.59615365599680        0.58932670135014
C            3.57446792894105       -1.02538232226808        0.64495712312870
C            2.53373127500873       -1.53178762033668       -0.13459408759294
N            1.27152079018611       -0.94131560561228       -0.09014793660446
C            1.00686362718382        0.41477015661647       -0.16939595272236
C            1.87217613160982        1.48248830838898       -0.36236170657841
C            1.33545335818634        2.75011692133284       -0.44454820210504
C           -0.04436311554973        2.97692212298793       -0.33444215447532
N           -0.53960472536528        4.28677665840160       -0.41184796228643
C           -1.73236361843328        4.53973968583743       -1.09657569480802
C           -2.62674690843098        5.50396227942758       -0.63137125729624
C           -3.80182696078768        5.75116339161203       -1.31372658425643
C           -4.11144605257610        5.03915447060918       -2.46094273430488
C           -3.23016217136374        4.07579037938110       -2.92382718696489
C           -2.04837940950582        3.82751745100304       -2.25376987652141
C            0.15762809513839        5.32930787493208        0.20460584628338
C            0.20742412794027        6.59461631426040       -0.38123504965214
C            0.89894979878454        7.62003998953862        0.23307800723105
C            1.55902808919774        7.40365852846035        1.43175436593362
C            1.51812104717730        6.14795517017395        2.01515842886278
C            0.82195195331781        5.11824262820656        1.41329771265619
C           -0.91382689905711        1.90553222623559       -0.16756480178198
C           -0.38857732880005        0.62520482197792       -0.09986871871570
C           -0.99160434543099       -0.67170443162343        0.03529879297585
C           -2.30687806454969       -1.09025697389567        0.15727228562873
C           -2.56498829874224       -2.44760979770030        0.30810184824464
N           -3.88266175503449       -2.90876564721773        0.43841192279008
C           -4.81021371880107       -2.16842957612594        1.17774040641173
C           -4.41559815118721       -1.48641313115308        2.32902660051950
C           -5.33399111602603       -0.75177188061116        3.05295512160506
C           -6.65810955964231       -0.68939298049003        2.65066174716529
C           -7.05632318481415       -1.36674848708249        1.50980446683009
C           -6.14364976624062       -2.09679602544436        0.77392522748372
C           -4.26337126717791       -4.10391361009944       -0.17903465626099
C           -3.73669497142876       -4.45669464037871       -1.42183915733565
C           -4.10759492318369       -5.64256779941972       -2.02468299309820
C           -5.01196979943562       -6.49135802703917       -1.40787948938643
C           -5.54060810077837       -6.14483699271461       -0.17510081811730
C           -5.16936356085989       -4.96543628086461        0.44002292463697
C           -1.50290890923799       -3.36328173159776        0.34857615453990
C           -0.19095896629575       -2.96155940857758        0.21139506842439
C            0.06520409529126       -1.60920552196298        0.03337792368264
C            2.76685349830310       -2.63777632518608       -0.95300378520557
C            4.01571559188922       -3.21821016025229       -0.98749403020600
H            8.64628178136266       -4.10456305722276        0.87116036548921
H           10.69368866410513       -2.75979533222740        1.24395837418300
H           10.77979333706735       -0.42022665170677        0.46498124214691
H            8.83943592155491        0.56646482907476       -0.69035706412988
H            6.80241183383042       -0.76757132016768       -1.04721031832247
H            5.61988665658482       -1.20942375541463        1.21461313398746
H            3.38352526912859       -0.19662304104619        1.30987263321775
H            2.93546474083884        1.33360343313283       -0.47090731788686
H            1.98817521523367        3.59558061517243       -0.60320445887099
H           -2.39430479619987        6.05320838900305        0.26928871394427
H           -4.48545470434266        6.49985403533165       -0.94095314151657
H           -5.03233970646202        5.23300879186928       -2.98961272665804
H           -3.46039778906941        3.51814495397790       -3.81988249760120
H           -1.35919688153489        3.08219540867838       -2.62316005668344
H           -0.29657000218773        6.76416810718860       -1.32150147109739
H            0.93006579355076        8.59405519764108       -0.23293411968695
H            2.10081978657414        8.20712285868369        1.90718448880827
H            2.02520257257314        5.97057198948431        2.95243157933829
H            0.78300735414595        4.14297308974711        1.87624804707117
H           -1.97846243927624        2.06874480437259       -0.09947174434022
H           -3.11594526182034       -0.37614033219281        0.14299597379343
H           -3.38605688825667       -1.54075369284781        2.65154801372584
H           -5.01440035455877       -0.23086340712405        3.94371947351550
H           -7.37373199573678       -0.11726137182864        3.22136598305276
H           -8.08522879043028       -1.31941169553534        1.18426202908129
H           -6.45573370379608       -2.61449009699705       -0.12132108841137
H           -3.03902894500921       -3.79189369054206       -1.90996272210704
H           -3.69360320102270       -5.90167504403310       -2.98822883991995
H           -5.30223361171800       -7.41568439425375       -1.88374761509308
H           -6.24161970895983       -6.80316973559075        0.31683513726939
H           -5.57485267369803       -4.70378915010654        1.40646751484109
H           -1.72621633729144       -4.40916556108920        0.49725824671265
H            0.60827259160019       -3.68420917827693        0.26805091694033
H            1.96824297260768       -3.02195037339571       -1.56907337493378
H            4.20728910049621       -4.07686081381126       -1.61350679355607

          :  Hamiltonian                  GFN2-xTB          :
         :: gradient norm              0.000037326888 Eh/a0 ::
         :: HOMO-LUMO gap              1.451196439058 eV    ::
         :: SCC energy              -138.147322935828 Eh    ::
         :: -> dispersion             -0.121270486566 Eh    ::
         :: repulsion energy           2.510164229342 Eh    ::

    * Orbital Energies and Occupations

         #    Occupation            Energy/Eh            Energy/eV
      -------------------------------------------------------------
         1        2.0000           -0.7026316             -19.1196
       ...           ...                  ...                  ...
       114        2.0000           -0.4160442             -11.3211
       115        2.0000           -0.4106646             -11.1748
       116        2.0000           -0.4059651             -11.0469
       117        2.0000           -0.4049715             -11.0198
       118        2.0000           -0.4044653             -11.0061
       119        2.0000           -0.4034220             -10.9777
       120        2.0000           -0.4028988             -10.9634
       121        2.0000           -0.4020056             -10.9391
       122        2.0000           -0.3892573             -10.5922
       123        2.0000           -0.3865098             -10.5175
       124        2.0000           -0.3798210             -10.3355
       125        2.0000           -0.3485511              -9.4846
       126        2.0000           -0.3411477              -9.2831 (HOMO)
       127                         -0.2878172              -7.8319 (LUMO)
       128                         -0.2520336              -6.8582
       129                         -0.2421503              -6.5892
       130                         -0.2406960              -6.5497
       131                         -0.2345847              -6.3834
       132                         -0.2323909              -6.3237
       133                         -0.2287373              -6.2243
       134                         -0.2277585              -6.1976
       135                         -0.2237038              -6.0873
       136                         -0.2226120              -6.0576
       137                         -0.2200021              -5.9866
       ...                                ...                  ...
       247                          0.7393162              20.1178
      -------------------------------------------------------------
                  HL-Gap            0.0533305 Eh            1.4512 eV

     #   Z          covCN         q      C6AA      α(0)
     1   8 O        0.858    -0.372    21.126     6.162
     2   6 C        2.828     0.225    23.279     7.906
     3   6 C        2.973    -0.011    28.288     8.724
     4   6 C        2.925    -0.018    28.451     8.747
     5   6 C        2.918    -0.027    28.665     8.780
     6   6 C        2.920    -0.024    28.593     8.769
     7   6 C        2.918    -0.028    28.691     8.784
     8   6 C        2.921    -0.027    28.671     8.781
     9   6 C        2.972    -0.017    28.426     8.746
    10   6 C        2.920    -0.027    28.665     8.780
    11   6 C        2.921    -0.044    29.090     8.845
    12   6 C        2.913     0.070    26.441     8.432
    13   7 N        2.801    -0.038    21.980     6.963
    14   6 C        3.073     0.039    27.045     8.527
    15   6 C        2.909    -0.050    29.252     8.869
    16   6 C        2.926    -0.050    29.231     8.866
    17   6 C        2.924     0.057    26.731     8.479
    18   7 N        2.753    -0.077    22.726     7.080
    19   6 C        2.923     0.065    26.546     8.449
    20   6 C        2.922    -0.048    29.200     8.861
    21   6 C        2.920    -0.029    28.736     8.791
    22   6 C        2.919    -0.039    28.972     8.827
    23   6 C        2.920    -0.029    28.735     8.791
    24   6 C        2.923    -0.048    29.203     8.862
    25   6 C        2.924     0.065    26.543     8.449
    26   6 C        2.922    -0.049    29.205     8.862
    27   6 C        2.919    -0.030    28.738     8.791
    28   6 C        2.919    -0.040    28.983     8.828
    29   6 C        2.919    -0.030    28.744     8.792
    30   6 C        2.923    -0.049    29.214     8.864
    31   6 C        2.915    -0.051    29.271     8.872
    32   6 C        3.066    -0.015    28.317     8.726
    33   6 C        3.066    -0.015    28.322     8.727
    34   6 C        2.915    -0.051    29.277     8.873
    35   6 C        2.924     0.057    26.724     8.478
    36   7 N        2.753    -0.076    22.723     7.080
    37   6 C        2.923     0.065    26.545     8.449
    38   6 C        2.922    -0.049    29.205     8.862
    39   6 C        2.920    -0.030    28.737     8.791
    40   6 C        2.919    -0.039    28.975     8.827
    41   6 C        2.920    -0.029    28.737     8.791
    42   6 C        2.922    -0.048    29.200     8.862
    43   6 C        2.924     0.065    26.546     8.449
    44   6 C        2.923    -0.049    29.207     8.863
    45   6 C        2.919    -0.030    28.738     8.791
    46   6 C        2.919    -0.039    28.974     8.827
    47   6 C        2.920    -0.029    28.736     8.791
    48   6 C        2.922    -0.048    29.199     8.861
    49   6 C        2.927    -0.049    29.219     8.865
    50   6 C        2.909    -0.050    29.244     8.867
    51   6 C        3.073     0.039    27.042     8.526
    52   6 C        2.920    -0.043    29.077     8.843
    53   6 C        2.924    -0.018    28.454     8.748
    54   1 H        0.926     0.054     2.275     2.359
    55   1 H        0.926     0.039     2.458     2.451
    56   1 H        0.926     0.038     2.479     2.462
    57   1 H        0.926     0.036     2.498     2.471
    58   1 H        0.926     0.035     2.519     2.482
    59   1 H        0.926     0.041     2.431     2.438
    60   1 H        0.926     0.045     2.380     2.412
    61   1 H        0.926     0.031     2.566     2.505
    62   1 H        0.926     0.035     2.514     2.479
    63   1 H        0.926     0.031     2.569     2.506
    64   1 H        0.926     0.031     2.577     2.510
    65   1 H        0.926     0.029     2.596     2.520
    66   1 H        0.926     0.030     2.579     2.512
    67   1 H        0.926     0.030     2.587     2.515
    68   1 H        0.926     0.031     2.568     2.506
    69   1 H        0.926     0.031     2.579     2.511
    70   1 H        0.926     0.029     2.602     2.523
    71   1 H        0.926     0.030     2.590     2.517
    72   1 H        0.926     0.029     2.593     2.518
    73   1 H        0.926     0.037     2.490     2.468
    74   1 H        0.926     0.037     2.494     2.469
    75   1 H        0.926     0.030     2.587     2.515
    76   1 H        0.926     0.030     2.584     2.514
    77   1 H        0.926     0.029     2.600     2.521
    78   1 H        0.926     0.031     2.579     2.511
    79   1 H        0.926     0.031     2.568     2.506
    80   1 H        0.926     0.030     2.590     2.517
    81   1 H        0.926     0.030     2.580     2.512
    82   1 H        0.926     0.029     2.596     2.519
    83   1 H        0.926     0.031     2.577     2.510
    84   1 H        0.926     0.031     2.569     2.506
    85   1 H        0.926     0.037     2.495     2.470
    86   1 H        0.926     0.035     2.519     2.482
    87   1 H        0.926     0.048     2.348     2.396
    88   1 H        0.926     0.060     2.201     2.320

molecular dipole:
                 x           y           z       tot (Debye)
 q only:        0.096       0.982       0.209
   full:        0.160       1.120       0.239       2.938

 projected vibrational frequencies (cm⁻¹)
eigval :       -0.00    -0.00    -0.00    -0.00     0.00     0.00
eigval :       10.81    12.82    13.51    15.45    21.49    22.29
eigval :       35.09    36.16    41.49    48.78    50.09    58.27
eigval :       58.64    63.77    74.90    82.80    84.36    90.62
eigval :       98.11   110.54   125.10   137.43   159.28   165.52
eigval :      180.59   194.57   213.01   218.81   227.05   229.41
eigval :      245.63   249.71   263.34   280.56   306.12   315.20
eigval :      317.40   326.42   334.45   353.37   365.04   368.55
eigval :      375.04   377.92   378.43   383.36   384.31   385.70
eigval :      388.22   402.99   408.77   428.19   442.04   453.03
eigval :      470.83   472.44   480.65   490.08   490.35   506.92
eigval :      544.06   550.24   556.12   569.25   581.82   586.56
eigval :      586.71   587.83   590.26   594.26   597.20   608.64
eigval :      617.04   629.01   631.02   641.83   658.01   658.99
eigval :      660.64   664.18   669.04   675.14   678.10   701.10
eigval :      705.03   707.44   717.63   752.78   756.05   756.25
eigval :      757.79   760.16   775.44   803.25   817.74   821.49
eigval :      832.03   869.80   873.12   873.82   874.30   875.79
eigval :      877.38   878.37   881.26   882.30   890.07   890.29
eigval :      892.66   893.38   902.41   908.37   910.11   910.80
eigval :      911.52   913.17   926.85   926.89   927.78   927.89
eigval :      928.05   928.07   928.77   930.05   930.16   932.03
eigval :      934.39   938.50   948.77   949.36   971.53   990.26
eigval :      995.20  1004.16  1004.93  1013.52  1024.61  1037.02
eigval :     1080.84  1083.51  1083.54  1084.46  1084.49  1119.44
eigval :     1122.09  1122.18  1123.95  1124.47  1129.22  1134.77
eigval :     1156.75  1169.82  1175.76  1180.78  1180.82  1180.89
eigval :     1180.89  1181.13  1181.70  1182.97  1193.42  1196.08
eigval :     1196.18  1200.20  1201.15  1207.13  1230.34  1242.68
eigval :     1252.80  1262.21  1264.57  1275.60  1277.71  1278.69
eigval :     1279.55  1284.32  1287.99  1315.19  1318.25  1320.28
eigval :     1321.20  1323.33  1324.78  1327.86  1328.11  1328.34
eigval :     1331.71  1350.20  1363.46  1383.12  1407.35  1420.11
eigval :     1429.78  1431.50  1435.34  1436.22  1444.10  1444.91
eigval :     1463.10  1468.98  1472.79  1473.26  1476.36  1478.48
eigval :     1485.44  1492.06  1553.05  1563.95  1571.94  1576.50
eigval :     1577.92  1580.72  1580.76  1580.84  1584.36  1592.09
eigval :     1595.57  1595.65  1598.63  1600.71  1601.83  1615.41
eigval :     1689.67  3074.32  3074.35  3074.76  3075.01  3075.06
eigval :     3075.85  3075.86  3076.44  3076.45  3079.10  3082.56
eigval :     3085.19  3085.42  3085.45  3085.81  3086.11  3086.46
eigval :     3087.72  3088.14  3088.44  3089.22  3089.30  3091.12
eigval :     3092.02  3094.62  3096.31  3096.68  3096.71  3097.17
eigval :     3097.26  3097.34  3097.48  3098.18  3099.43  3101.10

   temp. (K)  partition function   enthalpy   heat capacity  entropy
                                   cal/mol     cal/K/mol   cal/K/mol   J/K/mol
 298.15  VIB  0.749E+21            25356.065    157.325    159.789
         ROT  0.149E+09              888.752      2.981     40.381
         INT  0.112E+30            26244.817    160.306    200.170
         TR   0.172E+29             1481.254      4.968     45.419
         TOT                       27726.0713   165.2740   245.5896  1027.5469

       T/K    H(0)-H(T)+PV         H(T)/Eh          T*S/Eh         G(T)/Eh
   ------------------------------------------------------------------------
    298.15    0.441843E-01    0.725439E+00    0.116688E+00    0.608752E+00
   ------------------------------------------------------------------------

         :::::::::::::::::::::::::::::::::::::::::::::::::::::
         ::                  THERMODYNAMIC                  ::
         :::::::::::::::::::::::::::::::::::::::::::::::::::::
         :: total free energy        -135.028406886884 Eh   ::
         ::.................................................::
         :: total energy             -135.637158706486 Eh   ::
         :: zero point energy           0.681255062098 Eh   ::
         :: G(RRHO) w/o ZPVE           -0.072503242495 Eh   ::
         :: G(RRHO) contrib.            0.608751819602 Eh   ::
         :::::::::::::::::::::::::::::::::::::::::::::::::::::

           -------------------------------------------------
          | TOTAL ENERGY             -135.637158706486 Eh   |
          | TOTAL ENTHALPY           -134.911719337342 Eh   |
          | TOTAL FREE ENERGY        -135.028406886884 Eh   |
          | GRADIENT NORM               0.000037301528 Eh/α |
          | HOMO-LUMO GAP               1.451196694782 eV   |
           -------------------------------------------------

 * finished run on 2025/09/12 at 19:38:14.406
