   * xtb version 6.7.1 (edcfbbe) compiled by 'albert@albert-system' on 2024-07-22

   ID    Z sym.   atoms
    1    6 C      1-7, 9-20, 22-26, 28-36, 38-51, 53, 54
    2    8 O      8, 37
    3    7 N      21, 27, 52
    4    1 H      55-89

          program call               : xtb data2507/toluene/VBN0/VBN0_toluene_T1_crest.xyz --gfn 2 --uhf 2 --gbsa toluene --ohess vtight --parallel 40 --molden --ceasefiles --namespace data2507/toluene/VBN0/VBN0_toluene_T1_finalOpt
      * Solvation model:               GBSA
        Solvent                        toluene
        Solvent mass                       9.2140E+01 g/mol
          :  Hamiltonian                  GFN2-xTB          :
 * total energy  :  -139.6195743 Eh     change       -0.1014482E-07 Eh
 * total energy  :  -139.6197145 Eh     change       -0.1401679E-03 Eh
 * total energy  :  -139.6198104 Eh     change       -0.9597188E-04 Eh
 * total energy  :  -139.6198567 Eh     change       -0.4621123E-04 Eh
 * total energy  :  -139.6199153 Eh     change       -0.5868231E-04 Eh
 * total energy  :  -139.6199741 Eh     change       -0.5877680E-04 Eh
 * total energy  :  -139.6200239 Eh     change       -0.4973596E-04 Eh
 * total energy  :  -139.6200720 Eh     change       -0.4818710E-04 Eh
 * total energy  :  -139.6201302 Eh     change       -0.5810983E-04 Eh
 * total energy  :  -139.6201981 Eh     change       -0.6799091E-04 Eh
 * total energy  :  -139.6224057 Eh     change       -0.2615536E-06 Eh
 * total energy  :  -139.6224060 Eh     change       -0.3570251E-06 Eh
 * total energy  :  -139.6224064 Eh     change       -0.3994818E-06 Eh
 * total energy  :  -139.6224068 Eh     change       -0.3820086E-06 Eh
 * total energy  :  -139.6224072 Eh     change       -0.3530994E-06 Eh
 * total energy  :  -139.6224076 Eh     change       -0.4432530E-06 Eh
 * total energy  :  -139.6224080 Eh     change       -0.4115335E-06 Eh
 * total energy  :  -139.6224084 Eh     change       -0.3855737E-06 Eh
 * total energy  :  -139.6224084 Eh     change       -0.4851501E-08 Eh
   *** GEOMETRY OPTIMIZATION CONVERGED AFTER 122 ITERATIONS ***

 final structure:
================
89
 xtb: 6.7.1 (edcfbbe)
C            9.74103497817625        2.42815827939504       -2.14807875143005
C            9.28928015882239        1.18080155528819       -2.22557300718638
C            8.68015143928954        0.40179678253734       -1.15492757059176
C            8.46876065788035        0.90427625697113        0.13103159439236
C            7.88111442079781        0.12725226122381        1.10840850147607
C            7.48886141221295       -1.17894807826350        0.83675365172669
C            6.85552333858402       -2.03016133548655        1.91069715090303
O            5.88747912096459       -2.94495284728947        1.42652509416090
C            4.72556242538137       -2.47104734486125        0.91360275984945
C            3.80605216794592       -3.46528286767498        0.51981001844122
C            2.58222920788857       -3.14258347510634       -0.02228166463191
C            2.27089799307328       -1.79571761581335       -0.18293334723102
C            3.17787975166695       -0.78549975328168        0.23538608877273
C            4.40917964189384       -1.12213081380009        0.77939999743871
C            2.53619713675068        0.46971197164416       -0.02767353612845
C            2.91489494971502        1.79441715505427        0.14371091436421
C            2.04090043879941        2.79070225090891       -0.25770930472006
C            0.81229346652035        2.48167049788660       -0.83349571653069
C            0.41441108232262        1.16626335930850       -1.01434883529193
C            1.27158713873819        0.16412571234817       -0.59209213835646
N            1.13277796983866       -1.20984764750098       -0.67955016565425
C            0.02148346668289       -1.90075210919615       -1.17625435026409
C            0.18210907605836       -2.87177864331622       -2.14052342625171
C           -0.91096424648280       -3.58365037710960       -2.63824895776813
C           -2.19269514769271       -3.30082162444004       -2.15750764037791
C           -2.39025494221477       -2.33463468628513       -1.19823172705480
N           -3.67716414394996       -2.05525090554523       -0.71999081526839
C           -4.54198513100136       -2.97016663575670       -0.14707895443547
C           -4.38258165740343       -4.33426309548670        0.03380927569998
C           -5.41212363051707       -5.02880538675450        0.65207182122295
C           -6.56478407672390       -4.37798995268374        1.08310785472934
C           -6.71934840342189       -3.01037411572043        0.92499032512050
C           -5.70121435222500       -2.29336003061737        0.31072418376140
C           -5.50930664316703       -0.90382180762030        0.00217169378742
C           -6.26100921932604        0.23652889516598        0.21112049181455
C           -5.76522425916169        1.46661412341030       -0.23846990721258
O           -6.54314292857970        2.53793160498117        0.04933931826015
C           -6.10503607681977        3.83926742083320       -0.29347111772523
C           -4.81213090902733        4.26401687340362        0.36339678443874
C           -4.36251214845702        3.66100136480916        1.53096931724560
C           -3.16476356014008        4.04114993183668        2.10325800648216
C           -2.39080840293060        5.05379952103190        1.53760937969126
C           -1.11375140978247        5.47662281047994        2.10408598522290
C           -0.35314657967974        4.76040838133995        2.92270410850150
C           -2.87099716062135        5.68265924240385        0.38715213876627
C           -4.05547447093698        5.28541486545148       -0.19987907812575
C           -4.55206381477478        1.53319439382107       -0.94028490897821
C           -3.78904622600139        0.40086308776168       -1.14452903873176
C           -4.24575843261506       -0.81046460822245       -0.64384067466053
C           -1.28126261168070       -1.60549628452174       -0.64528855157408
C           -1.44784922734044       -0.77193202620165        0.44067624360539
N           -1.59457130680972       -0.07396037297881        1.36072957501126
C            7.70268186200733       -1.69237989106812       -0.43620095000070
C            8.28369913931117       -0.91227686616333       -1.41549119871741
H            9.69822740662135        3.01138012027025       -1.24424901371305
H           10.17816143115042        2.91687095021820       -3.00229174293138
H            9.36859870949572        0.65565818298618       -3.17029990077048
H            8.76181816362457        1.91462016436310        0.36982614410336
H            7.72245444413992        0.53771740077222        2.09623216101177
H            6.41938330633173       -1.39667249583398        2.69412984949903
H            7.61681973128556       -2.67158346542944        2.37003403637986
H            4.09041940779155       -4.49512052996467        0.66511093941323
H            1.88397809195917       -3.91519376926713       -0.30386125101260
H            5.09305254443403       -0.34503756867624        1.07543302492090
H            3.87334195372705        2.03861834284521        0.57573376357732
H            2.31627718332870        3.82665059269521       -0.12880527887010
H            0.15593677993941        3.27850576803070       -1.14803935633339
H           -0.53496296292457        0.93611416768486       -1.47119380339387
H            1.16969745240875       -3.05592739822868       -2.53778778775018
H           -0.77151842403060       -4.32503332330759       -3.40696307651210
H           -3.04837101479993       -3.81847864312396       -2.56572158011694
H           -3.48444983035069       -4.83914545059415       -0.28764090384596
H           -5.31415929086788       -6.09307427308220        0.80372300642245
H           -7.34758717958789       -4.95115280351957        1.55720022312229
H           -7.60912921636266       -2.50893327893951        1.27293912505176
H           -7.21086300918510        0.20905367189027        0.72023311710925
H           -6.92220971415822        4.48786838347797        0.04352790920588
H           -6.02102871341325        3.93546953257674       -1.38473667565189
H           -4.94866810911396        2.87880937852487        1.99142208261438
H           -2.83487010040125        3.55105520153105        3.00582092583142
H           -0.77534862945283        6.45523358068243        1.78421560596164
H            0.58540497760038        5.13803065164782        3.29204449411685
H           -0.62126463870281        3.76602542446235        3.23777254692358
H           -2.29446154788704        6.47906029980882       -0.06224190128310
H           -4.39953898851983        5.77066767610488       -1.10265649302890
H           -4.18957941146644        2.47605734476100       -1.31386969107656
H           -2.85821450526508        0.46397089195954       -1.68546311651210
H            7.40242699981088       -2.70694007679914       -0.65631442324227
H            8.43792566770964       -1.32656222532803       -2.40198587580015

          :  Hamiltonian                  GFN2-xTB          :
         :: gradient norm              0.000060656987 Eh/a0 ::
         :: HOMO-LUMO gap              0.116664655427 eV    ::
         :: SCC energy              -142.127404521716 Eh    ::
         :: -> dispersion             -0.123145723953 Eh    ::
         :: -> Gsolv                  -0.063622298522 Eh    ::
         :: repulsion energy           2.504996092914 Eh    ::

    * Orbital Energies and Occupations

         #    Occupation            Energy/Eh            Energy/eV
      -------------------------------------------------------------
         1        2.0000           -0.7284330             -19.8217
       ...           ...                  ...                  ...
       118        2.0000           -0.4093551             -11.1391
       119        2.0000           -0.4064447             -11.0599
       120        2.0000           -0.4057954             -11.0423
       121        2.0000           -0.4037607             -10.9869
       122        2.0000           -0.3966963             -10.7947
       123        2.0000           -0.3936888             -10.7128
       124        2.0000           -0.3879826             -10.5575
       125        2.0000           -0.3859549             -10.5024
       126        2.0000           -0.3842530             -10.4561
       127        2.0000           -0.3823573             -10.4045
       128        1.7116           -0.3661199              -9.9626
       129        1.2884           -0.3644038              -9.9159
       130        0.8926           -0.2613567              -7.1119 (HOMO)
       131        0.0835           -0.2570693              -6.9952 (LUMO)
       132        0.0200           -0.2556498              -6.9566
       133        0.0039           -0.2540778              -6.9138
       134        0.0000           -0.2493657              -6.7856
       135                         -0.2334350              -6.3521
       136                         -0.2311888              -6.2910
       137                         -0.2292956              -6.2395
       138                         -0.2265601              -6.1650
       139                         -0.2235353              -6.0827
       140                         -0.2029656              -5.5230
       141                         -0.1965674              -5.3489
       ...                                ...                  ...
       251                          1.1626263              31.6367
      -------------------------------------------------------------
                  HL-Gap            0.0042874 Eh            0.1167 eV

     #   Z          covCN         q      C6AA      α(0)
     1   6 C        2.837    -0.087    30.160     9.000
     2   6 C        2.895    -0.032    28.792     8.798
     3   6 C        2.970     0.013    27.720     8.636
     4   6 C        2.923    -0.033    28.825     8.804
     5   6 C        2.921    -0.040    29.003     8.831
     6   6 C        2.968    -0.002    28.081     8.692
     7   6 C        3.697     0.072    19.532     6.322
     8   8 O        1.705    -0.264    18.373     5.787
     9   6 C        2.862     0.147    24.801     8.163
    10   6 C        2.922    -0.060    29.491     8.906
    11   6 C        2.907    -0.042    29.049     8.838
    12   6 C        3.075     0.043    26.963     8.514
    13   6 C        3.065    -0.013    28.265     8.718
    14   6 C        2.908    -0.067    29.679     8.933
    15   6 C        3.064    -0.016    28.354     8.732
    16   6 C        2.911    -0.031    28.769     8.795
    17   6 C        2.919    -0.033    28.815     8.803
    18   6 C        2.922    -0.034    28.841     8.807
    19   6 C        2.910    -0.034    28.858     8.809
    20   6 C        3.075     0.050    26.805     8.489
    21   7 N        2.801    -0.016    21.564     6.897
    22   6 C        2.910     0.041    27.083     8.534
    23   6 C        2.914    -0.045    29.114     8.848
    24   6 C        2.914    -0.064    29.587     8.920
    25   6 C        2.914    -0.045    29.110     8.847
    26   6 C        2.912     0.041    27.076     8.532
    27   7 N        2.800    -0.016    21.562     6.897
    28   6 C        3.077     0.047    26.861     8.497
    29   6 C        2.909    -0.042    29.050     8.838
    30   6 C        2.922    -0.035    28.882     8.813
    31   6 C        2.919    -0.033    28.824     8.804
    32   6 C        2.911    -0.031    28.774     8.796
    33   6 C        3.063    -0.014    28.310     8.725
    34   6 C        3.061    -0.011    28.229     8.713
    35   6 C        2.911    -0.057    29.410     8.893
    36   6 C        2.861     0.150    24.749     8.154
    37   8 O        1.706    -0.259    18.297     5.775
    38   6 C        3.696     0.072    19.539     6.323
    39   6 C        2.968    -0.002    28.078     8.692
    40   6 C        2.921    -0.030    28.751     8.793
    41   6 C        2.924    -0.030    28.758     8.794
    42   6 C        2.971     0.015    27.684     8.631
    43   6 C        2.895    -0.031    28.783     8.796
    44   6 C        2.838    -0.084    30.095     8.990
    45   6 C        2.927    -0.035    28.870     8.811
    46   6 C        2.921    -0.042    29.050     8.839
    47   6 C        2.918    -0.066    29.651     8.929
    48   6 C        2.909    -0.036    28.891     8.814
    49   6 C        3.076     0.049    26.827     8.492
    50   6 C        2.964    -0.048    29.195     8.863
    51   6 C        1.906     0.101    28.603     8.637
    52   7 N        0.911    -0.390    30.094     7.934
    53   6 C        2.920    -0.033    28.814     8.803
    54   6 C        2.928    -0.035    28.872     8.812
    55   1 H        0.926     0.041     2.433     2.439
    56   1 H        0.926     0.038     2.471     2.458
    57   1 H        0.925     0.035     2.517     2.481
    58   1 H        0.926     0.043     2.415     2.430
    59   1 H        0.925     0.034     2.531     2.488
    60   1 H        0.924     0.046     2.375     2.410
    61   1 H        0.924     0.068     2.112     2.273
    62   1 H        0.926     0.055     2.255     2.348
    63   1 H        0.926     0.049     2.336     2.390
    64   1 H        0.926     0.052     2.297     2.370
    65   1 H        0.926     0.043     2.408     2.427
    66   1 H        0.926     0.042     2.416     2.431
    67   1 H        0.926     0.038     2.471     2.458
    68   1 H        0.926     0.028     2.615     2.529
    69   1 H        0.926     0.035     2.516     2.480
    70   1 H        0.926     0.029     2.595     2.519
    71   1 H        0.926     0.035     2.512     2.478
    72   1 H        0.926     0.039     2.457     2.451
    73   1 H        0.926     0.041     2.436     2.441
    74   1 H        0.926     0.042     2.422     2.434
    75   1 H        0.926     0.043     2.406     2.426
    76   1 H        0.926     0.059     2.215     2.327
    77   1 H        0.924     0.071     2.078     2.254
    78   1 H        0.923     0.049     2.334     2.389
    79   1 H        0.926     0.033     2.540     2.492
    80   1 H        0.926     0.040     2.443     2.444
    81   1 H        0.925     0.039     2.460     2.453
    82   1 H        0.926     0.040     2.447     2.446
    83   1 H        0.926     0.041     2.434     2.439
    84   1 H        0.926     0.039     2.460     2.453
    85   1 H        0.926     0.035     2.515     2.480
    86   1 H        0.926     0.050     2.324     2.384
    87   1 H        0.926     0.036     2.497     2.471
    88   1 H        0.926     0.036     2.500     2.473
    89   1 H        0.926     0.036     2.509     2.477

molecular dipole:
                 x           y           z       tot (Debye)
 q only:        0.735       0.640      -0.754
   full:        0.847       0.437      -1.109       3.717

 projected vibrational frequencies (cm⁻¹)
eigval :       -0.00    -0.00    -0.00     0.00     0.00     0.00
eigval :        5.61     7.83    12.72    15.26    19.61    26.38
eigval :       34.32    37.38    41.28    49.44    51.84    59.79
eigval :       64.58    74.27    82.01    84.49    96.62   101.95
eigval :      110.14   115.68   118.68   129.83   134.96   137.69
eigval :      155.40   156.93   165.95   198.59   202.41   219.25
eigval :      222.92   235.53   238.32   243.17   250.72   254.10
eigval :      271.49   287.29   295.86   304.79   310.15   325.30
eigval :      333.29   347.63   369.54   369.59   373.06   381.50
eigval :      384.35   387.99   398.36   405.54   412.25   414.07
eigval :      419.44   420.59   428.93   443.10   449.65   457.23
eigval :      479.73   485.15   492.91   500.47   509.28   521.38
eigval :      532.46   540.09   556.32   568.12   571.93   575.86
eigval :      583.82   586.16   593.89   595.08   603.91   608.76
eigval :      612.49   614.88   621.74   627.55   638.18   654.72
eigval :      666.09   669.32   693.02   695.41   696.49   697.96
eigval :      705.69   723.34   731.36   740.32   741.82   746.05
eigval :      759.92   763.79   765.13   791.23   802.29   807.71
eigval :      811.60   827.57   835.59   842.28   849.81   852.92
eigval :      853.73   856.35   857.81   862.46   866.48   868.60
eigval :      877.03   880.32   886.07   890.89   892.52   894.27
eigval :      894.66   897.60   912.03   912.69   914.18   914.99
eigval :      917.16   918.75   923.91   926.67   982.20   984.21
eigval :      999.68  1001.37  1005.46  1011.35  1011.48  1013.73
eigval :     1022.85  1031.18  1035.04  1046.84  1050.45  1058.00
eigval :     1064.92  1079.63  1090.92  1104.17  1123.89  1128.49
eigval :     1142.99  1146.41  1148.13  1162.52  1166.00  1171.65
eigval :     1176.44  1183.24  1186.47  1191.32  1195.14  1197.83
eigval :     1200.50  1200.71  1212.09  1216.02  1224.81  1225.71
eigval :     1231.14  1246.28  1247.23  1249.10  1251.27  1260.19
eigval :     1267.66  1269.48  1272.07  1276.62  1287.89  1293.85
eigval :     1295.39  1312.43  1313.93  1319.74  1334.74  1337.11
eigval :     1337.96  1341.53  1344.09  1352.61  1358.73  1363.40
eigval :     1370.47  1401.16  1402.96  1406.43  1408.01  1413.32
eigval :     1414.22  1414.95  1427.28  1442.56  1443.69  1447.13
eigval :     1452.03  1461.00  1468.20  1476.48  1481.89  1489.13
eigval :     1491.93  1509.83  1530.22  1530.31  1549.51  1553.88
eigval :     1556.10  1565.92  1567.26  1569.36  1570.35  1594.35
eigval :     1597.84  1658.86  1674.77  2201.52  2884.43  2895.18
eigval :     2933.53  2933.73  3038.06  3040.29  3064.23  3065.00
eigval :     3068.04  3075.73  3079.07  3079.71  3080.17  3081.06
eigval :     3081.97  3082.06  3086.93  3088.71  3094.23  3094.30
eigval :     3094.86  3095.88  3097.15  3099.64  3100.62  3102.84
eigval :     3104.64  3107.42  3109.69  3111.32  3111.91  3124.08
eigval :     3125.85  3126.75  3126.99

   temp. (K)  partition function   enthalpy   heat capacity  entropy
                                   cal/mol     cal/K/mol   cal/K/mol   J/K/mol
 298.15  VIB  0.149E+23            27044.228    166.932    170.794
         ROT  0.126E+09              888.752      2.981     40.053
         INT  0.189E+31            27932.980    169.913    210.847
         TR   0.178E+29             1481.254      4.968     45.488
         TOT                       29414.2343   174.8812   256.3353  1072.5069

       T/K    H(0)-H(T)+PV         H(T)/Eh          T*S/Eh         G(T)/Eh
   ------------------------------------------------------------------------
    298.15    0.468746E-01    0.723592E+00    0.121793E+00    0.601799E+00
   ------------------------------------------------------------------------

         :::::::::::::::::::::::::::::::::::::::::::::::::::::
         ::                  THERMODYNAMIC                  ::
         :::::::::::::::::::::::::::::::::::::::::::::::::::::
         :: total free energy        -139.020609522874 Eh   ::
         ::.................................................::
         :: total energy             -139.622408424613 Eh   ::
         :: zero point energy           0.676717504429 Eh   ::
         :: G(RRHO) w/o ZPVE           -0.074918602690 Eh   ::
         :: G(RRHO) contrib.            0.601798901739 Eh   ::
         :::::::::::::::::::::::::::::::::::::::::::::::::::::

           -------------------------------------------------
          | TOTAL ENERGY             -139.622408424613 Eh   |
          | TOTAL ENTHALPY           -138.898816354141 Eh   |
          | TOTAL FREE ENERGY        -139.020609522874 Eh   |
          | GRADIENT NORM               0.000058628410 Eh/α |
          | HOMO-LUMO GAP               0.116667367986 eV   |
           -------------------------------------------------

 * finished run on 2025/07/19 at 15:40:01.653
