   * xtb version 6.7.1 (edcfbbe) compiled by 'albert@albert-system' on 2024-07-22

   ID    Z sym.   atoms
    1    6 C      1-7, 9-20, 22-26, 28-36, 38-51, 53, 54
    2    8 O      8, 37
    3    7 N      21, 27, 52
    4    1 H      55-89

          program call               : xtb data2507/toluene/VBN0/VBN0_toluene_S0_finalOpt.xtbopt.xyz --gfn 2 --uhf 2 --gbsa toluene --ohess vtight --parallel 40 --molden --ceasefiles --namespace data2507/toluene/VBN0/VBN0_toluene_T1_preOpt
      * Solvation model:               GBSA
        Solvent                        toluene
        Solvent mass                       9.2140E+01 g/mol
          :  Hamiltonian                  GFN2-xTB          :
 * total energy  :  -139.6185689 Eh     change       -0.4131010E-07 Eh
 * total energy  :  -139.6212576 Eh     change       -0.2688656E-02 Eh
 * total energy  :  -139.6221348 Eh     change       -0.8772393E-03 Eh
 * total energy  :  -139.6222227 Eh     change       -0.8790558E-04 Eh
 * total energy  :  -139.6222800 Eh     change       -0.5728380E-04 Eh
 * total energy  :  -139.6223018 Eh     change       -0.2178701E-04 Eh
 * total energy  :  -139.6223218 Eh     change       -0.2003598E-04 Eh
 * total energy  :  -139.6223286 Eh     change       -0.6780676E-05 Eh
 * total energy  :  -139.6223320 Eh     change       -0.3362084E-05 Eh
 * total energy  :  -139.6223342 Eh     change       -0.2205877E-05 Eh
 * total energy  :  -139.6223745 Eh     change       -0.7125125E-06 Eh
 * total energy  :  -139.6223753 Eh     change       -0.8101905E-06 Eh
 * total energy  :  -139.6223763 Eh     change       -0.1012478E-05 Eh
 * total energy  :  -139.6223773 Eh     change       -0.1038278E-05 Eh
 * total energy  :  -139.6223781 Eh     change       -0.7876238E-06 Eh
 * total energy  :  -139.6223787 Eh     change       -0.5880136E-06 Eh
 * total energy  :  -139.6223793 Eh     change       -0.6024125E-06 Eh
 * total energy  :  -139.6223793 Eh     change        0.3824510E-08 Eh
 * total energy  :  -139.6223793 Eh     change       -0.3120135E-09 Eh
   *** GEOMETRY OPTIMIZATION CONVERGED AFTER 45 ITERATIONS ***

 final structure:
================
89
 xtb: 6.7.1 (edcfbbe)
C            9.61618256004149        1.04125721396758       -3.30959453826698
C            9.34415565663272        1.37976439092918       -2.05372835809885
C            8.70957571978806        0.54622881895936       -1.04045231300534
C            8.47854619769555        1.08381723516146        0.22842755012858
C            7.87727305125425        0.33889747597800        1.22280171267669
C            7.49138395563679       -0.97437008861362        0.98150331445190
C            6.84953715293145       -1.79828675303400        2.07166394214452
O            5.90595013607766       -2.74548201811163        1.60270193880354
C            4.74337234687145       -2.31010277589975        1.05793126107697
C            3.84684486556669       -3.33384819453141        0.68757377335886
C            2.62458073579351       -3.05232974381411        0.11981103819396
C            2.29144052033130       -1.71756318085954       -0.09014420292085
C            3.17579503450034       -0.67706260757732        0.30161715130153
C            4.40617769601183       -0.97255483225159        0.87118155996902
C            2.51454246975676        0.55633326262688       -0.01220686154331
C            2.86768509254845        1.89320753725982        0.11354410370327
C            1.97957641032129        2.85815944508914       -0.33112424905086
C            0.76163708317420        2.50631568443654       -0.90492786289220
C            0.38918526860092        1.17818135304148       -1.04084267504512
C            1.26117832863712        0.20788792462545       -0.57674659097931
N            1.14828192902630       -1.17043802976850       -0.61779844646960
C            0.05477637850474       -1.89743509449582       -1.10309473644919
C            0.24191878748988       -2.89125424721383       -2.03856943845646
C           -0.83448406887195       -3.63401744020768       -2.52828166697623
C           -2.12563356896416       -3.35868524475625       -2.06964274820879
C           -2.34941189775699       -2.37178837837166       -1.13723920611264
N           -3.64576209970921       -2.10005780077855       -0.68141384587798
C           -4.50778587194277       -3.01473321140511       -0.10343893198848
C           -4.33423348343650       -4.37268566273657        0.10779747971882
C           -5.36577964626224       -5.06838109237358        0.72161228946209
C           -6.53469213392001       -4.42466661385679        1.11832613640984
C           -6.70324720554926       -3.06238332894256        0.93146528516781
C           -5.68300256644734       -2.34410707683470        0.32202943724515
C           -5.50296555876303       -0.95825977684288       -0.00883264630541
C           -6.26951967552044        0.17724496828780        0.17115122151354
C           -5.78069042122740        1.40509261227010       -0.29206735167875
O           -6.57073443391292        2.47347749507540       -0.02782689289212
C           -6.14022467874005        3.77370447196045       -0.38436031651690
C           -4.85510386496368        4.21797772359842        0.27502903420691
C           -4.40579980250573        3.63299059826558        1.45184031151049
C           -3.21446173984431        4.03090339697472        2.02548752595814
C           -2.44652453556592        5.04342857030376        1.45150069945860
C           -1.17553785165699        5.48390620589748        2.01802331597169
C           -0.41508610714064        4.78738539555680        2.85363882673598
C           -2.92714667174770        5.65473534687835        0.29177369287140
C           -4.10510725721690        5.23994624451482       -0.29616862310174
C           -4.56112511176780        1.47246206110381       -0.98276147972798
C           -3.78321028426670        0.34539914488949       -1.15729450803332
C           -4.23139102368587       -0.86151369245588       -0.63862226316925
C           -1.25754123613288       -1.61147628528455       -0.59157821938147
C           -1.44560937407888       -0.75514811877902        0.47287858881690
N           -1.60767605896562       -0.03790420339349        1.37537572511109
C            7.72435318979353       -1.52224488314037       -0.27435598852418
C            8.31862522751423       -0.77453494577051       -1.27046146503490
H            9.38069566354083        0.07375965095858       -3.71888177298697
H           10.09139857654174        1.73373269618823       -3.98356785018673
H            9.60890135454150        2.37403790561222       -1.71323687343369
H            8.77340015612758        2.10355559603802        0.43289349359138
H            7.70534613356057        0.77818948852822        2.19578230981912
H            6.38881303804291       -1.14504149952371        2.82423887315888
H            7.61228982064302       -2.41038792165212        2.56731404839744
H            4.14762295410693       -4.35267359857807        0.87221908885077
H            1.94350253496569       -3.84640425105900       -0.14368470974816
H            5.07337326447142       -0.17389692256526        1.14768052740958
H            3.81751775220332        2.17078225117847        0.54441428515095
H            2.23542830288667        3.90291934939902       -0.23796964658445
H            0.09374294478632        3.27914309761676       -1.25330607511906
H           -0.55165365438104        0.91366601062212       -1.49674796838107
H            1.23657609187918       -3.06946028676002       -2.42058018617386
H           -0.67484270126877       -4.39313080617390       -3.27548448110064
H           -2.96850087933893       -3.89925366832813       -2.47478746973559
H           -3.42420865625537       -4.87223087524031       -0.18745721942758
H           -5.25688249823161       -6.12807093285167        0.89609169589880
H           -7.31885252021547       -4.99887212042382        1.58890915603797
H           -7.60551295495074       -2.56575041462253        1.25317465194791
H           -7.22509871604548        0.14807234095281        0.66934265861319
H           -6.96471311826814        4.42017552884076       -0.06141938671429
H           -6.04954069863649        3.85625087839187       -1.47621990589445
H           -4.98676698598961        2.85076771807479        1.91878377412840
H           -2.88464556394284        3.55416081185622        2.93518101838134
H           -0.84143984284176        6.45890866330039        1.68297346803579
H            0.51886041464298        5.17778812898808        3.22139440818929
H           -0.67841531628944        3.79708641670490        3.18512852848834
H           -2.35572253960599        6.45110357714704       -0.16417767866389
H           -4.44923260638237        5.71176168981759       -1.20602980749793
H           -4.20501641859876        2.41227815622618       -1.36981456727294
H           -2.84714677924645        0.40936053627548       -1.68891768168232
H            7.42850935593136       -2.54356842823853       -0.46791322870938
H            8.48427713605187       -1.22592543532684       -2.23613026190120

          :  Hamiltonian                  GFN2-xTB          :
         :: gradient norm              0.000131133466 Eh/a0 ::
         :: HOMO-LUMO gap              0.116672596165 eV    ::
         :: SCC energy              -142.127333213938 Eh    ::
         :: -> dispersion             -0.123185366577 Eh    ::
         :: -> Gsolv                  -0.063601002169 Eh    ::
         :: repulsion energy           2.504953900926 Eh    ::

    * Orbital Energies and Occupations

         #    Occupation            Energy/Eh            Energy/eV
      -------------------------------------------------------------
         1        2.0000           -0.7284884             -19.8232
       ...           ...                  ...                  ...
       118        2.0000           -0.4093415             -11.1387
       119        2.0000           -0.4063953             -11.0586
       120        2.0000           -0.4058057             -11.0425
       121        2.0000           -0.4037589             -10.9868
       122        2.0000           -0.3967330             -10.7957
       123        2.0000           -0.3936612             -10.7121
       124        2.0000           -0.3879341             -10.5562
       125        2.0000           -0.3859681             -10.5027
       126        2.0000           -0.3842602             -10.4563
       127        2.0000           -0.3822519             -10.4016
       128        1.7090           -0.3661037              -9.9622
       129        1.2910           -0.3644114              -9.9161
       130        0.8928           -0.2613709              -7.1123 (HOMO)
       131        0.0836           -0.2570829              -6.9956 (LUMO)
       132        0.0198           -0.2556483              -6.9565
       133        0.0039           -0.2540806              -6.9139
       134        0.0000           -0.2493721              -6.7858
       135                         -0.2334273              -6.3519
       136                         -0.2311945              -6.2911
       137                         -0.2293114              -6.2399
       138                         -0.2265044              -6.1635
       139                         -0.2234598              -6.0807
       140                         -0.2029489              -5.5225
       141                         -0.1965946              -5.3496
       ...                                ...                  ...
       251                          1.1626565              31.6375
      -------------------------------------------------------------
                  HL-Gap            0.0042880 Eh            0.1167 eV

     #   Z          covCN         q      C6AA      α(0)
     1   6 C        2.837    -0.086    30.156     8.999
     2   6 C        2.895    -0.032    28.798     8.799
     3   6 C        2.970     0.013    27.720     8.636
     4   6 C        2.928    -0.035    28.863     8.810
     5   6 C        2.920    -0.041    29.008     8.832
     6   6 C        2.968    -0.002    28.081     8.692
     7   6 C        3.697     0.072    19.530     6.321
     8   8 O        1.705    -0.264    18.372     5.787
     9   6 C        2.862     0.147    24.802     8.163
    10   6 C        2.922    -0.060    29.488     8.905
    11   6 C        2.907    -0.042    29.049     8.838
    12   6 C        3.075     0.043    26.960     8.513
    13   6 C        3.065    -0.013    28.264     8.718
    14   6 C        2.908    -0.067    29.674     8.932
    15   6 C        3.064    -0.016    28.353     8.732
    16   6 C        2.911    -0.031    28.768     8.795
    17   6 C        2.919    -0.033    28.817     8.803
    18   6 C        2.922    -0.034    28.841     8.807
    19   6 C        2.910    -0.035    28.863     8.809
    20   6 C        3.075     0.050    26.802     8.488
    21   7 N        2.801    -0.017    21.570     6.898
    22   6 C        2.910     0.041    27.079     8.533
    23   6 C        2.914    -0.045    29.115     8.848
    24   6 C        2.914    -0.064    29.587     8.919
    25   6 C        2.914    -0.045    29.109     8.847
    26   6 C        2.911     0.041    27.080     8.533
    27   7 N        2.800    -0.016    21.555     6.896
    28   6 C        3.076     0.047    26.865     8.498
    29   6 C        2.909    -0.042    29.048     8.838
    30   6 C        2.922    -0.036    28.885     8.814
    31   6 C        2.919    -0.033    28.823     8.804
    32   6 C        2.911    -0.031    28.775     8.796
    33   6 C        3.063    -0.015    28.312     8.725
    34   6 C        3.061    -0.011    28.231     8.713
    35   6 C        2.911    -0.057    29.411     8.893
    36   6 C        2.861     0.150    24.746     8.154
    37   8 O        1.706    -0.259    18.295     5.775
    38   6 C        3.696     0.072    19.540     6.323
    39   6 C        2.968    -0.002    28.079     8.692
    40   6 C        2.921    -0.030    28.749     8.793
    41   6 C        2.924    -0.030    28.755     8.794
    42   6 C        2.971     0.015    27.684     8.631
    43   6 C        2.895    -0.031    28.783     8.796
    44   6 C        2.838    -0.084    30.094     8.990
    45   6 C        2.927    -0.035    28.870     8.811
    46   6 C        2.921    -0.042    29.051     8.839
    47   6 C        2.918    -0.066    29.652     8.930
    48   6 C        2.909    -0.036    28.889     8.813
    49   6 C        3.076     0.049    26.830     8.493
    50   6 C        2.964    -0.048    29.194     8.863
    51   6 C        1.906     0.101    28.603     8.637
    52   7 N        0.911    -0.390    30.094     7.934
    53   6 C        2.921    -0.033    28.812     8.802
    54   6 C        2.923    -0.033    28.833     8.806
    55   1 H        0.926     0.040     2.447     2.446
    56   1 H        0.926     0.038     2.470     2.458
    57   1 H        0.925     0.036     2.501     2.473
    58   1 H        0.926     0.038     2.475     2.460
    59   1 H        0.925     0.033     2.537     2.491
    60   1 H        0.924     0.046     2.375     2.410
    61   1 H        0.924     0.068     2.111     2.272
    62   1 H        0.926     0.055     2.254     2.348
    63   1 H        0.926     0.049     2.337     2.391
    64   1 H        0.926     0.052     2.300     2.371
    65   1 H        0.926     0.043     2.409     2.427
    66   1 H        0.926     0.042     2.417     2.431
    67   1 H        0.926     0.038     2.471     2.458
    68   1 H        0.926     0.028     2.617     2.530
    69   1 H        0.926     0.035     2.517     2.481
    70   1 H        0.926     0.029     2.594     2.519
    71   1 H        0.926     0.035     2.511     2.478
    72   1 H        0.926     0.039     2.456     2.451
    73   1 H        0.926     0.041     2.437     2.441
    74   1 H        0.926     0.042     2.423     2.434
    75   1 H        0.926     0.043     2.406     2.426
    76   1 H        0.926     0.059     2.215     2.327
    77   1 H        0.924     0.071     2.077     2.254
    78   1 H        0.923     0.049     2.333     2.388
    79   1 H        0.926     0.033     2.542     2.493
    80   1 H        0.926     0.040     2.442     2.444
    81   1 H        0.925     0.039     2.461     2.453
    82   1 H        0.926     0.040     2.448     2.447
    83   1 H        0.926     0.041     2.434     2.440
    84   1 H        0.926     0.039     2.459     2.452
    85   1 H        0.926     0.035     2.514     2.480
    86   1 H        0.926     0.050     2.325     2.384
    87   1 H        0.926     0.036     2.497     2.471
    88   1 H        0.926     0.037     2.494     2.470
    89   1 H        0.926     0.040     2.448     2.447

molecular dipole:
                 x           y           z       tot (Debye)
 q only:        0.731       0.626      -0.775
   full:        0.849       0.428      -1.113       3.722

 projected vibrational frequencies (cm⁻¹)
eigval :       -0.00    -0.00     0.00     0.00     0.00     0.00
eigval :        5.47     8.08    10.92    14.05    18.57    26.18
eigval :       29.66    35.93    40.48    48.79    50.54    51.88
eigval :       58.63    66.00    78.60    83.69    94.48    96.32
eigval :      105.82   113.84   117.41   126.15   134.75   138.04
eigval :      155.38   156.90   163.06   194.84   203.05   221.16
eigval :      223.93   236.05   237.67   246.57   252.78   254.84
eigval :      271.82   286.19   293.25   303.08   312.23   317.31
eigval :      332.45   343.24   369.18   371.29   372.10   380.61
eigval :      384.31   386.87   394.65   403.91   411.83   417.56
eigval :      420.69   424.22   428.87   443.39   447.99   455.66
eigval :      480.06   486.10   494.42   502.78   511.11   520.54
eigval :      532.30   540.14   556.06   567.88   570.83   575.89
eigval :      584.17   586.43   593.84   595.19   603.90   607.86
eigval :      611.99   614.33   619.91   625.63   637.52   654.55
eigval :      666.18   668.66   692.38   694.75   696.08   697.57
eigval :      705.47   723.43   729.87   740.95   742.62   745.96
eigval :      759.89   760.61   767.03   793.05   804.46   809.70
eigval :      810.97   829.66   836.82   842.19   849.36   851.83
eigval :      854.21   856.10   858.94   865.05   868.15   869.59
eigval :      877.80   880.97   886.04   886.68   891.64   892.59
eigval :      896.64   898.91   911.19   913.91   914.69   914.91
eigval :      917.10   918.79   926.46   926.65   981.73   984.32
eigval :      999.39   999.54  1005.43  1005.55  1008.65  1013.42
eigval :     1024.17  1034.00  1034.26  1045.42  1050.50  1057.98
eigval :     1064.50  1078.60  1090.33  1103.79  1123.29  1128.96
eigval :     1142.73  1144.94  1149.30  1162.48  1165.85  1171.22
eigval :     1176.42  1182.53  1186.30  1189.84  1195.92  1197.68
eigval :     1200.20  1201.10  1212.95  1217.13  1225.25  1226.33
eigval :     1231.58  1246.45  1247.33  1247.93  1251.22  1260.80
eigval :     1268.34  1268.89  1269.05  1276.92  1287.94  1294.01
eigval :     1295.11  1312.31  1314.50  1320.01  1334.85  1337.03
eigval :     1337.77  1341.63  1343.84  1352.78  1358.39  1363.16
eigval :     1370.41  1401.02  1403.87  1406.27  1407.35  1412.61
eigval :     1413.61  1415.27  1427.37  1443.25  1443.46  1446.99
eigval :     1451.77  1461.05  1468.30  1476.35  1481.77  1489.47
eigval :     1491.96  1509.95  1529.87  1530.60  1549.38  1553.75
eigval :     1555.59  1565.56  1568.40  1569.26  1570.36  1594.13
eigval :     1597.84  1659.15  1674.35  2201.50  2884.15  2895.29
eigval :     2932.61  2933.85  3038.21  3039.57  3060.99  3064.15
eigval :     3074.52  3075.70  3076.10  3079.37  3080.74  3080.85
eigval :     3080.86  3081.96  3086.79  3088.55  3094.02  3094.03
eigval :     3094.88  3095.84  3096.26  3099.62  3101.15  3102.53
eigval :     3104.71  3107.52  3110.42  3111.19  3112.28  3124.32
eigval :     3125.25  3125.74  3127.13

   temp. (K)  partition function   enthalpy   heat capacity  entropy
                                   cal/mol     cal/K/mol   cal/K/mol   J/K/mol
 298.15  VIB  0.410E+23            27128.654    166.485    171.868
         ROT  0.126E+09              888.752      2.981     40.046
         INT  0.516E+31            28017.406    169.466    211.914
         TR   0.178E+29             1481.254      4.968     45.488
         TOT                       29498.6601   174.4342   257.4020  1076.9698

       T/K    H(0)-H(T)+PV         H(T)/Eh          T*S/Eh         G(T)/Eh
   ------------------------------------------------------------------------
    298.15    0.470091E-01    0.723534E+00    0.122300E+00    0.601234E+00
   ------------------------------------------------------------------------

         :::::::::::::::::::::::::::::::::::::::::::::::::::::
         ::                  THERMODYNAMIC                  ::
         :::::::::::::::::::::::::::::::::::::::::::::::::::::
         :: total free energy        -139.021145544426 Eh   ::
         ::.................................................::
         :: total energy             -139.622379308505 Eh   ::
         :: zero point energy           0.676524637422 Eh   ::
         :: G(RRHO) w/o ZPVE           -0.075290873344 Eh   ::
         :: G(RRHO) contrib.            0.601233764079 Eh   ::
         :::::::::::::::::::::::::::::::::::::::::::::::::::::

           -------------------------------------------------
          | TOTAL ENERGY             -139.622379308505 Eh   |
          | TOTAL ENTHALPY           -138.898845563982 Eh   |
          | TOTAL FREE ENERGY        -139.021145544426 Eh   |
          | GRADIENT NORM               0.000130468295 Eh/α |
          | HOMO-LUMO GAP               0.116683453279 eV   |
           -------------------------------------------------

 * finished run on 2025/07/19 at 15:18:53.197
