   * xtb version 6.7.1 (edcfbbe) compiled by 'albert@albert-system' on 2024-07-22

   ID    Z sym.   atoms
    1    6 C      1-7, 9-20, 22-26, 28-36, 38-51, 53, 54
    2    8 O      8, 37
    3    7 N      21, 27, 52
    4    1 H      55-89

          program call               : xtb data2507/toluene/VBN0/VBN0.xyz --gfn 2 --gbsa toluene --ohess vtight --parallel 40 --molden --ceasefiles --namespace data2507/toluene/VBN0/VBN0_toluene_S0_preOpt
      * Solvation model:               GBSA
        Solvent                        toluene
        Solvent mass                       9.2140E+01 g/mol
          :  Hamiltonian                  GFN2-xTB          :
 * total energy  :  -139.6899278 Eh     change       -0.3889426E-08 Eh
 * total energy  :  -139.7050219 Eh     change       -0.1509412E-01 Eh
 * total energy  :  -139.7078882 Eh     change       -0.2866315E-02 Eh
 * total energy  :  -139.7084723 Eh     change       -0.5840782E-03 Eh
 * total energy  :  -139.7091083 Eh     change       -0.6359450E-03 Eh
 * total energy  :  -139.7093157 Eh     change       -0.2074480E-03 Eh
 * total energy  :  -139.7096301 Eh     change       -0.3143462E-03 Eh
 * total energy  :  -139.7097810 Eh     change       -0.1509074E-03 Eh
 * total energy  :  -139.7099269 Eh     change       -0.1459619E-03 Eh
 * total energy  :  -139.7100414 Eh     change       -0.1144578E-03 Eh
 * total energy  :  -139.7118402 Eh     change       -0.9573991E-06 Eh
 * total energy  :  -139.7118407 Eh     change       -0.4812726E-06 Eh
 * total energy  :  -139.7118411 Eh     change       -0.4046381E-06 Eh
 * total energy  :  -139.7118414 Eh     change       -0.2611415E-06 Eh
 * total energy  :  -139.7118416 Eh     change       -0.1754949E-06 Eh
 * total energy  :  -139.7118417 Eh     change       -0.1468913E-06 Eh
 * total energy  :  -139.7118418 Eh     change       -0.1374347E-06 Eh
 * total energy  :  -139.7118420 Eh     change       -0.1153198E-06 Eh
 * total energy  :  -139.7118420 Eh     change       -0.2434206E-08 Eh
   *** GEOMETRY OPTIMIZATION CONVERGED AFTER 152 ITERATIONS ***

 final structure:
================
89
 xtb: 6.7.1 (edcfbbe)
C           14.25415010358406        2.14617463981217        0.06099548245763
C           13.18369189315934        2.07590771394923       -0.72180928449183
C           11.79631345147324        1.93267269501623       -0.29418768867847
C           11.39810343361529        2.00709307310911        1.04103143968221
C           10.07190905602527        1.85374645521029        1.39572612747735
C            9.10039874352086        1.63048783604366        0.42883213480611
C            7.65105263703035        1.46539409452186        0.80206589447082
O            7.17458128716170        0.27641256333858        0.19534554585854
C            5.86373434124750       -0.07442347975436        0.35049298321904
C            4.93092650763969        0.65399906129015        1.09418521584568
C            3.61625330062005        0.23263599068937        1.20618691787979
C            3.24242076182242       -0.93808809777324        0.57187110644287
C            4.17137371204133       -1.67383691287597       -0.19740675003912
C            5.48183584454052       -1.24234774006157       -0.30450224355265
C            3.45630831258428       -2.79804877864642       -0.73869360713051
C            3.83190252689658       -3.87442755163741       -1.53134533959236
C            2.88311364575199       -4.82774377182574       -1.84462303125245
C            1.58040473256346       -4.72734334150007       -1.36220870978579
C            1.18339683564683       -3.66502990617048       -0.57207808778053
C            2.12350168757110       -2.68736318335114       -0.28364098359121
N            2.00193198728661       -1.55476185651759        0.50271497957806
C            0.84171318311113       -1.11438543354477        1.14057266688155
C            0.83921377031418       -0.89500390685430        2.51400514690664
C           -0.32103328797643       -0.49913590552324        3.15587999297046
C           -1.48987490243542       -0.30024696604004        2.44170954284447
C           -1.50748435042012       -0.47921337803745        1.06310587259637
N           -2.67936290315467       -0.24795890740313        0.34053096239408
C           -2.82511000682782        0.61249450834789       -0.73232104644592
C           -1.90995936962206        1.49570661452638       -1.28494840465142
C           -2.33142437905490        2.28331177224009       -2.33934256854760
C           -3.63497099543540        2.21072623424480       -2.82559934415237
C           -4.55860818103184        1.35561431674753       -2.25822326966277
C           -4.15748152068934        0.55123551300039       -1.19926169620235
C           -4.84052042892947       -0.40145365811235       -0.36840039430062
C           -6.14208657476302       -0.88976276555635       -0.36963069582370
C           -6.48921706040313       -1.83721131001980        0.57961836340023
O           -7.72691675079392       -2.41028083375394        0.69562092709059
C           -8.70629743689970       -2.10965186911232       -0.27924958736166
C           -9.23088184207774       -0.69544220819939       -0.22097684678318
C           -9.30673684234530       -0.01861481113979        0.99006322759131
C           -9.79779504955251        1.27010158087174        1.04852257890113
C          -10.23760002362638        1.92277410193556       -0.10415187061148
C          -10.77055485123831        3.28051181988175       -0.09872348598421
C          -11.02494515616401        4.03116113833230        0.96686113930398
C          -10.15816060663891        1.23324013876559       -1.31627101308379
C           -9.66287125864638       -0.05404988698366       -1.37557308209178
C           -5.54225481438096       -2.28997517588610        1.51147881827920
C           -4.24814346275371       -1.81566918986164        1.51999666178446
C           -3.90122231241982       -0.85914185022171        0.57692936543350
C           -0.33644213793725       -0.89518858477241        0.40268822514079
C           -0.34518060710309       -1.09119243796158       -0.99476362893690
N           -0.35331318310624       -1.24774220310083       -2.13203418555836
C            9.48532053201923        1.56226947753219       -0.90492567670697
C           10.81099145179653        1.70950580775027       -1.25891290342252
H           14.19622355518155        2.10161679007097        1.13510531346374
H           15.24303428629318        2.24704218843808       -0.35325559607065
H           13.31881005276975        2.11264099181957       -1.79641554304312
H           12.13036206970853        2.18820024076853        1.81236366366797
H            9.78754483739983        1.91082913178220        2.43707465496199
H            7.07386309099666        2.32925030514649        0.43603384695190
H            7.54368738404039        1.40683416687598        1.89362082546039
H            5.22163902528331        1.56450710557319        1.59311922517035
H            2.90871764604403        0.81742767161492        1.77428317646508
H            6.21225655185196       -1.78323625544121       -0.88429773776631
H            4.84735512912459       -3.96208233944370       -1.88642772571127
H            3.15325044993048       -5.67102422261777       -2.46254537970785
H            0.86377427129431       -5.49731375513519       -1.60671641840642
H            0.17283752295583       -3.60788294306490       -0.19514812841846
H            1.74708617630810       -1.06438423939159        3.07158314506098
H           -0.31467841310345       -0.34540530439570        4.22382050368249
H           -2.39356595800129        0.01603623334825        2.93887012228912
H           -0.90032724857892        1.57257165197817       -0.90886651642842
H           -1.63465794832913        2.97295596886108       -2.79233018952009
H           -3.92497581588625        2.84257397398121       -3.65185393597573
H           -5.57475825349085        1.31478323129214       -2.62048385188369
H           -6.84853109471462       -0.52136911337803       -1.09446177097817
H           -9.52201241818547       -2.80908010458913       -0.05882885765425
H           -8.32458953666212       -2.33440340037757       -1.28471713043332
H           -8.96828194133008       -0.51165545381909        1.89032521777361
H           -9.83585449215096        1.77380627039105        2.00176979555510
H          -10.97948422803674        3.68310039606707       -1.08304224349874
H          -11.42497345145009        5.02589290682891        0.86631158632447
H          -10.85341156245413        3.69267462120129        1.97437842627988
H          -10.48952509166010        1.71725128923026       -2.22437767755663
H           -9.60843366715932       -0.56728630426920       -2.32588272510906
H           -5.85816795558821       -3.03457763714620        2.22538442827989
H           -3.53213473953476       -2.19070836615655        2.23514303864000
H            8.73623054940144        1.38294889314697       -1.66208109282082
H           11.09359677524342        1.64902516602348       -2.30068434200268

          :  Hamiltonian                  GFN2-xTB          :
         :: gradient norm              0.000040890349 Eh/a0 ::
         :: HOMO-LUMO gap              2.122570886603 eV    ::
         :: SCC energy              -142.237492695437 Eh    ::
         :: -> dispersion             -0.118326122378 Eh    ::
         :: -> Gsolv                  -0.062692974037 Eh    ::
         :: repulsion energy           2.525650736497 Eh    ::

    * Orbital Energies and Occupations

         #    Occupation            Energy/Eh            Energy/eV
      -------------------------------------------------------------
         1        2.0000           -0.7164482             -19.4955
       ...           ...                  ...                  ...
       117        2.0000           -0.4224837             -11.4964
       118        2.0000           -0.4197086             -11.4209
       119        2.0000           -0.4194714             -11.4144
       120        2.0000           -0.4083321             -11.1113
       121        2.0000           -0.4070447             -11.0763
       122        2.0000           -0.4008102             -10.9066
       123        2.0000           -0.3999373             -10.8828
       124        2.0000           -0.3846556             -10.4670
       125        2.0000           -0.3845083             -10.4630
       126        2.0000           -0.3841168             -10.4524
       127        2.0000           -0.3824759             -10.4077
       128        2.0000           -0.3644376              -9.9169
       129        2.0000           -0.3638183              -9.9000 (HOMO)
       130                         -0.2858153              -7.7774 (LUMO)
       131                         -0.2594631              -7.0604
       132                         -0.2540297              -6.9125
       133                         -0.2535807              -6.9003
       134                         -0.2515357              -6.8446
       135                         -0.2492627              -6.7828
       136                         -0.2256470              -6.1402
       137                         -0.2254675              -6.1353
       138                         -0.2244633              -6.1080
       139                         -0.2242599              -6.1024
       140                         -0.2188164              -5.9543
       ...                                ...                  ...
       251                          1.1539729              31.4012
      -------------------------------------------------------------
                  HL-Gap            0.0780030 Eh            2.1226 eV

     #   Z          covCN         q      C6AA      α(0)
     1   6 C        2.837    -0.086    30.143     8.997
     2   6 C        2.895    -0.031    28.767     8.794
     3   6 C        2.970     0.014    27.695     8.632
     4   6 C        2.923    -0.033    28.829     8.805
     5   6 C        2.921    -0.038    28.945     8.823
     6   6 C        2.969     0.004    27.925     8.668
     7   6 C        3.695     0.083    19.364     6.295
     8   8 O        1.706    -0.293    18.877     5.866
     9   6 C        2.860     0.134    25.076     8.208
    10   6 C        2.921    -0.069    29.731     8.942
    11   6 C        2.910    -0.053    29.319     8.879
    12   6 C        3.068     0.037    27.094     8.535
    13   6 C        3.063    -0.013    28.276     8.720
    14   6 C        2.914    -0.059    29.469     8.902
    15   6 C        3.067    -0.015    28.324     8.727
    16   6 C        2.913    -0.033    28.810     8.802
    17   6 C        2.920    -0.040    28.983     8.828
    18   6 C        2.924    -0.032    28.789     8.799
    19   6 C        2.910    -0.048    29.184     8.858
    20   6 C        3.069     0.049    26.828     8.493
    21   7 N        2.801    -0.051    22.223     7.002
    22   6 C        2.916     0.074    26.356     8.419
    23   6 C        2.920    -0.045    29.122     8.850
    24   6 C        2.917    -0.019    28.476     8.751
    25   6 C        2.920    -0.045    29.118     8.849
    26   6 C        2.916     0.074    26.353     8.418
    27   7 N        2.803    -0.051    22.222     7.001
    28   6 C        3.071     0.049    26.839     8.495
    29   6 C        2.910    -0.048    29.185     8.858
    30   6 C        2.924    -0.032    28.803     8.801
    31   6 C        2.920    -0.040    28.993     8.830
    32   6 C        2.913    -0.033    28.821     8.803
    33   6 C        3.069    -0.016    28.342     8.729
    34   6 C        3.068    -0.016    28.342     8.730
    35   6 C        2.911    -0.070    29.736     8.942
    36   6 C        2.863     0.134    25.064     8.206
    37   8 O        1.705    -0.293    18.871     5.865
    38   6 C        3.697     0.077    19.450     6.308
    39   6 C        2.968    -0.002    28.068     8.690
    40   6 C        2.921    -0.032    28.791     8.799
    41   6 C        2.923    -0.033    28.830     8.805
    42   6 C        2.970     0.013    27.720     8.636
    43   6 C        2.895    -0.031    28.777     8.795
    44   6 C        2.837    -0.086    30.142     8.997
    45   6 C        2.927    -0.035    28.863     8.810
    46   6 C        2.920    -0.041    29.006     8.832
    47   6 C        2.925    -0.057    29.426     8.896
    48   6 C        2.909    -0.051    29.271     8.871
    49   6 C        3.072     0.038    27.086     8.533
    50   6 C        2.975    -0.014    28.356     8.735
    51   6 C        1.909     0.132    27.867     8.525
    52   7 N        0.911    -0.275    27.118     7.532
    53   6 C        2.921    -0.030    28.755     8.794
    54   6 C        2.927    -0.035    28.863     8.810
    55   1 H        0.926     0.042     2.421     2.433
    56   1 H        0.926     0.040     2.450     2.448
    57   1 H        0.925     0.037     2.487     2.466
    58   1 H        0.926     0.044     2.401     2.423
    59   1 H        0.926     0.036     2.508     2.477
    60   1 H        0.923     0.036     2.505     2.475
    61   1 H        0.923     0.034     2.530     2.487
    62   1 H        0.926     0.041     2.439     2.442
    63   1 H        0.926     0.038     2.476     2.461
    64   1 H        0.926     0.048     2.347     2.396
    65   1 H        0.926     0.039     2.460     2.453
    66   1 H        0.926     0.037     2.494     2.470
    67   1 H        0.926     0.036     2.503     2.474
    68   1 H        0.926     0.020     2.728     2.583
    69   1 H        0.926     0.061     2.185     2.312
    70   1 H        0.926     0.065     2.141     2.288
    71   1 H        0.926     0.062     2.181     2.310
    72   1 H        0.926     0.020     2.739     2.588
    73   1 H        0.926     0.035     2.514     2.480
    74   1 H        0.926     0.036     2.506     2.476
    75   1 H        0.926     0.037     2.489     2.467
    76   1 H        0.926     0.042     2.422     2.434
    77   1 H        0.924     0.060     2.194     2.316
    78   1 H        0.923     0.037     2.492     2.469
    79   1 H        0.926     0.037     2.488     2.467
    80   1 H        0.926     0.040     2.445     2.445
    81   1 H        0.925     0.037     2.495     2.470
    82   1 H        0.926     0.039     2.458     2.451
    83   1 H        0.926     0.041     2.433     2.439
    84   1 H        0.926     0.037     2.485     2.465
    85   1 H        0.925     0.032     2.563     2.504
    86   1 H        0.926     0.049     2.334     2.389
    87   1 H        0.926     0.040     2.448     2.447
    88   1 H        0.926     0.040     2.451     2.448
    89   1 H        0.926     0.038     2.475     2.460

molecular dipole:
                 x           y           z       tot (Debye)
 q only:        0.018       0.918       1.569
   full:       -0.129       1.055       1.964       5.675

 projected vibrational frequencies (cm⁻¹)
eigval :       -0.00    -0.00     0.00     0.00     0.00     0.00
eigval :        4.71     7.31    12.00    13.13    20.45    24.44
eigval :       27.09    27.90    32.27    35.94    42.13    46.72
eigval :       56.01    59.69    68.11    81.20    93.21    98.13
eigval :      100.44   109.42   116.25   121.98   133.00   145.49
eigval :      152.43   160.75   172.91   175.13   196.38   204.57
eigval :      216.01   225.93   238.90   244.32   253.93   261.19
eigval :      273.07   289.59   299.25   307.84   312.90   324.22
eigval :      337.44   354.61   364.82   369.61   384.72   391.57
eigval :      395.77   396.94   401.28   405.01   413.71   419.52
eigval :      424.55   426.07   430.70   450.61   454.13   472.11
eigval :      490.45   498.65   511.19   516.19   524.64   526.74
eigval :      543.30   543.74   545.85   562.69   573.44   586.64
eigval :      587.62   594.19   596.53   603.16   608.92   612.42
eigval :      618.22   619.43   624.56   636.53   663.36   669.14
eigval :      669.50   691.86   697.51   703.96   704.80   705.44
eigval :      713.35   727.94   742.11   755.11   766.05   768.94
eigval :      770.21   774.04   800.00   805.67   807.25   812.12
eigval :      813.78   849.23   850.48   856.99   862.04   862.46
eigval :      863.90   864.59   867.26   868.71   873.82   888.16
eigval :      889.32   891.16   897.76   898.69   901.09   906.93
eigval :      908.87   909.89   910.58   918.08   920.49   922.24
eigval :      922.94   923.91   930.17   931.82   986.69   988.80
eigval :     1000.87  1005.39  1011.43  1012.86  1019.40  1024.24
eigval :     1034.92  1035.39  1037.58  1052.58  1057.11  1070.95
eigval :     1071.60  1099.90  1118.20  1136.39  1141.60  1145.55
eigval :     1148.22  1156.05  1171.56  1173.15  1176.17  1178.41
eigval :     1182.30  1188.24  1190.75  1195.58  1195.74  1197.31
eigval :     1202.21  1209.67  1215.76  1223.92  1235.49  1239.41
eigval :     1243.18  1248.72  1250.78  1252.06  1270.14  1275.23
eigval :     1276.01  1280.39  1298.03  1298.35  1300.72  1305.43
eigval :     1313.28  1324.34  1325.48  1337.52  1338.36  1342.53
eigval :     1351.85  1355.28  1359.34  1369.43  1379.79  1409.19
eigval :     1409.35  1415.61  1416.15  1418.28  1418.63  1422.01
eigval :     1427.04  1445.54  1445.67  1446.28  1461.18  1472.15
eigval :     1473.66  1483.04  1487.92  1490.01  1492.04  1545.51
eigval :     1561.18  1571.66  1571.82  1573.12  1573.78  1585.47
eigval :     1587.28  1599.37  1599.85  1601.89  1602.07  1615.24
eigval :     1619.57  1673.84  1674.12  2354.45  2845.19  2885.06
eigval :     2892.35  2925.69  3041.80  3042.10  3062.06  3067.96
eigval :     3067.99  3072.50  3073.43  3075.17  3077.42  3079.05
eigval :     3079.71  3085.17  3085.37  3086.03  3086.83  3087.28
eigval :     3095.39  3095.89  3096.14  3096.40  3096.46  3104.59
eigval :     3105.90  3107.23  3107.78  3107.98  3110.26  3111.26
eigval :     3120.28  3126.75  3127.23

   temp. (K)  partition function   enthalpy   heat capacity  entropy
                                   cal/mol     cal/K/mol   cal/K/mol   J/K/mol
 298.15  VIB  0.178E+24            26997.285    163.403    171.739
         ROT  0.167E+09              888.752      2.981     40.603
         INT  0.296E+32            27886.038    166.384    212.342
         TR   0.178E+29             1481.254      4.968     45.488
         TOT                       29367.2916   171.3523   257.8302  1078.7618

       T/K    H(0)-H(T)+PV         H(T)/Eh          T*S/Eh         G(T)/Eh
   ------------------------------------------------------------------------
    298.15    0.467998E-01    0.728331E+00    0.122503E+00    0.605827E+00
   ------------------------------------------------------------------------

         :::::::::::::::::::::::::::::::::::::::::::::::::::::
         ::                  THERMODYNAMIC                  ::
         :::::::::::::::::::::::::::::::::::::::::::::::::::::
         :: total free energy        -139.106014464255 Eh   ::
         ::.................................................::
         :: total energy             -139.711841955660 Eh   ::
         :: zero point energy           0.681531203900 Eh   ::
         :: G(RRHO) w/o ZPVE           -0.075703712495 Eh   ::
         :: G(RRHO) contrib.            0.605827491405 Eh   ::
         :::::::::::::::::::::::::::::::::::::::::::::::::::::

           -------------------------------------------------
          | TOTAL ENERGY             -139.711841955660 Eh   |
          | TOTAL ENTHALPY           -138.983510993732 Eh   |
          | TOTAL FREE ENERGY        -139.106014464255 Eh   |
          | GRADIENT NORM               0.000040897057 Eh/α |
          | HOMO-LUMO GAP               2.122570145844 eV   |
           -------------------------------------------------

 * finished run on 2025/07/19 at 15:01:12.523
