   * xtb version 6.7.1 (edcfbbe) compiled by 'albert@albert-system' on 2024-07-22

   ID    Z sym.   atoms
    1    6 C      1-7, 9-20, 22-26, 28-36, 38-51, 53, 54
    2    8 O      8, 37
    3    7 N      21, 27, 52
    4    1 H      55-89

          program call               : xtb data2507/toluene/VBN0/VBN0_toluene_S0_crest.xyz --gfn 2 --gbsa toluene --ohess vtight --parallel 40 --molden --ceasefiles --namespace data2507/toluene/VBN0/VBN0_toluene_S0_finalOpt
      * Solvation model:               GBSA
        Solvent                        toluene
        Solvent mass                       9.2140E+01 g/mol
          :  Hamiltonian                  GFN2-xTB          :
 * total energy  :  -139.7130554 Eh     change       -0.6691295E-08 Eh
 * total energy  :  -139.7131663 Eh     change       -0.1109074E-03 Eh
 * total energy  :  -139.7132725 Eh     change       -0.1062049E-03 Eh
 * total energy  :  -139.7133247 Eh     change       -0.5220912E-04 Eh
 * total energy  :  -139.7134050 Eh     change       -0.8027883E-04 Eh
 * total energy  :  -139.7135023 Eh     change       -0.9732005E-04 Eh
 * total energy  :  -139.7135776 Eh     change       -0.7527901E-04 Eh
 * total energy  :  -139.7136540 Eh     change       -0.7642126E-04 Eh
 * total energy  :  -139.7137465 Eh     change       -0.9251227E-04 Eh
 * total energy  :  -139.7138551 Eh     change       -0.1086439E-03 Eh
 * total energy  :  -139.7158478 Eh     change       -0.9713613E-06 Eh
 * total energy  :  -139.7158484 Eh     change       -0.6253808E-06 Eh
 * total energy  :  -139.7158489 Eh     change       -0.4945541E-06 Eh
 * total energy  :  -139.7158495 Eh     change       -0.5410483E-06 Eh
 * total energy  :  -139.7158502 Eh     change       -0.7457078E-06 Eh
 * total energy  :  -139.7158511 Eh     change       -0.9265253E-06 Eh
 * total energy  :  -139.7158520 Eh     change       -0.8400831E-06 Eh
 * total energy  :  -139.7158526 Eh     change       -0.5834165E-06 Eh
 * total energy  :  -139.7158526 Eh     change       -0.4201354E-08 Eh
   *** GEOMETRY OPTIMIZATION CONVERGED AFTER 94 ITERATIONS ***

 final structure:
================
89
 xtb: 6.7.1 (edcfbbe)
C            9.62240508627311        1.18774796739345       -3.25235964601677
C            9.32822235525944        1.50640611881896       -1.99705452659817
C            8.69440666790089        0.64958609091892       -1.00141658658985
C            8.45046418997289        1.16411489368574        0.27404878185817
C            7.85020976434678        0.39682029263947        1.25225885203592
C            7.47788935479071       -0.91549697183344        0.98724214315292
C            6.83784136405158       -1.76296011281682        2.06014996903738
O            5.93520209983871       -2.73681036930070        1.57343375052280
C            4.75177163627586       -2.31908197750229        1.02821109674138
C            3.87479949971213       -3.35239790558662        0.66374298629054
C            2.64262798554431       -3.09597724852404        0.10175570504380
C            2.28670472427454       -1.77162158036468       -0.10990276909879
C            3.15054957689057       -0.72566766064029        0.27062645913734
C            4.38995246318720       -0.99534666542110        0.83922793364940
C            2.47336632960123        0.50268264060070       -0.04054463771682
C            2.82652365322307        1.84117246477741        0.07362306781107
C            1.93366788046591        2.80086257048825       -0.35982134164253
C            0.71140455200313        2.43941999853083       -0.92102306276256
C            0.34212737152361        1.11416508024248       -1.04863273610140
C            1.21851524101757        0.14602986069842       -0.58323751029671
N            1.11350220777940       -1.23404437399217       -0.62199653615781
C            0.02588235869193       -1.96934627676857       -1.09030118044403
C            0.21706923874739       -2.99420664723814       -2.01220750235357
C           -0.86047924871169       -3.73074862413328       -2.47124330199090
C           -2.14645608024800       -3.44584642052418       -2.04486893569770
C           -2.36838977332641       -2.42660134122179       -1.12582027565411
N           -3.65946904106350       -2.13273629246097       -0.68913966314727
C           -4.55366889855406       -3.02594262526256       -0.12262058811090
C           -4.42705928942989       -4.39128802532699        0.08488783127697
C           -5.47619041417591       -5.05082556432949        0.69846101283847
C           -6.62225288685804       -4.37267672327855        1.10646095916966
C           -6.74219823108389       -3.00861541064512        0.92472511037223
C           -5.70217378542671       -2.32448190925048        0.30939532283141
C           -5.48781671836914       -0.93996728391987       -0.01601773317154
C           -6.24307595016813        0.20711314806680        0.15949971664343
C           -5.73988709958710        1.42137376040484       -0.29736320214985
O           -6.52403600510130        2.51352201824223       -0.04072977362617
C           -6.06289069937427        3.79683249863568       -0.41131708057409
C           -4.77941888111391        4.22966153050602        0.25759301250299
C           -4.35119963569809        3.64897103162141        1.44447382494834
C           -3.15991401769003        4.03296424896707        2.02753719517116
C           -2.36959574022533        5.02807225976987        1.45319382464284
C           -1.09732531485285        5.45496954587760        2.02674360641040
C           -0.36870333120624        4.77427444553722        2.90290345161381
C           -2.82846815913270        5.63577546305062        0.28263307206760
C           -4.00660144629748        5.23427822370071       -0.31397864713290
C           -4.51910407726773        1.46852213052790       -0.97581046206660
C           -3.75641497734087        0.32896389185388       -1.15157402734859
C           -4.22147689690680       -0.86594786074329       -0.63467925099152
C           -1.27335314167237       -1.69740254123881       -0.62257190992211
C           -1.46288357523595       -0.78783102929647        0.43897449028036
N           -1.60356748541110       -0.10905437906021        1.35445440850672
C            7.72310771492399       -1.43935873383114       -0.27610513736484
C            8.31695902994729       -0.66983631304497       -1.25612421893437
H            9.40933129512136        0.22114744300776       -3.67579899170973
H           10.09472264829372        1.89611622119183       -3.91175343778714
H            9.57194437584358        2.50046174714736       -1.64057261599831
H            8.73433142550667        2.18309792979250        0.49743045976453
H            7.66748957399356        0.81807109127461        2.23135571758129
H            6.34452041359564       -1.12567173467099        2.80696656129630
H            7.61122316006417       -2.35076941182336        2.56944978062717
H            4.19383188625696       -4.36701357416204        0.84434266503676
H            1.97946706496423       -3.90880248208617       -0.15049542112700
H            5.03868253489892       -0.18013547847631        1.11251326326806
H            3.78402378519747        2.11924952243483        0.48737695379338
H            2.18511823925459        3.84729622240776       -0.27432021100153
H            0.03886415891997        3.20876265273985       -1.26952953812341
H           -0.60040032015499        0.85103207976119       -1.50347302257676
H            1.21316260292084       -3.19270828951483       -2.37532332360007
H           -0.69971720035876       -4.51931800196110       -3.18998817280630
H           -2.98928060544811       -3.99570176440689       -2.43288325653068
H           -3.53699477735340       -4.92515609104077       -0.21148633830845
H           -5.40320900640264       -6.11523607235334        0.86634243263221
H           -7.42183132986747       -4.92345062503530        1.57909900214473
H           -7.62293042435223       -2.47874253415351        1.25409010646560
H           -7.20516868072583        0.18424968193335        0.64586997949509
H           -6.87847337604527        4.46502221132887       -0.10931078968481
H           -5.95775512853018        3.86396999839876       -1.50395686190634
H           -4.95185926186528        2.88049951906255        1.90939643549772
H           -2.84784715419195        3.55951031206341        2.94524126379113
H           -0.73206298567387        6.40754546849122        1.66091092714941
H            0.56825208129799        5.15693491618406        3.27103897931349
H           -0.66308526876353        3.80672553665416        3.27255948893690
H           -2.23997746947911        6.41913227146018       -0.17451739608302
H           -4.33383703842858        5.70292213486336       -1.23194761731070
H           -4.14368687308846        2.40191400962473       -1.36181694923461
H           -2.82089406827543        0.38824856001991       -1.68639797746198
H            7.43630606811644       -2.45973467124359       -0.48738760760309
H            8.49172119241323       -1.10330447945173       -2.22840825563070

          :  Hamiltonian                  GFN2-xTB          :
         :: gradient norm              0.000090923367 Eh/a0 ::
         :: HOMO-LUMO gap              2.135168774580 eV    ::
         :: SCC energy              -142.242306209576 Eh    ::
         :: -> dispersion             -0.123475352281 Eh    ::
         :: -> Gsolv                  -0.061214275068 Eh    ::
         :: repulsion energy           2.526453645371 Eh    ::

    * Orbital Energies and Occupations

         #    Occupation            Energy/Eh            Energy/eV
      -------------------------------------------------------------
         1        2.0000           -0.7166628             -19.5014
       ...           ...                  ...                  ...
       117        2.0000           -0.4217038             -11.4751
       118        2.0000           -0.4197161             -11.4211
       119        2.0000           -0.4172300             -11.3534
       120        2.0000           -0.4083682             -11.1123
       121        2.0000           -0.4052924             -11.0286
       122        2.0000           -0.4011274             -10.9152
       123        2.0000           -0.3996027             -10.8737
       124        2.0000           -0.3845752             -10.4648
       125        2.0000           -0.3842528             -10.4561
       126        2.0000           -0.3826478             -10.4124
       127        2.0000           -0.3809509             -10.3662
       128        2.0000           -0.3654041              -9.9432
       129        2.0000           -0.3626425              -9.8680 (HOMO)
       130                         -0.2841766              -7.7328 (LUMO)
       131                         -0.2586002              -7.0369
       132                         -0.2542333              -6.9180
       133                         -0.2515828              -6.8459
       134                         -0.2492641              -6.7828
       135                         -0.2481870              -6.7535
       136                         -0.2256779              -6.1410
       137                         -0.2255990              -6.1389
       138                         -0.2246323              -6.1126
       139                         -0.2222186              -6.0469
       140                         -0.2176342              -5.9221
       ...                                ...                  ...
       251                          1.1521402              31.3513
      -------------------------------------------------------------
                  HL-Gap            0.0784659 Eh            2.1352 eV

     #   Z          covCN         q      C6AA      α(0)
     1   6 C        2.837    -0.086    30.140     8.997
     2   6 C        2.895    -0.031    28.778     8.796
     3   6 C        2.970     0.013    27.720     8.636
     4   6 C        2.928    -0.035    28.862     8.810
     5   6 C        2.920    -0.040    29.006     8.832
     6   6 C        2.968    -0.002    28.066     8.690
     7   6 C        3.697     0.077    19.454     6.309
     8   8 O        1.705    -0.292    18.855     5.863
     9   6 C        2.863     0.135    25.051     8.204
    10   6 C        2.925    -0.057    29.426     8.896
    11   6 C        2.909    -0.051    29.262     8.870
    12   6 C        3.070     0.037    27.094     8.535
    13   6 C        3.068    -0.016    28.328     8.727
    14   6 C        2.911    -0.070    29.737     8.942
    15   6 C        3.068    -0.016    28.333     8.728
    16   6 C        2.913    -0.033    28.815     8.802
    17   6 C        2.920    -0.039    28.973     8.827
    18   6 C        2.924    -0.032    28.789     8.799
    19   6 C        2.910    -0.047    29.158     8.854
    20   6 C        3.069     0.049    26.837     8.495
    21   7 N        2.801    -0.049    22.179     6.995
    22   6 C        2.916     0.073    26.366     8.420
    23   6 C        2.920    -0.047    29.171     8.857
    24   6 C        2.917    -0.019    28.489     8.753
    25   6 C        2.919    -0.047    29.164     8.856
    26   6 C        2.916     0.073    26.365     8.420
    27   7 N        2.800    -0.051    22.217     7.001
    28   6 C        3.068     0.048    26.862     8.498
    29   6 C        2.910    -0.052    29.297     8.875
    30   6 C        2.924    -0.033    28.819     8.804
    31   6 C        2.920    -0.040    28.997     8.830
    32   6 C        2.913    -0.032    28.806     8.801
    33   6 C        3.068    -0.015    28.305     8.724
    34   6 C        3.062    -0.014    28.304     8.724
    35   6 C        2.914    -0.061    29.508     8.908
    36   6 C        2.861     0.136    25.025     8.200
    37   8 O        1.705    -0.292    18.854     5.863
    38   6 C        3.695     0.078    19.450     6.309
    39   6 C        2.968    -0.003    28.095     8.694
    40   6 C        2.921    -0.030    28.754     8.793
    41   6 C        2.923    -0.032    28.795     8.800
    42   6 C        2.971     0.013    27.711     8.635
    43   6 C        2.895    -0.031    28.779     8.796
    44   6 C        2.838    -0.085    30.113     8.993
    45   6 C        2.927    -0.035    28.882     8.813
    46   6 C        2.921    -0.043    29.057     8.840
    47   6 C        2.922    -0.065    29.621     8.925
    48   6 C        2.911    -0.048    29.195     8.860
    49   6 C        3.071     0.040    27.039     8.526
    50   6 C        2.975    -0.015    28.385     8.739
    51   6 C        1.910     0.133    27.859     8.524
    52   7 N        0.911    -0.281    27.243     7.549
    53   6 C        2.921    -0.032    28.792     8.799
    54   6 C        2.923    -0.033    28.829     8.805
    55   1 H        0.926     0.041     2.434     2.440
    56   1 H        0.926     0.039     2.458     2.452
    57   1 H        0.925     0.037     2.495     2.470
    58   1 H        0.926     0.037     2.483     2.464
    59   1 H        0.925     0.032     2.561     2.502
    60   1 H        0.923     0.037     2.488     2.467
    61   1 H        0.924     0.061     2.190     2.314
    62   1 H        0.926     0.049     2.327     2.385
    63   1 H        0.926     0.042     2.426     2.436
    64   1 H        0.926     0.043     2.415     2.430
    65   1 H        0.926     0.038     2.476     2.461
    66   1 H        0.926     0.037     2.496     2.470
    67   1 H        0.926     0.034     2.529     2.487
    68   1 H        0.926     0.018     2.766     2.601
    69   1 H        0.926     0.061     2.188     2.313
    70   1 H        0.926     0.064     2.155     2.295
    71   1 H        0.926     0.061     2.185     2.312
    72   1 H        0.926     0.034     2.532     2.489
    73   1 H        0.926     0.037     2.482     2.464
    74   1 H        0.926     0.035     2.510     2.478
    75   1 H        0.926     0.037     2.482     2.464
    76   1 H        0.926     0.049     2.336     2.390
    77   1 H        0.924     0.062     2.174     2.306
    78   1 H        0.923     0.038     2.480     2.463
    79   1 H        0.926     0.034     2.536     2.490
    80   1 H        0.926     0.040     2.443     2.444
    81   1 H        0.925     0.038     2.477     2.461
    82   1 H        0.926     0.040     2.453     2.449
    83   1 H        0.926     0.041     2.430     2.438
    84   1 H        0.926     0.037     2.484     2.465
    85   1 H        0.925     0.032     2.559     2.501
    86   1 H        0.926     0.040     2.445     2.445
    87   1 H        0.926     0.023     2.688     2.564
    88   1 H        0.926     0.037     2.489     2.467
    89   1 H        0.926     0.040     2.446     2.446

molecular dipole:
                 x           y           z       tot (Debye)
 q only:        0.917      -0.412      -1.281
   full:        1.012      -0.507      -1.610       5.003

 projected vibrational frequencies (cm⁻¹)
eigval :       -0.00    -0.00     0.00     0.00     0.00     0.00
eigval :        5.14     9.14    12.70    14.71    20.65    26.52
eigval :       32.85    36.29    38.85    48.14    49.45    51.94
eigval :       61.24    67.40    82.31    86.31    96.73    99.42
eigval :      109.66   118.92   121.24   131.84   137.14   142.30
eigval :      157.56   158.15   166.70   197.15   206.10   224.66
eigval :      228.43   234.63   248.11   248.72   252.85   261.05
eigval :      274.14   288.64   299.25   304.18   314.69   319.81
eigval :      333.41   354.59   368.65   369.86   383.17   389.30
eigval :      394.25   395.21   398.36   410.84   412.86   423.53
eigval :      426.73   427.70   431.68   443.41   450.63   492.64
eigval :      495.00   505.18   507.90   515.58   522.54   529.97
eigval :      534.25   544.56   560.57   574.34   576.39   585.82
eigval :      589.30   592.99   596.32   601.99   605.85   611.05
eigval :      616.68   619.96   627.12   633.66   658.35   668.46
eigval :      669.33   687.38   694.47   696.29   702.88   703.78
eigval :      709.75   726.83   742.18   744.19   755.97   769.33
eigval :      771.69   772.85   801.46   805.33   807.41   810.32
eigval :      812.34   843.90   850.83   852.58   856.34   858.17
eigval :      860.77   863.55   866.62   866.77   868.03   887.30
eigval :      888.24   890.07   893.76   900.40   900.73   906.15
eigval :      908.01   912.79   914.55   919.24   920.38   922.32
eigval :      923.67   924.90   926.32   928.95   985.18   988.65
eigval :     1000.11  1000.82  1008.69  1012.88  1019.27  1024.71
eigval :     1035.09  1035.40  1037.61  1057.39  1060.71  1069.84
eigval :     1071.22  1098.83  1117.76  1138.09  1144.14  1146.08
eigval :     1148.21  1154.32  1170.08  1172.94  1177.19  1178.26
eigval :     1181.55  1191.47  1193.75  1195.38  1196.44  1201.52
eigval :     1203.00  1215.40  1218.03  1220.57  1237.72  1239.03
eigval :     1244.07  1247.59  1250.18  1250.33  1269.31  1270.05
eigval :     1275.81  1282.46  1296.70  1296.85  1297.95  1304.05
eigval :     1312.44  1318.18  1323.20  1337.19  1337.61  1341.40
eigval :     1352.39  1355.59  1358.90  1365.62  1383.76  1408.03
eigval :     1409.83  1413.60  1416.06  1417.34  1418.41  1422.52
eigval :     1426.32  1444.42  1446.34  1446.94  1448.93  1466.56
eigval :     1473.73  1482.67  1487.94  1489.86  1490.40  1544.61
eigval :     1561.19  1571.40  1571.66  1572.14  1574.26  1585.54
eigval :     1587.90  1599.27  1600.26  1600.82  1602.25  1615.05
eigval :     1620.81  1673.54  1675.39  2352.37  2869.78  2883.99
eigval :     2926.19  2927.02  3038.29  3040.01  3060.86  3061.46
eigval :     3073.33  3073.99  3076.84  3077.00  3079.51  3079.98
eigval :     3082.40  3082.64  3083.71  3089.32  3089.65  3090.81
eigval :     3094.73  3096.61  3096.97  3098.70  3100.00  3105.19
eigval :     3105.79  3106.47  3107.51  3107.59  3110.60  3118.33
eigval :     3121.03  3126.83  3126.95

   temp. (K)  partition function   enthalpy   heat capacity  entropy
                                   cal/mol     cal/K/mol   cal/K/mol   J/K/mol
 298.15  VIB  0.143E+23            26769.365    164.531    169.169
         ROT  0.126E+09              888.752      2.981     40.044
         INT  0.180E+31            27658.118    167.512    209.213
         TR   0.178E+29             1481.254      4.968     45.488
         TOT                       29139.3715   172.4799   254.7018  1065.6724

       T/K    H(0)-H(T)+PV         H(T)/Eh          T*S/Eh         G(T)/Eh
   ------------------------------------------------------------------------
    298.15    0.464365E-01    0.728413E+00    0.121017E+00    0.607396E+00
   ------------------------------------------------------------------------

         :::::::::::::::::::::::::::::::::::::::::::::::::::::
         ::                  THERMODYNAMIC                  ::
         :::::::::::::::::::::::::::::::::::::::::::::::::::::
         :: total free energy        -139.108456987526 Eh   ::
         ::.................................................::
         :: total energy             -139.715852563185 Eh   ::
         :: zero point energy           0.681976079334 Eh   ::
         :: G(RRHO) w/o ZPVE           -0.074580503675 Eh   ::
         :: G(RRHO) contrib.            0.607395575658 Eh   ::
         :::::::::::::::::::::::::::::::::::::::::::::::::::::

           -------------------------------------------------
          | TOTAL ENERGY             -139.715852563185 Eh   |
          | TOTAL ENTHALPY           -138.987439939567 Eh   |
          | TOTAL FREE ENERGY        -139.108456987526 Eh   |
          | GRADIENT NORM               0.000091123840 Eh/α |
          | HOMO-LUMO GAP               2.135167027630 eV   |
           -------------------------------------------------

 * finished run on 2025/07/19 at 15:18:42.475
