   * xtb version 6.7.1 (edcfbbe) compiled by 'albert@albert-system' on 2024-07-22

   ID    Z sym.   atoms
    1    6 C      1-12, 14-23, 25-38, 40-53, 57-59, 61-73
    2    7 N      13, 24, 39, 54, 56, 60
    3   16 S      55
    4    1 H      74-113

          program call               : xtb data2507/gas/BCPBT/BCPBT_gas_S0_finalOpt.xtbopt.xyz --gfn 2 --spinpol --tblite --uhf 2 --ohess vtight --parallel 40 --molden --ceasefiles --namespace data2507/gas/BCPBT/BCPBT_gas_T1_preOpt
 * total energy  :  -182.6175825 Eh     change       -0.1236458E-08 Eh
 * total energy  :  -182.6220329 Eh     change       -0.4450449E-02 Eh
 * total energy  :  -182.6236706 Eh     change       -0.1637623E-02 Eh
 * total energy  :  -182.6237934 Eh     change       -0.1227878E-03 Eh
 * total energy  :  -182.6238586 Eh     change       -0.6524970E-04 Eh
 * total energy  :  -182.6238893 Eh     change       -0.3071824E-04 Eh
 * total energy  :  -182.6239162 Eh     change       -0.2685349E-04 Eh
 * total energy  :  -182.6239408 Eh     change       -0.2458197E-04 Eh
 * total energy  :  -182.6239575 Eh     change       -0.1674103E-04 Eh
 * total energy  :  -182.6239671 Eh     change       -0.9553889E-05 Eh
 * total energy  :  -182.6245449 Eh     change       -0.6607459E-06 Eh
 * total energy  :  -182.6245458 Eh     change       -0.9363526E-06 Eh
 * total energy  :  -182.6245466 Eh     change       -0.7918897E-06 Eh
 * total energy  :  -182.6245474 Eh     change       -0.8259822E-06 Eh
 * total energy  :  -182.6245483 Eh     change       -0.8543271E-06 Eh
 * total energy  :  -182.6245491 Eh     change       -0.8517974E-06 Eh
 * total energy  :  -182.6245500 Eh     change       -0.8921446E-06 Eh
 * total energy  :  -182.6245509 Eh     change       -0.8795866E-06 Eh
 * total energy  :  -182.6245509 Eh     change       -0.1961564E-07 Eh
   *** GEOMETRY OPTIMIZATION CONVERGED AFTER 260 ITERATIONS ***

 final structure:
================
113
 xtb: 6.7.1 (edcfbbe)
C           -8.71577576352973       -2.23246724610687       -4.01528416451628
C           -8.23056671820654       -0.99380374885953       -3.60261368561991
C           -7.23133271257430       -0.88956444943487       -2.65367959727661
C           -6.72845840699659       -2.06402943408442       -2.11170513500672
C           -7.19704859950374       -3.32654060912708       -2.54333985867214
C           -8.20086726789753       -3.40551546406841       -3.49852178946799
C           -6.43442259930056       -4.31188470879565       -1.82732159554596
C           -6.44286515555616       -5.69969017335569       -1.81043662292873
C           -5.56645020929370       -6.35636525565949       -0.96850966907604
C           -4.70122943894823       -5.64644401960975       -0.13926387333320
C           -4.67485069212186       -4.26477929232915       -0.13808942551073
C           -5.53569091199457       -3.59994806183479       -0.99989764951415
N           -5.72785347209058       -2.24452488232475       -1.17766986263414
C           -5.00927719002685       -1.22684621719826       -0.53524230520949
C           -3.62423090189223       -1.26202720954458       -0.52493356820563
C           -2.89003015453367       -0.24072446120635        0.09379680757922
C           -1.44931909752184       -0.22858910116990        0.05586187767903
C           -0.68594158467215       -1.42977554474365        0.00821023920459
C            0.67634896845649       -1.43360373071388       -0.00831823403645
C            1.44652998015597       -0.23659073946821       -0.05141068681474
C            2.88714894897568       -0.25676159443954       -0.08939450053987
C            3.59373819106383        0.77616366735863       -0.71934626331194
C            4.97796636908413        0.80576207208942       -0.70154854637372
N            5.65934033125975        1.86206097718384       -1.31583122352472
C            5.34948856027752        3.20385370613342       -1.18073464531853
C            4.35527755801705        3.81442724810883       -0.42756031114163
C            4.28475210770619        5.19468283879921       -0.45680470307627
C            5.18081393435205        5.95651084055128       -1.20263631092240
C            6.18461206337143        5.35456412055470       -1.93744589700776
C            6.27418768977505        3.96999883850026       -1.92720868620268
C            7.17131550178916        3.03674728559723       -2.55266993512174
C            8.25097199047423        3.18243936379593       -3.41121556974980
C            8.89295128598863        2.04620212151838       -3.86646545271169
C            8.45691513746248        0.77873212159308       -3.48965006052854
C            7.38356908740275        0.60892328097687       -2.63533712490925
C            6.75363029146563        1.74682817437385       -2.14968261315376
C            5.69382677273419       -0.21054730879467       -0.06913213568791
C            5.00076458780656       -1.25735480498873        0.53577617163928
N            5.71353925938448       -2.28155168049692        1.17430303787476
C            6.71501589871364       -2.11029430879890        2.10914126549631
C            7.22444298141180       -0.94077241720347        2.65567577959656
C            8.22293209801640       -1.05429042350610        3.60432843031375
C            8.70107730701154       -2.29724488148210        4.01231035209935
C            8.17962846410063       -3.46537942014438        3.49098626762678
C            7.17641455797685       -3.37707547014716        2.53599247569555
C            6.40833607829037       -4.35534753267478        1.81610837159305
C            6.40894875757212       -5.74309921446982        1.79390241670672
C            5.52895049271715       -6.39158506621816        0.94936456670294
C            4.66785392313674       -5.67361620680216        0.12276148781725
C            4.64927155189233       -4.29183017909695        0.12688407513806
C            5.51374794768239       -3.63517475527639        0.99132121557718
C            3.61553581974364       -1.28462089506037        0.52534283431350
C            0.72228313870809        0.97745762956430       -0.03978619627714
N            1.23445219584927        2.20424272913826       -0.05833079808479
S            0.00859035835076        3.29672031328796        0.00888995949533
N           -1.22343450317977        2.21095185038216        0.07200116724025
C           -0.71821077599704        0.98136717983717        0.04882046344819
C           -3.59074032260888        0.79372504585785        0.72780115133291
C           -4.97477052294908        0.83126934677062        0.71010602683250
N           -5.65016529890474        1.88898814844673        1.32854148518355
C           -6.74526510060009        1.77666312800594        2.16174604470188
C           -7.38178076979306        0.64044430646856        2.64273190086412
C           -8.45434009343459        0.81295662890511        3.49749278623888
C           -8.88322747749851        2.08138289680541        3.87927880094026
C           -8.23466069716405        3.21573735627139        3.42873007745010
C           -7.15564679477407        3.06732118268727        2.56982012435578
C           -6.25307268391521        3.99792510931930        1.94829133978357
C           -6.15557521561567        5.38191702831648        1.96414158296156
C           -5.14821246411380        5.98107100316325        1.23195709534144
C           -4.25638498347426        5.21714683695929        0.48318884204824
C           -4.33480580063420        3.83744545763430        0.44834648518185
C           -5.33262121160386        3.22953422689753        1.19888932673411
C           -5.69638618042319       -0.17846268481024        0.07371138514600
H           -9.49848650368952       -2.27165301044776       -4.75800941218335
H           -8.64049808722107       -0.09423582321941       -4.03723728063763
H           -6.84724913657772        0.07496001319347       -2.35799919014318
H           -8.56495694067716       -4.36574706100331       -3.83116424931359
H           -7.12452655977461       -6.25012113323805       -2.44098442269961
H           -5.55454744936960       -7.43573077142869       -0.94280109094421
H           -4.03835699602732       -6.18760197513571        0.51963545761186
H           -4.01396535455400       -3.72253662713130        0.52138722764196
H           -3.11613356478533       -2.05172245039300       -1.05599398504627
H           -1.21450372625995       -2.37072795573085        0.02992567388008
H            1.19956166238008       -2.37745159390709       -0.03361154334695
H            3.04700117532668        1.54255000399662       -1.24159660056494
H            3.65227858515351        3.24166251290879        0.15617594061572
H            3.51396456599767        5.69157823115196        0.11285625114103
H            5.08991840944821        7.03252336142478       -1.20104029527179
H            6.88680325168637        5.94410071080212       -2.50735888777580
H            8.57584124326586        4.16442514142262       -3.71993549264008
H            9.73672694699365        2.13761277753790       -4.53390270473744
H            8.96445387043756       -0.09202576190237       -3.87746291318048
H            7.04013404015886       -0.38012600513720       -2.37283002251627
H            6.77174296530692       -0.18722767863926       -0.04229369691461
H            6.84585861303587        0.02703096207478        2.36364074816963
H            8.63787349421414       -0.15872401822676        4.04244900357394
H            9.48344443035849       -2.34369794995741        4.75497918517762
H            8.53824376243308       -4.42891862907902        3.81999284323367
H            7.08740792686281       -6.29978678549458        2.42240880311874
H            5.51096356946230       -7.47076029488593        0.91951285782922
H            4.00201983714466       -6.20849550398363       -0.53827597823330
H            3.99153287125415       -3.74333776200627       -0.53056717955407
H            3.10296171060353       -2.07348235037619        1.05333435271314
H           -3.03965820273532        1.55491301599088        1.25307592887316
H           -7.04393031955381       -0.34949759466122        2.37637042208260
H           -8.96692606530419       -0.05643575235505        3.88171030804839
H           -9.72663067725409        2.17493754414589        4.54688898946345
H           -8.55397788612047        4.19832117187661        3.74131267076519
H           -6.85449802684293        5.97314307811584        2.53631620772775
H           -5.05115285322557        7.05654229599779        1.23473798301318
H           -3.48266075505251        5.71191903672152       -0.08433214612297
H           -3.63499023472835        3.26304918228676       -0.13760883968400
H           -6.77414829024773       -0.14889671709578        0.04694500820930

 projected vibrational frequencies (cm⁻¹)
eigval :       -0.00    -0.00    -0.00    -0.00     0.00     0.00
eigval :        5.61     7.69    12.72    18.66    18.79    20.76
eigval :       21.23    22.20    25.57    26.48    26.96    30.78
eigval :       53.43    65.85    71.02    72.16    86.17    87.86
eigval :       89.89    98.55   106.35   108.53   108.78   132.86
eigval :      137.85   138.32   140.18   142.62   145.34   148.90
eigval :      149.00   176.10   177.21   196.01   207.75   225.89
eigval :      231.90   236.45   243.69   245.77   256.33   257.72
eigval :      271.00   271.13   271.53   272.67   285.64   290.77
eigval :      302.15   312.97   320.88   339.63   347.93   360.83
eigval :      367.81   392.44   393.38   394.02   395.41   395.66
eigval :      402.09   422.15   422.58   422.74   422.85   435.45
eigval :      436.20   436.92   437.55   437.85   452.53   478.51
eigval :      497.38   507.82   507.99   515.88   516.45   518.47
eigval :      518.69   519.53   526.37   534.54   534.57   538.66
eigval :      538.72   540.00   540.01   544.33   544.64   575.47
eigval :      583.00   586.77   586.79   589.95   591.41   597.89
eigval :      614.89   620.25   621.04   630.00   631.35   632.30
eigval :      636.51   650.99   664.01   664.33   673.46   674.15
eigval :      674.31   675.45   675.51   708.84   708.85   709.72
eigval :      709.84   714.11   741.61   748.12   748.95   753.79
eigval :      756.80   768.65   768.74   769.19   769.61   770.08
eigval :      770.19   774.08   779.46   779.61   779.86   780.24
eigval :      781.70   790.11   822.86   826.81   835.84   861.73
eigval :      861.90   863.32   863.50   872.06   872.11   876.23
eigval :      876.36   882.43   882.97   887.19   887.55   890.39
eigval :      895.05   896.41   896.42   898.72   899.06   901.14
eigval :      903.21   903.26   904.63   904.64   906.04   906.10
eigval :      907.91   908.17   921.71   921.73   922.60   922.62
eigval :      923.31   923.38   925.26   925.48   984.91   989.43
eigval :     1007.92  1010.25  1011.53  1011.68  1023.06  1033.44
eigval :     1035.53  1055.37  1069.79  1070.04  1071.74  1071.85
eigval :     1073.09  1073.14  1075.20  1075.31  1113.71  1122.49
eigval :     1123.37  1124.49  1125.93  1147.37  1149.88  1149.93
eigval :     1150.20  1151.37  1164.25  1165.56  1175.77  1177.19
eigval :     1179.16  1179.21  1180.19  1180.21  1181.24  1181.27
eigval :     1188.05  1194.61  1226.03  1229.34  1231.47  1232.76
eigval :     1233.42  1234.89  1235.23  1235.66  1237.81  1239.98
eigval :     1246.25  1262.62  1275.65  1292.55  1293.06  1293.85
eigval :     1294.50  1298.44  1299.30  1299.46  1299.93  1320.51
eigval :     1322.99  1330.14  1332.52  1334.10  1338.81  1350.60
eigval :     1350.86  1356.81  1357.05  1358.01  1358.14  1358.35
eigval :     1359.35  1377.68  1388.34  1390.47  1397.56  1408.64
eigval :     1412.92  1417.73  1418.68  1422.58  1422.94  1428.81
eigval :     1430.74  1432.61  1443.77  1444.43  1447.35  1447.85
eigval :     1468.48  1468.63  1472.72  1472.82  1484.74  1484.88
eigval :     1486.86  1486.92  1523.11  1526.68  1528.76  1533.25
eigval :     1545.78  1569.58  1569.64  1572.28  1572.34  1583.04
eigval :     1583.10  1586.99  1587.07  1587.56  1587.59  1593.35
eigval :     1593.38  1604.83  1605.40  1609.71  1610.05  3077.39
eigval :     3077.44  3078.71  3078.73  3078.82  3078.87  3079.68
eigval :     3079.72  3080.58  3082.45  3082.50  3084.03  3084.10
eigval :     3084.14  3084.17  3087.62  3087.71  3089.04  3089.11
eigval :     3091.29  3091.33  3091.37  3091.37  3092.84  3095.00
eigval :     3095.39  3096.13  3096.29  3097.00  3097.18  3098.12
eigval :     3098.74  3102.36  3103.05  3106.89  3107.09  3107.30
eigval :     3107.65  3131.50  3131.74

   temp. (K)  partition function   enthalpy   heat capacity  entropy
                                   cal/mol     cal/K/mol   cal/K/mol   J/K/mol
 298.15  VIB  0.921E+27            33314.521    210.991    207.081
         ROT  0.175E+09              888.752      2.981     40.702
         INT  0.161E+36            34203.273    213.972    247.783
         TR   0.283E+29             1481.254      4.968     46.405
         TOT                       35684.5268   218.9404   294.1882  1230.8835

       T/K    H(0)-H(T)+PV         H(T)/Eh          T*S/Eh         G(T)/Eh
   ------------------------------------------------------------------------
    298.15    0.568669E-01    0.905078E+00    0.139778E+00    0.765299E+00
   ------------------------------------------------------------------------

         :::::::::::::::::::::::::::::::::::::::::::::::::::::
         ::                  THERMODYNAMIC                  ::
         :::::::::::::::::::::::::::::::::::::::::::::::::::::
         :: total free energy        -181.859251461878 Eh   ::
         ::.................................................::
         :: total energy             -182.624550954733 Eh   ::
         :: zero point energy           0.848210894898 Eh   ::
         :: G(RRHO) w/o ZPVE           -0.082911402043 Eh   ::
         :: G(RRHO) contrib.            0.765299492855 Eh   ::
         :::::::::::::::::::::::::::::::::::::::::::::::::::::

           -------------------------------------------------
          | TOTAL ENERGY             -182.624550954733 Eh   |
          | TOTAL ENTHALPY           -181.719473146642 Eh   |
          | TOTAL FREE ENERGY        -181.859251461878 Eh   |
          | GRADIENT NORM               0.000076159256 Eh/α |
           -------------------------------------------------

 * finished run on 2025/08/24 at 04:08:00.726
