   * xtb version 6.7.1 (edcfbbe) compiled by 'albert@albert-system' on 2024-07-22

   ID    Z sym.   atoms
    1    6 C      1-12, 14-23, 25-38, 40-53, 57-59, 61-73
    2    7 N      13, 24, 39, 54, 56, 60
    3   16 S      55
    4    1 H      74-113

          program call               : xtb data2507/gas/BCPBT/BCPBT_gas_S0_crest.xyz --gfn 2 --ohess vtight --parallel 40 --molden --ceasefiles --namespace data2507/gas/BCPBT/BCPBT_gas_S0_finalOpt
          :  Hamiltonian                  GFN2-xTB          :
 * total energy  :  -182.6876789 Eh     change       -0.4724313E-08 Eh
 * total energy  :  -182.6876799 Eh     change       -0.1058434E-05 Eh
 * total energy  :  -182.6876813 Eh     change       -0.1321363E-05 Eh
 * total energy  :  -182.6876838 Eh     change       -0.2589365E-05 Eh
 * total energy  :  -182.6876858 Eh     change       -0.1923413E-05 Eh
 * total energy  :  -182.6876877 Eh     change       -0.1926774E-05 Eh
 * total energy  :  -182.6876897 Eh     change       -0.1963889E-05 Eh
 * total energy  :  -182.6876913 Eh     change       -0.1653363E-05 Eh
 * total energy  :  -182.6876927 Eh     change       -0.1414819E-05 Eh
 * total energy  :  -182.6876940 Eh     change       -0.1313077E-05 Eh
 * total energy  :  -182.6876971 Eh     change       -0.4913438E-06 Eh
 * total energy  :  -182.6876976 Eh     change       -0.4373181E-06 Eh
 * total energy  :  -182.6876980 Eh     change       -0.4509625E-06 Eh
 * total energy  :  -182.6876986 Eh     change       -0.5747208E-06 Eh
 * total energy  :  -182.6876993 Eh     change       -0.7041155E-06 Eh
 * total energy  :  -182.6877000 Eh     change       -0.6848233E-06 Eh
 * total energy  :  -182.6877005 Eh     change       -0.5051994E-06 Eh
 * total energy  :  -182.6877009 Eh     change       -0.3868408E-06 Eh
 * total energy  :  -182.6877009 Eh     change       -0.6914576E-08 Eh
   *** GEOMETRY OPTIMIZATION CONVERGED AFTER 22 ITERATIONS ***

 final structure:
================
113
 xtb: 6.7.1 (edcfbbe)
C           -8.79784038711006       -1.96610788418531       -4.14182263654428
C           -8.32441002351218       -0.75424969903760       -3.64417085891516
C           -7.30396431039077       -0.70464528915148       -2.71373306103299
C           -6.76602603234962       -1.90699115579773       -2.27821517425141
C           -7.22265384601149       -3.14039822638158       -2.79659303742755
C           -8.24907082982047       -3.16444945873021       -3.73153122551671
C           -6.42755590602905       -4.16425280565132       -2.17806916485955
C           -6.41518953044992       -5.54983907310785       -2.26858489896427
C           -5.51194231734583       -6.25525174048552       -1.49890250869018
C           -4.64005304993878       -5.59723348942660       -0.63447704108640
C           -4.63390087818754       -4.21964080893485       -0.52709166902565
C           -5.52112881667031       -3.50382989213478       -1.31785896585831
N           -5.73668694723175       -2.14099023717208       -1.38646272826133
C           -5.02262995242934       -1.17109354811490       -0.67255352048452
C           -3.63272349864248       -1.19286110951345       -0.68162962639698
C           -2.91174959581863       -0.24302337315313        0.03575612083426
C           -1.44749631556566       -0.24788367627961        0.01502091782879
C           -0.70552285211416       -1.40827668246065       -0.01075007799696
C            0.69608861938482       -1.41178365010579       -0.03043276712548
C            1.44398631526460       -0.25502865728475       -0.04420090084798
C            2.90835032546603       -0.25713034476830       -0.05638588994496
C            3.60240040793639        0.71210111003295       -0.77262836578818
C            4.99126365866677        0.75080572441838       -0.74369828707197
N            5.67042323768861        1.75964311704330       -1.43232601107039
C            5.35660727270120        3.10727984158890       -1.39100571650061
C            4.36448065938652        3.76570924031655       -0.67787053042812
C            4.28854194563625        5.14013998545892       -0.80177582620187
C            5.17868199897210        5.85191792052950       -1.60269519889785
C            6.18202845020544        5.20424428506606       -2.29488164390693
C            6.27803271999080        3.82295331629504       -2.18857214749844
C            7.18181170962324        2.85365473465631       -2.74247506199543
C            8.26597297888248        2.94601819447391       -3.60489042600652
C            8.91912068747477        1.78688066575253       -3.97304986047528
C            8.49126170322211        0.54636547235304       -3.50640744918624
C            7.41523919385498        0.42961914936492       -2.64710260491968
C            6.77268214339646        1.59345278903354       -2.24976998689247
C            5.69872554496565       -0.20841611823802       -0.02597838360661
C            5.00884252539754       -1.19739933639375        0.66615969858371
N            5.71246364584251       -2.17362143941959        1.38179970948542
C            6.73268079228811       -1.94771723362307        2.28595289746274
C            7.26868448324527       -0.74936192722844        2.73463852555073
C            8.27810947386401       -0.80713058879704        3.67652981031834
C            8.74286343831207       -2.02316102666705        4.17221318578085
C            8.19597680755467       -3.21763905988925        3.74834889382869
C            7.18018437867724       -3.18536799873271        2.80213255278500
C            6.38863798482169       -4.20332116442663        2.16947507312473
C            6.37055750382541       -5.58929564562113        2.25275092899134
C            5.47241604890265       -6.28758447468033        1.47069830965872
C            4.61143603868677       -5.62208961665385        0.60107381264446
C            4.61136601548030       -4.24397523414549        0.50043328522482
C            5.49323281234882       -3.53533903258373        1.30356648733387
C            3.61890952254406       -1.21398255265314        0.66198950497286
C            0.72078739511965        0.96177048679162       -0.03080837924963
N            1.21891192499959        2.20016950902649       -0.02962400695193
S            0.00738718076887        3.25261751983711       -0.00092835183258
N           -1.20953139395035        2.20628694028307        0.01939514410412
C           -0.71797114799567        0.96529660799128        0.01040911315837
C           -3.59568160497918        0.72547899448270        0.76264753585514
C           -4.98449809625405        0.77010104299085        0.74623987022653
N           -5.65229272377475        1.78004019196235        1.44436611340444
C           -6.74546900828525        1.61732323624342        2.27440628044447
C           -7.38808927727340        0.45554489683326        2.67753547251699
C           -8.45259239293235        0.57541366061698        3.55065751658640
C           -8.86912007525835        1.81696270145831        4.02478775057080
C           -8.21601091547022        2.97401687581432        3.65003282668019
C           -7.14320525721655        2.87854213829109        2.77387796782419
C           -6.24208202645726        3.84484703761460        2.21044792123516
C           -6.13916749545339        5.22565464719832        2.31669690652045
C           -5.14111574665828        5.86976533441799        1.61359499542574
C           -4.26282624461916        5.15505080429869        0.80226804067057
C           -4.34598917769103        3.78109463661187        0.67797709115053
C           -5.33298555144936        3.12628591054627        1.40144932775177
C           -5.70241266552005       -0.18334258214483        0.03135573098640
H           -9.59902769198288       -1.96228209002727       -4.86572049393776
H           -8.76213534077813        0.16832060248047       -3.99582836864956
H           -6.93216796397531        0.24171648202296       -2.35096163383443
H           -8.60374395094571       -4.10325903299090       -4.12932633179191
H           -7.10306037814873       -6.06058065661537       -2.92530257828439
H           -5.48403692689266       -7.33315385006386       -1.55628709379415
H           -3.95664288037140       -6.17690708146777       -0.03141828418194
H           -3.96948403004659       -3.72003638239924        0.16215453720179
H           -3.11931447104069       -1.92699089399340       -1.28320679201082
H           -1.21735860371509       -2.35897588781391        0.00433202455602
H            1.20316728284631       -2.36487661240451       -0.05350145461085
H            3.06164642486199        1.43085596985892       -1.36509829835278
H            3.67250578911178        3.23149203150890       -0.04564087085260
H            3.52132076268545        5.67469184009723       -0.26100784838247
H            5.08369217005249        6.92530904720519       -1.67404363286189
H            6.88208410864073        5.75507297277004       -2.90477263690850
H            8.58417247475713        3.90649063304966       -3.98125274477132
H            9.76647531312497        1.83624301636918       -4.64052314618339
H            9.00913889244691       -0.34586542533560       -3.82614480896190
H            7.08107120730550       -0.54074736520068       -2.31227729568394
H            6.77682742894652       -0.18370607629163       -0.00067314591888
H            6.90346130667830        0.20008720809078        2.37324500115084
H            8.71378264027234        0.11223603765102        4.03894783337333
H            9.53556989857491       -2.02570396116041        4.90538621038968
H            8.54381677838698       -4.15974645477674        4.14436854398664
H            7.05003028010553       -6.10575575467700        2.91372368492179
H            5.43992937749148       -7.36564020879203        1.52255504711762
H            3.93174087904232       -6.19624804688204       -0.01138882599999
H            3.95548967479538       -3.73858313653376       -0.19276207887439
H            3.09700668632923       -1.94936360883817        1.25465807766273
H           -3.04705007902996        1.43927224792023        1.35385821922745
H           -7.06232776594311       -0.51555781687795        2.33656707859444
H           -8.97017948918574       -0.31511336187738        3.87557668886106
H           -9.70757197901225        1.86875957060443        4.70323445804859
H           -8.52545347579625        3.93521012868001        4.03182783132807
H           -6.82993902910029        5.77890858561461        2.93491834131018
H           -5.04097312012282        6.94271139264707        1.68458369714622
H           -3.49938252718532        5.68690693957298        0.25356115645782
H           -3.66332324919851        3.24435991631459        0.03781229240458
H           -6.78063937802734       -0.15512628515422        0.01725214850420

          :  Hamiltonian                  GFN2-xTB          :
         :: gradient norm              0.000055600712 Eh/a0 ::
         :: HOMO-LUMO gap              1.287072034314 eV    ::
         :: SCC energy              -186.048639673553 Eh    ::
         :: -> dispersion             -0.172634005445 Eh    ::
         :: repulsion energy           3.360938779139 Eh    ::

    * Orbital Energies and Occupations

         #    Occupation            Energy/Eh            Energy/eV
      -------------------------------------------------------------
         1        2.0000           -0.7706888             -20.9715
       ...           ...                  ...                  ...
       158        2.0000           -0.4065589             -11.0630
       159        2.0000           -0.4065273             -11.0622
       160        2.0000           -0.4044690             -11.0062
       161        2.0000           -0.4044161             -11.0047
       162        2.0000           -0.3907163             -10.6319
       163        2.0000           -0.3799715             -10.3395
       164        2.0000           -0.3799557             -10.3391
       165        2.0000           -0.3779565             -10.2847
       166        2.0000           -0.3779439             -10.2844
       167        2.0000           -0.3653632              -9.9420
       168        2.0000           -0.3651373              -9.9359
       169        2.0000           -0.3632711              -9.8851
       170        2.0000           -0.3632384              -9.8842 (HOMO)
       171                         -0.3159394              -8.5971 (LUMO)
       172                         -0.2628609              -7.1528
       173                         -0.2490653              -6.7774
       174                         -0.2490188              -6.7761
       175                         -0.2470998              -6.7239
       176                         -0.2450279              -6.6675
       177                         -0.2411750              -6.5627
       178                         -0.2389774              -6.5029
       179                         -0.2389584              -6.5024
       180                         -0.2282147              -6.2100
       181                         -0.2232128              -6.0739
       ...                                ...                  ...
       337                          0.7464769              20.3127
      -------------------------------------------------------------
                  HL-Gap            0.0472990 Eh            1.2871 eV

     #   Z          covCN         q      C6AA      α(0)
     1   6 C        2.920    -0.040    29.000     8.831
     2   6 C        2.924    -0.033    28.817     8.803
     3   6 C        2.910    -0.051    29.258     8.870
     4   6 C        3.073     0.047    26.877     8.500
     5   6 C        3.069    -0.017    28.352     8.731
     6   6 C        2.913    -0.033    28.810     8.802
     7   6 C        3.067    -0.016    28.348     8.730
     8   6 C        2.913    -0.032    28.808     8.801
     9   6 C        2.920    -0.041    29.010     8.832
    10   6 C        2.924    -0.034    28.837     8.806
    11   6 C        2.910    -0.051    29.272     8.872
    12   6 C        3.075     0.046    26.883     8.501
    13   7 N        2.804    -0.044    22.087     6.980
    14   6 C        2.911     0.066    26.517     8.444
    15   6 C        2.927    -0.055    29.361     8.886
    16   6 C        2.975     0.017    27.631     8.622
    17   6 C        2.967    -0.001    28.043     8.686
    18   6 C        2.923    -0.036    28.904     8.817
    19   6 C        2.923    -0.036    28.904     8.817
    20   6 C        2.967    -0.001    28.043     8.686
    21   6 C        2.975     0.017    27.632     8.622
    22   6 C        2.929    -0.051    29.262     8.871
    23   6 C        2.911     0.068    26.489     8.439
    24   7 N        2.803    -0.042    22.052     6.974
    25   6 C        3.072     0.046    26.886     8.502
    26   6 C        2.909    -0.053    29.322     8.879
    27   6 C        2.924    -0.034    28.835     8.806
    28   6 C        2.920    -0.041    29.011     8.833
    29   6 C        2.913    -0.033    28.826     8.804
    30   6 C        3.068    -0.016    28.349     8.731
    31   6 C        3.067    -0.016    28.346     8.730
    32   6 C        2.913    -0.033    28.814     8.802
    33   6 C        2.920    -0.040    29.005     8.832
    34   6 C        2.924    -0.033    28.829     8.805
    35   6 C        2.910    -0.051    29.267     8.871
    36   6 C        3.071     0.046    26.894     8.503
    37   6 C        2.925    -0.061    29.506     8.908
    38   6 C        2.911     0.066    26.517     8.444
    39   7 N        2.804    -0.044    22.087     6.980
    40   6 C        3.074     0.047    26.877     8.500
    41   6 C        2.910    -0.051    29.258     8.870
    42   6 C        2.924    -0.033    28.817     8.803
    43   6 C        2.920    -0.040    29.000     8.831
    44   6 C        2.913    -0.033    28.810     8.802
    45   6 C        3.069    -0.017    28.352     8.731
    46   6 C        3.067    -0.016    28.348     8.730
    47   6 C        2.913    -0.032    28.808     8.801
    48   6 C        2.920    -0.041    29.010     8.833
    49   6 C        2.924    -0.034    28.837     8.806
    50   6 C        2.910    -0.051    29.272     8.872
    51   6 C        3.075     0.046    26.883     8.501
    52   6 C        2.927    -0.055    29.362     8.886
    53   6 C        3.346     0.072    23.851     7.706
    54   7 N        1.853    -0.272    27.920     7.831
    55  16 S        2.667     0.348   127.663    19.017
    56   7 N        1.853    -0.272    27.918     7.831
    57   6 C        3.346     0.072    23.855     7.707
    58   6 C        2.929    -0.051    29.263     8.871
    59   6 C        2.911     0.067    26.489     8.439
    60   7 N        2.803    -0.042    22.053     6.975
    61   6 C        3.071     0.046    26.893     8.503
    62   6 C        2.910    -0.051    29.266     8.871
    63   6 C        2.924    -0.033    28.829     8.805
    64   6 C        2.920    -0.040    29.005     8.832
    65   6 C        2.913    -0.033    28.814     8.802
    66   6 C        3.067    -0.016    28.347     8.730
    67   6 C        3.068    -0.016    28.349     8.731
    68   6 C        2.913    -0.033    28.826     8.804
    69   6 C        2.920    -0.041    29.011     8.833
    70   6 C        2.925    -0.034    28.835     8.806
    71   6 C        2.909    -0.053    29.321     8.879
    72   6 C        3.072     0.046    26.886     8.502
    73   6 C        2.925    -0.061    29.505     8.908
    74   1 H        0.926     0.029     2.601     2.522
    75   1 H        0.926     0.030     2.584     2.514
    76   1 H        0.926     0.028     2.619     2.531
    77   1 H        0.926     0.032     2.563     2.504
    78   1 H        0.926     0.032     2.561     2.503
    79   1 H        0.926     0.029     2.605     2.524
    80   1 H        0.926     0.029     2.604     2.524
    81   1 H        0.926     0.024     2.666     2.554
    82   1 H        0.926     0.045     2.380     2.412
    83   1 H        0.926     0.044     2.390     2.418
    84   1 H        0.926     0.044     2.390     2.418
    85   1 H        0.926     0.059     2.210     2.325
    86   1 H        0.926     0.042     2.426     2.436
    87   1 H        0.926     0.028     2.618     2.530
    88   1 H        0.926     0.028     2.619     2.531
    89   1 H        0.926     0.031     2.574     2.509
    90   1 H        0.926     0.031     2.566     2.505
    91   1 H        0.926     0.028     2.608     2.525
    92   1 H        0.926     0.029     2.595     2.519
    93   1 H        0.926     0.027     2.633     2.537
    94   1 H        0.926     0.052     2.291     2.367
    95   1 H        0.926     0.028     2.619     2.531
    96   1 H        0.926     0.030     2.585     2.514
    97   1 H        0.926     0.029     2.602     2.522
    98   1 H        0.926     0.032     2.563     2.504
    99   1 H        0.926     0.032     2.561     2.503
   100   1 H        0.926     0.029     2.605     2.524
   101   1 H        0.926     0.029     2.604     2.524
   102   1 H        0.926     0.024     2.667     2.554
   103   1 H        0.926     0.045     2.380     2.413
   104   1 H        0.926     0.059     2.210     2.325
   105   1 H        0.926     0.027     2.634     2.538
   106   1 H        0.926     0.029     2.595     2.519
   107   1 H        0.926     0.028     2.608     2.526
   108   1 H        0.926     0.031     2.566     2.505
   109   1 H        0.926     0.031     2.574     2.509
   110   1 H        0.926     0.028     2.619     2.531
   111   1 H        0.926     0.028     2.618     2.530
   112   1 H        0.926     0.042     2.427     2.436
   113   1 H        0.926     0.052     2.291     2.367

molecular dipole:
                 x           y           z       tot (Debye)
 q only:        0.001       0.125      -0.003
   full:       -0.001      -0.190      -0.004       0.483

 projected vibrational frequencies (cm⁻¹)
eigval :       -0.00     0.00     0.00     0.00     0.00     0.00
eigval :        5.53     8.54    12.55    19.28    19.31    20.80
eigval :       21.56    22.61    25.77    26.97    27.07    30.57
eigval :       54.36    65.25    70.42    71.51    86.55    88.92
eigval :       91.69    98.98   107.46   108.41   109.03   134.12
eigval :      139.74   141.38   142.84   142.95   149.10   149.30
eigval :      156.83   176.33   193.18   196.26   210.92   225.92
eigval :      232.87   236.78   246.82   248.97   256.97   258.37
eigval :      271.98   272.01   272.85   273.27   290.98   293.45
eigval :      301.16   312.18   338.70   339.15   348.49   360.81
eigval :      379.39   392.57   395.60   395.89   396.92   396.96
eigval :      422.80   423.34   423.71   424.01   435.04   437.14
eigval :      437.42   438.50   438.64   450.55   456.25   499.27
eigval :      509.27   512.13   512.17   517.98   518.24   520.46
eigval :      520.48   530.26   533.62   538.34   540.89   541.25
eigval :      541.26   541.27   541.65   546.95   547.12   582.12
eigval :      585.01   588.21   588.23   595.52   598.01   619.46
eigval :      621.18   623.56   633.51   636.77   638.81   639.05
eigval :      652.02   657.40   671.27   671.93   674.04   674.05
eigval :      677.87   679.95   680.67   708.40   708.47   709.19
eigval :      709.47   739.10   750.16   750.41   752.36   755.07
eigval :      766.24   769.42   769.58   770.63   770.73   771.34
eigval :      771.47   781.04   781.07   781.85   781.89   789.73
eigval :      830.99   838.08   846.73   867.05   867.10   867.87
eigval :      868.31   871.86   873.42   873.45   878.96   880.71
eigval :      888.92   889.77   892.09   896.19   896.50   897.44
eigval :      897.51   899.33   899.42   900.84   903.45   903.50
eigval :      904.41   905.14   907.86   908.47   909.96   910.66
eigval :      912.07   917.86   922.84   922.84   923.26   923.30
eigval :      925.40   925.53   927.09   927.37   993.77   995.46
eigval :     1009.08  1010.98  1011.97  1012.01  1027.80  1034.34
eigval :     1035.39  1058.51  1070.59  1070.83  1072.48  1072.60
eigval :     1074.12  1074.14  1076.41  1076.48  1123.06  1123.26
eigval :     1125.29  1126.05  1139.34  1145.31  1152.36  1152.63
eigval :     1154.43  1154.50  1166.57  1166.71  1176.87  1178.68
eigval :     1181.24  1181.28  1181.40  1181.40  1183.12  1183.18
eigval :     1187.85  1199.41  1228.08  1232.51  1233.22  1236.03
eigval :     1236.08  1237.08  1237.32  1240.27  1241.03  1241.79
eigval :     1262.39  1273.08  1293.81  1297.06  1297.50  1300.97
eigval :     1302.17  1302.63  1304.27  1304.34  1306.75  1309.47
eigval :     1323.04  1324.61  1333.54  1334.80  1338.04  1357.74
eigval :     1357.79  1358.24  1358.26  1361.21  1361.51  1363.00
eigval :     1363.06  1378.86  1394.53  1394.80  1417.37  1419.20
eigval :     1425.88  1426.37  1427.95  1427.96  1432.89  1436.54
eigval :     1454.56  1458.47  1461.55  1464.75  1476.70  1476.92
eigval :     1477.83  1478.58  1488.04  1488.09  1488.40  1488.42
eigval :     1502.07  1535.26  1562.91  1567.17  1569.05  1571.32
eigval :     1573.93  1575.43  1575.86  1577.93  1577.96  1588.65
eigval :     1588.70  1589.62  1589.75  1598.84  1598.91  1599.79
eigval :     1599.86  1614.16  1614.23  1615.22  1615.49  3075.02
eigval :     3075.06  3075.82  3075.87  3077.03  3077.07  3077.57
eigval :     3077.60  3080.97  3080.99  3082.00  3082.06  3082.81
eigval :     3082.82  3083.52  3083.60  3084.37  3087.53  3087.58
eigval :     3089.59  3089.66  3090.32  3090.35  3093.32  3093.40
eigval :     3094.60  3095.73  3095.80  3096.86  3096.93  3097.56
eigval :     3097.60  3100.08  3100.61  3101.92  3101.94  3107.99
eigval :     3108.08  3126.66  3126.76

   temp. (K)  partition function   enthalpy   heat capacity  entropy
                                   cal/mol     cal/K/mol   cal/K/mol   J/K/mol
 298.15  VIB  0.496E+27            33016.943    209.278    205.096
         ROT  0.351E+09              888.752      2.981     42.083
         INT  0.174E+36            33905.695    212.259    247.179
         TR   0.283E+29             1481.254      4.968     46.405
         TOT                       35386.9489   217.2273   293.5843  1228.3569

       T/K    H(0)-H(T)+PV         H(T)/Eh          T*S/Eh         G(T)/Eh
   ------------------------------------------------------------------------
    298.15    0.563927E-01    0.908314E+00    0.139491E+00    0.768823E+00
   ------------------------------------------------------------------------

         :::::::::::::::::::::::::::::::::::::::::::::::::::::
         ::                  THERMODYNAMIC                  ::
         :::::::::::::::::::::::::::::::::::::::::::::::::::::
         :: total free energy        -181.918877895644 Eh   ::
         ::.................................................::
         :: total energy             -182.687700894414 Eh   ::
         :: zero point energy           0.851921697975 Eh   ::
         :: G(RRHO) w/o ZPVE           -0.083098699206 Eh   ::
         :: G(RRHO) contrib.            0.768822998770 Eh   ::
         :::::::::::::::::::::::::::::::::::::::::::::::::::::

           -------------------------------------------------
          | TOTAL ENERGY             -182.687700894414 Eh   |
          | TOTAL ENTHALPY           -181.779386503858 Eh   |
          | TOTAL FREE ENERGY        -181.918877895644 Eh   |
          | GRADIENT NORM               0.000055588567 Eh/α |
          | HOMO-LUMO GAP               1.287072084815 eV   |
           -------------------------------------------------

 * finished run on 2025/08/24 at 04:06:58.865
