   * xtb version 6.7.1 (edcfbbe) compiled by 'albert@albert-system' on 2024-07-22

   ID    Z sym.   atoms
    1    6 C      1-12, 14-23, 25-38, 40-53, 57-59, 61-73
    2    7 N      13, 24, 39, 54, 56, 60
    3   16 S      55
    4    1 H      74-113

          program call               : xtb data2507/gas/BCPBT/BCPBT.xyz --gfn 2 --ohess vtight --parallel 40 --molden --ceasefiles --namespace data2507/gas/BCPBT/BCPBT_gas_S0_preOpt
          :  Hamiltonian                  GFN2-xTB          :
 * total energy  :  -182.6454273 Eh     change       -0.8091746E-08 Eh
 * total energy  :  -182.6723758 Eh     change       -0.2694848E-01 Eh
 * total energy  :  -182.6796991 Eh     change       -0.7323330E-02 Eh
 * total energy  :  -182.6816477 Eh     change       -0.1948614E-02 Eh
 * total energy  :  -182.6832385 Eh     change       -0.1590784E-02 Eh
 * total energy  :  -182.6839595 Eh     change       -0.7209818E-03 Eh
 * total energy  :  -182.6843492 Eh     change       -0.3896846E-03 Eh
 * total energy  :  -182.6845206 Eh     change       -0.1714105E-03 Eh
 * total energy  :  -182.6845918 Eh     change       -0.7125165E-04 Eh
 * total energy  :  -182.6846736 Eh     change       -0.8181573E-04 Eh
 * total energy  :  -182.6873933 Eh     change       -0.7893015E-06 Eh
 * total energy  :  -182.6873941 Eh     change       -0.7883570E-06 Eh
 * total energy  :  -182.6873949 Eh     change       -0.7870822E-06 Eh
 * total energy  :  -182.6873957 Eh     change       -0.7826792E-06 Eh
 * total energy  :  -182.6873965 Eh     change       -0.7813090E-06 Eh
 * total energy  :  -182.6873973 Eh     change       -0.7801303E-06 Eh
 * total energy  :  -182.6873980 Eh     change       -0.7790610E-06 Eh
 * total energy  :  -182.6873988 Eh     change       -0.7780776E-06 Eh
 * total energy  :  -182.6873988 Eh     change       -0.7463797E-08 Eh
   *** GEOMETRY OPTIMIZATION CONVERGED AFTER 340 ITERATIONS ***

 final structure:
================
113
 xtb: 6.7.1 (edcfbbe)
C           -8.71590109231859       -1.35508158645978       -4.39592053188360
C           -8.22850671618434       -0.20819525236295       -3.77344213265957
C           -7.23439830368584       -0.27306674218660       -2.81585740408645
C           -6.73744258514075       -1.52466244932922       -2.48224945061525
C           -7.20758865847878       -2.69135947544928       -3.12724927839884
C           -8.20731618795963       -2.60057257566568       -4.08674266594397
C           -6.45274682174787       -3.78880973824067       -2.58982586736655
C           -6.46815295491367       -5.15914737812084       -2.81341440373670
C           -5.60055401922787       -5.95668177102062       -2.09432061305279
C           -4.73710239217361       -5.40578458638271       -1.15019963301964
C           -4.70403021465554       -4.04543362902835       -0.90987899444775
C           -5.55503524011218       -3.23596368499795       -1.64832373186309
N           -5.73904723843596       -1.86820098232544       -1.59039525123425
C           -5.01910390210792       -0.98271330338585       -0.77942621440782
C           -3.62961412791606       -1.03180259577977       -0.76433864148044
C           -2.90846943855790       -0.14764304724091        0.03088641332714
C           -1.44349659867187       -0.16342240951440        0.02335478132488
C           -0.70526834047999       -1.32522368946835        0.01013352334560
C            0.69757907018270       -1.32931228168547        0.00499993741990
C            1.44251976614094       -0.17203033374818       -0.02144034500050
C            2.90755829558016       -0.16482088293415       -0.02909953397875
C            3.59062436391081        0.74541081547482       -0.82734032801751
C            4.97893564470332        0.80008406983564       -0.80216031758903
N            5.64958617501953        1.74173845707639       -1.58727707336231
C            5.31998311584765        3.08241024150295       -1.68613601601070
C            4.32623921718967        3.80145361164801       -1.03651937475873
C            4.23260237060093        5.15405548843341       -1.30479430525712
C            5.10692554706167        5.78656043778792       -2.18573117379310
C            6.11211533722355        5.08046013426608       -2.81530890369514
C            6.22586285461582        3.71941405965279       -2.56416068215277
C            7.13601255760451        2.70656735535971       -3.02139712776658
C            8.21049368105921        2.71810184813297       -3.90065685534296
C            8.87333969822518        1.53329903834064       -4.15096454494048
C            8.46488575512392        0.34500305795892       -3.55028920294276
C            7.39875055372783        0.30888484368363       -2.67170801014360
C            6.74623453502748        1.50141867947234       -2.39373810579765
C            5.69358345593381       -0.07663863863587        0.00792625585447
C            5.01334683877706       -1.00282069245864        0.79074185666145
N            5.72817542493298       -1.88317389427477        1.61176321215465
C            6.72859905148988       -1.53530077334885        2.49965565774430
C            7.23283714446586       -0.28289358524497        2.81898526618672
C            8.22735787850464       -0.21289144814233        3.77578017099458
C            8.70811502920347       -1.35542228563168        4.41129307676602
C            8.19228508314529       -2.60137939700405        4.11632256718388
C            7.19199334397580       -2.69728346960783        3.15791563562244
C            6.43075722784598       -3.79638235899684        2.63302694674575
C            6.43821269244695       -5.16414892182787        2.87222043508561
C            5.56595974056534       -5.96477348048117        2.16224869027027
C            4.70567714899997       -5.41966537839562        1.21189518640442
C            4.68049575554520       -4.06197250899601        0.95608600296832
C            5.53622439302347       -3.24909591712671        1.68527191981392
C            3.62359551888787       -1.04402415282325        0.77617299392827
C            0.72191870468019        1.04557722771955       -0.02701074231446
N            1.22170223059135        2.28329268519968       -0.04061387436271
S            0.00964916439920        3.33568642936583       -0.01901947690678
N           -1.20847216252158        2.29063875600448        0.01453550853489
C           -0.71585893684812        1.04997654630262        0.01506397404190
C           -3.58622478094368        0.77556777230247        0.81868005939420
C           -4.97419726670836        0.83799270533775        0.79283242639101
N           -5.63935436192470        1.79239929645261        1.56714888474843
C           -6.73734021895636        1.56763597321005        2.37627160851046
C           -7.39673893634035        0.38214436761399        2.66779126002847
C           -8.46260769696836        0.43444061546621        3.54588166411113
C           -8.86414725211380        1.63184686176286        4.13297348564078
C           -8.19446347191423        2.80986377556089        3.86920019147707
C           -7.12010558073088        2.78209312587326        2.99015280938178
C           -6.20412561702922        3.78437812856796        2.52142908091102
C           -6.08248681499457        5.14751521800852        2.75705891011140
C           -5.07325112126544        5.84056423360196        2.11950222541298
C           -4.20264241281325        5.19301230975704        1.24584892039442
C           -4.30412291436621        3.83800708681336        0.99299706847554
C           -5.30198725739032        3.13217840211594        1.65073910620222
C           -5.69393810216580       -0.04374675897958       -0.00723772923998
H           -9.49549893067848       -1.26223736183841       -5.13723643540202
H           -8.63376961618680        0.75459128904686       -4.04768580589185
H           -6.85091282654950        0.62507634701857       -2.35576973924060
H           -8.57214858616489       -3.48816925668409       -4.58116499974584
H           -7.14944756010175       -5.58763962163308       -3.53282089084768
H           -5.59429156773109       -7.02440831861909       -2.25516022506523
H           -4.08175564364386       -6.05696698340805       -0.59054219217867
H           -4.04630979339210       -3.63021864922838       -0.16086525485111
H           -3.11441211746126       -1.72868986049717       -1.40751414923878
H           -1.22121718846268       -2.27386763916372        0.02465441947314
H            1.20802905106010       -2.28103002462382        0.00131684988428
H            3.04176724580562        1.40168653079740       -1.48203889998340
H            3.64708036586554        3.32956337015777       -0.34346723217905
H            3.46379694119535        5.73454649686545       -0.81613803107780
H            4.99812730743750        6.84513871379757       -2.36973303691267
H            6.79997265424650        5.57131944985670       -3.48714652892099
H            8.51372623756384        3.63635526336954       -4.38051635707649
H            9.71323798438938        1.52031089490608       -4.82947474522683
H            8.99016454787323       -0.57058137918375       -3.77898547058448
H            7.07940601205395       -0.62375987640888       -2.23174543951677
H            6.77117701795796       -0.03534350103754        0.03526592138894
H            6.85454972808438        0.61216214810453        2.34869125069279
H            8.63822306413524        0.75058680662363        4.03903866599016
H            9.48828107433959       -1.25866790925887        5.15151040883524
H            8.55198011908570       -3.48538913966150        4.62083255517722
H            7.11704596286674       -5.58836527991559        3.59647148427897
H            5.55350076270600       -7.03054288621451        2.33524853019097
H            4.04652783035318       -6.07336497379423        0.65968742978637
H            4.02516107068881       -3.65150804896523        0.20237756336602
H            3.10438529050789       -1.73053839941229        1.42723277372668
H           -3.03355499008030        1.43607159542222        1.46587607067069
H           -7.08282290290771       -0.55728376666201        2.23848305053964
H           -8.99317169168462       -0.47542168750168        3.78497781990463
H           -9.70407489282093        1.63145137469114        4.81157149935360
H           -8.49234962643252        3.73526281800850        4.33856656049876
H           -6.76745799518664        5.64997059761114        3.42324906833442
H           -4.95831473992991        6.90052150900332        2.29143778257801
H           -3.43051042124307        5.76343797038778        0.75062849463325
H           -3.62774064091380        3.35432722758372        0.30537834189935
H           -6.77127516422629        0.00347856213845       -0.03508628331834

          :  Hamiltonian                  GFN2-xTB          :
         :: gradient norm              0.000070125180 Eh/a0 ::
         :: HOMO-LUMO gap              1.294202427037 eV    ::
         :: SCC energy              -186.049042034280 Eh    ::
         :: -> dispersion             -0.172373739622 Eh    ::
         :: repulsion energy           3.361643205197 Eh    ::

    * Orbital Energies and Occupations

         #    Occupation            Energy/Eh            Energy/eV
      -------------------------------------------------------------
         1        2.0000           -0.7707476             -20.9731
       ...           ...                  ...                  ...
       158        2.0000           -0.4065144             -11.0618
       159        2.0000           -0.4064874             -11.0611
       160        2.0000           -0.4045213             -11.0076
       161        2.0000           -0.4044710             -11.0062
       162        2.0000           -0.3916513             -10.6574
       163        2.0000           -0.3799193             -10.3381
       164        2.0000           -0.3799189             -10.3381
       165        2.0000           -0.3780086             -10.2861
       166        2.0000           -0.3780083             -10.2861
       167        2.0000           -0.3653492              -9.9417
       168        2.0000           -0.3651172              -9.9353
       169        2.0000           -0.3633184              -9.8864
       170        2.0000           -0.3632822              -9.8854 (HOMO)
       171                         -0.3157212              -8.5912 (LUMO)
       172                         -0.2615019              -7.1158
       173                         -0.2491158              -6.7788
       174                         -0.2490672              -6.7775
       175                         -0.2470534              -6.7227
       176                         -0.2450273              -6.6675
       177                         -0.2410896              -6.5604
       178                         -0.2390412              -6.5046
       179                         -0.2390056              -6.5037
       180                         -0.2284865              -6.2174
       181                         -0.2231590              -6.0725
       ...                                ...                  ...
       337                          0.7464140              20.3110
      -------------------------------------------------------------
                  HL-Gap            0.0475611 Eh            1.2942 eV

     #   Z          covCN         q      C6AA      α(0)
     1   6 C        2.920    -0.040    29.000     8.831
     2   6 C        2.924    -0.033    28.817     8.803
     3   6 C        2.910    -0.051    29.259     8.870
     4   6 C        3.074     0.047    26.878     8.500
     5   6 C        3.068    -0.017    28.351     8.731
     6   6 C        2.913    -0.033    28.810     8.802
     7   6 C        3.068    -0.016    28.348     8.730
     8   6 C        2.913    -0.032    28.808     8.801
     9   6 C        2.920    -0.041    29.010     8.832
    10   6 C        2.924    -0.034    28.836     8.806
    11   6 C        2.910    -0.051    29.269     8.871
    12   6 C        3.075     0.046    26.882     8.501
    13   7 N        2.804    -0.044    22.085     6.980
    14   6 C        2.911     0.066    26.514     8.443
    15   6 C        2.927    -0.055    29.355     8.885
    16   6 C        2.976     0.017    27.623     8.621
    17   6 C        2.968    -0.001    28.041     8.686
    18   6 C        2.923    -0.036    28.898     8.816
    19   6 C        2.923    -0.036    28.898     8.816
    20   6 C        2.968    -0.001    28.041     8.686
    21   6 C        2.976     0.017    27.623     8.621
    22   6 C        2.929    -0.050    29.242     8.868
    23   6 C        2.911     0.068    26.486     8.439
    24   7 N        2.803    -0.042    22.052     6.975
    25   6 C        3.072     0.046    26.887     8.502
    26   6 C        2.909    -0.053    29.328     8.880
    27   6 C        2.925    -0.034    28.835     8.806
    28   6 C        2.920    -0.041    29.011     8.833
    29   6 C        2.913    -0.033    28.826     8.804
    30   6 C        3.068    -0.016    28.349     8.731
    31   6 C        3.067    -0.016    28.346     8.730
    32   6 C        2.913    -0.033    28.814     8.802
    33   6 C        2.920    -0.040    29.005     8.832
    34   6 C        2.924    -0.033    28.829     8.805
    35   6 C        2.910    -0.051    29.267     8.871
    36   6 C        3.071     0.046    26.893     8.503
    37   6 C        2.925    -0.061    29.505     8.908
    38   6 C        2.911     0.066    26.514     8.443
    39   7 N        2.804    -0.044    22.085     6.980
    40   6 C        3.074     0.047    26.878     8.500
    41   6 C        2.910    -0.051    29.259     8.870
    42   6 C        2.924    -0.033    28.817     8.803
    43   6 C        2.920    -0.040    29.000     8.831
    44   6 C        2.913    -0.033    28.810     8.802
    45   6 C        3.068    -0.017    28.351     8.731
    46   6 C        3.068    -0.016    28.348     8.730
    47   6 C        2.913    -0.032    28.808     8.801
    48   6 C        2.920    -0.041    29.010     8.832
    49   6 C        2.924    -0.034    28.836     8.806
    50   6 C        2.910    -0.051    29.269     8.871
    51   6 C        3.075     0.046    26.882     8.501
    52   6 C        2.927    -0.055    29.355     8.885
    53   6 C        3.349     0.072    23.804     7.692
    54   7 N        1.853    -0.273    27.926     7.832
    55  16 S        2.671     0.349   127.630    19.014
    56   7 N        1.853    -0.273    27.926     7.832
    57   6 C        3.349     0.072    23.804     7.692
    58   6 C        2.929    -0.050    29.242     8.868
    59   6 C        2.911     0.068    26.486     8.439
    60   7 N        2.803    -0.042    22.052     6.975
    61   6 C        3.071     0.046    26.893     8.503
    62   6 C        2.910    -0.051    29.267     8.871
    63   6 C        2.924    -0.033    28.829     8.805
    64   6 C        2.920    -0.040    29.005     8.832
    65   6 C        2.913    -0.033    28.814     8.802
    66   6 C        3.067    -0.016    28.346     8.730
    67   6 C        3.068    -0.016    28.349     8.731
    68   6 C        2.913    -0.033    28.826     8.804
    69   6 C        2.920    -0.041    29.011     8.833
    70   6 C        2.925    -0.034    28.835     8.806
    71   6 C        2.909    -0.053    29.328     8.880
    72   6 C        3.072     0.046    26.887     8.502
    73   6 C        2.925    -0.061    29.505     8.908
    74   1 H        0.926     0.029     2.601     2.522
    75   1 H        0.926     0.030     2.584     2.514
    76   1 H        0.926     0.028     2.617     2.530
    77   1 H        0.926     0.032     2.563     2.503
    78   1 H        0.926     0.032     2.561     2.503
    79   1 H        0.926     0.029     2.606     2.524
    80   1 H        0.926     0.029     2.605     2.524
    81   1 H        0.926     0.024     2.666     2.554
    82   1 H        0.926     0.045     2.383     2.414
    83   1 H        0.926     0.044     2.394     2.419
    84   1 H        0.926     0.044     2.394     2.419
    85   1 H        0.926     0.056     2.241     2.341
    86   1 H        0.926     0.042     2.424     2.435
    87   1 H        0.926     0.028     2.619     2.531
    88   1 H        0.926     0.028     2.619     2.531
    89   1 H        0.926     0.031     2.574     2.509
    90   1 H        0.926     0.031     2.565     2.505
    91   1 H        0.926     0.028     2.608     2.525
    92   1 H        0.926     0.029     2.595     2.519
    93   1 H        0.926     0.027     2.633     2.537
    94   1 H        0.926     0.052     2.289     2.366
    95   1 H        0.926     0.028     2.617     2.530
    96   1 H        0.926     0.030     2.584     2.514
    97   1 H        0.926     0.029     2.601     2.522
    98   1 H        0.926     0.032     2.563     2.503
    99   1 H        0.926     0.032     2.561     2.503
   100   1 H        0.926     0.029     2.606     2.524
   101   1 H        0.926     0.029     2.605     2.524
   102   1 H        0.926     0.024     2.666     2.554
   103   1 H        0.926     0.045     2.383     2.414
   104   1 H        0.926     0.056     2.241     2.341
   105   1 H        0.926     0.027     2.633     2.537
   106   1 H        0.926     0.029     2.595     2.519
   107   1 H        0.926     0.028     2.608     2.525
   108   1 H        0.926     0.031     2.565     2.505
   109   1 H        0.926     0.031     2.574     2.509
   110   1 H        0.926     0.028     2.619     2.531
   111   1 H        0.926     0.028     2.619     2.531
   112   1 H        0.926     0.042     2.424     2.435
   113   1 H        0.926     0.052     2.289     2.366

molecular dipole:
                 x           y           z       tot (Debye)
 q only:        0.000       0.105      -0.001
   full:       -0.001      -0.214       0.001       0.544

 projected vibrational frequencies (cm⁻¹)
eigval :       -0.00    -0.00     0.00     0.00     0.00     0.00
eigval :        5.43     8.39    12.14    19.22    19.33    20.86
eigval :       21.47    22.60    25.81    26.62    26.84    30.52
eigval :       54.36    64.86    70.31    71.32    84.71    86.48
eigval :       90.74    99.07   106.22   108.53   109.27   133.79
eigval :      139.65   141.27   142.79   142.84   148.65   148.91
eigval :      159.09   177.11   194.18   195.81   210.58   226.26
eigval :      233.83   236.89   248.04   249.23   255.11   256.81
eigval :      271.97   271.97   272.81   273.18   290.87   292.28
eigval :      300.84   310.33   337.05   337.90   347.76   361.20
eigval :      381.39   390.67   395.50   395.99   396.99   397.02
eigval :      422.71   423.25   423.77   424.10   433.35   437.09
eigval :      437.14   438.48   438.68   448.73   456.54   497.73
eigval :      508.69   512.12   512.13   517.96   518.18   520.49
eigval :      520.52   530.70   533.11   539.49   541.05   541.27
eigval :      541.27   541.33   542.03   547.45   547.65   582.14
eigval :      585.24   588.22   588.25   595.49   598.14   618.36
eigval :      621.17   623.19   634.75   636.51   639.14   639.44
eigval :      651.54   657.53   671.45   672.08   674.02   674.05
eigval :      677.99   680.39   680.66   708.40   708.46   709.19
eigval :      709.46   738.47   750.13   750.43   752.29   755.08
eigval :      766.10   769.35   769.51   770.88   770.91   771.42
eigval :      771.48   781.00   781.01   782.10   782.12   790.17
eigval :      831.83   838.66   846.67   867.13   867.34   868.35
eigval :      868.83   870.83   873.39   873.41   879.18   880.74
eigval :      888.76   890.21   891.72   896.27   896.60   897.53
eigval :      897.58   899.39   899.41   900.88   903.40   903.49
eigval :      904.15   904.95   908.20   908.76   910.20   911.04
eigval :      911.99   917.06   922.81   922.82   923.07   923.12
eigval :      925.69   925.77   927.68   927.89   993.71   995.24
eigval :     1009.15  1010.99  1011.87  1011.90  1027.94  1034.23
eigval :     1035.12  1058.36  1070.56  1070.81  1072.53  1072.59
eigval :     1074.15  1074.15  1076.37  1076.42  1122.81  1122.95
eigval :     1125.07  1125.82  1139.82  1140.07  1152.37  1152.65
eigval :     1154.37  1154.52  1166.58  1166.61  1176.86  1178.61
eigval :     1181.26  1181.29  1181.40  1181.41  1183.11  1183.16
eigval :     1187.84  1198.90  1228.32  1232.26  1232.53  1236.00
eigval :     1236.03  1236.99  1237.30  1239.56  1240.48  1241.03
eigval :     1262.75  1271.94  1294.04  1297.01  1297.44  1301.05
eigval :     1302.13  1302.60  1304.17  1304.24  1307.44  1309.37
eigval :     1322.62  1323.97  1333.70  1334.86  1337.78  1357.66
eigval :     1357.71  1358.25  1358.27  1361.15  1361.48  1363.05
eigval :     1363.09  1380.04  1395.07  1395.27  1417.55  1419.19
eigval :     1425.94  1426.39  1427.95  1427.96  1433.18  1436.93
eigval :     1455.60  1459.12  1461.45  1464.40  1476.68  1476.88
eigval :     1478.00  1478.73  1488.03  1488.07  1488.41  1488.42
eigval :     1502.98  1538.09  1564.51  1567.89  1569.54  1571.59
eigval :     1574.73  1575.48  1576.24  1578.10  1579.05  1588.64
eigval :     1588.68  1589.65  1589.77  1598.81  1598.88  1599.79
eigval :     1599.85  1614.13  1614.19  1615.23  1615.48  3075.28
eigval :     3075.32  3075.76  3075.81  3077.03  3077.03  3077.59
eigval :     3077.60  3081.10  3081.12  3081.99  3082.02  3082.88
eigval :     3082.90  3083.22  3083.45  3083.48  3087.70  3087.76
eigval :     3089.69  3089.69  3090.44  3090.47  3093.21  3093.27
eigval :     3093.50  3095.72  3095.78  3096.78  3096.83  3097.61
eigval :     3097.64  3098.70  3099.11  3100.62  3100.63  3107.58
eigval :     3107.60  3123.24  3123.28

   temp. (K)  partition function   enthalpy   heat capacity  entropy
                                   cal/mol     cal/K/mol   cal/K/mol   J/K/mol
 298.15  VIB  0.582E+27            33032.006    209.262    205.326
         ROT  0.175E+09              888.752      2.981     40.704
         INT  0.102E+36            33920.758    212.243    246.030
         TR   0.283E+29             1481.254      4.968     46.405
         TOT                       35402.0118   217.2114   292.4351  1223.5486

       T/K    H(0)-H(T)+PV         H(T)/Eh          T*S/Eh         G(T)/Eh
   ------------------------------------------------------------------------
    298.15    0.564167E-01    0.908283E+00    0.138945E+00    0.769338E+00
   ------------------------------------------------------------------------

         :::::::::::::::::::::::::::::::::::::::::::::::::::::
         ::                  THERMODYNAMIC                  ::
         :::::::::::::::::::::::::::::::::::::::::::::::::::::
         :: total free energy        -181.918061293129 Eh   ::
         ::.................................................::
         :: total energy             -182.687398829086 Eh   ::
         :: zero point energy           0.851866209155 Eh   ::
         :: G(RRHO) w/o ZPVE           -0.082528673197 Eh   ::
         :: G(RRHO) contrib.            0.769337535958 Eh   ::
         :::::::::::::::::::::::::::::::::::::::::::::::::::::

           -------------------------------------------------
          | TOTAL ENERGY             -182.687398829086 Eh   |
          | TOTAL ENTHALPY           -181.779115923064 Eh   |
          | TOTAL FREE ENERGY        -181.918061293129 Eh   |
          | GRADIENT NORM               0.000070127168 Eh/α |
          | HOMO-LUMO GAP               1.294202396414 eV   |
           -------------------------------------------------

 * finished run on 2025/08/24 at 03:58:27.805
