   * xtb version 6.7.1 (edcfbbe) compiled by 'albert@albert-system' on 2024-07-22

   ID    Z sym.   atoms
    1    6 C      1-12, 14-23, 25-38, 40-53, 57-59, 61-73
    2    7 N      13, 24, 39, 54, 56, 60
    3   16 S      55
    4    1 H      74-113

          program call               : xtb data2507/gas/BCPBT/BCPBT_gas_T1_crest.xyz --gfn 2 --spinpol --tblite --uhf 2 --ohess vtight --parallel 40 --molden --ceasefiles --namespace data2507/gas/BCPBT/BCPBT_gas_T1_finalOpt
 * total energy  :  -182.6247619 Eh     change       -0.1347928E-07 Eh
 * total energy  :  -182.6247789 Eh     change       -0.1704721E-04 Eh
 * total energy  :  -182.6247845 Eh     change       -0.5540679E-05 Eh
 * total energy  :  -182.6247854 Eh     change       -0.9885504E-06 Eh
 * total energy  :  -182.6247864 Eh     change       -0.9734460E-06 Eh
 * total energy  :  -182.6247876 Eh     change       -0.1176421E-05 Eh
 * total energy  :  -182.6247891 Eh     change       -0.1544705E-05 Eh
 * total energy  :  -182.6247907 Eh     change       -0.1536359E-05 Eh
 * total energy  :  -182.6247913 Eh     change       -0.6146016E-06 Eh
 * total energy  :  -182.6247917 Eh     change       -0.4225065E-06 Eh
 * total energy  :  -182.6247921 Eh     change       -0.4204975E-06 Eh
 * total energy  :  -182.6247922 Eh     change       -0.8463232E-07 Eh
   *** GEOMETRY OPTIMIZATION CONVERGED AFTER 12 ITERATIONS ***

 final structure:
================
113
 xtb: 6.7.1 (edcfbbe)
C           -8.72181444021832       -2.70017121696915       -3.82098665624085
C           -8.26070430636334       -1.41636251373970       -3.53946439563037
C           -7.25264848520989       -1.19677121039216       -2.61999542832765
C           -6.71596557029863       -2.30051693792843       -1.97218690966634
C           -7.16052226491637       -3.60960278324232       -2.27012077517170
C           -8.17361966430892       -3.80474112953235       -3.19840737908016
C           -6.36791933986708       -4.50224711548020       -1.47005516550891
C           -6.34521337301681       -5.88132488083111       -1.31457866627380
C           -5.44584140221984       -6.43182284171314       -0.42228474429494
C           -4.58839088566252       -5.62433476628916        0.32135023625210
C           -4.59266251409894       -4.24928597344280        0.18406767472962
C           -5.47660514776411       -3.69234139471949       -0.72937215182489
N           -5.70052567324095       -2.36565879976402       -1.03940786875971
C           -5.00060193435098       -1.27679853874864       -0.50137805728335
C           -3.61558329034743       -1.28615077628781       -0.49726105245478
C           -2.89309056980665       -0.20989764656228        0.03969848436609
C           -1.45345911464489       -0.18627718149667        0.01092165573524
C           -0.68170165222078       -1.38357796985682       -0.02160927015672
C            0.67994421220575       -1.38401659746167       -0.02814804741510
C            1.45275970485030       -0.18724416676115       -0.05597100553961
C            2.89254401232677       -0.21185630541540       -0.07189423818384
C            3.61899011120856        0.85912611313742       -0.61215951333139
C            5.00263340455050        0.87809882607114       -0.56811933159606
N            5.69883111177775        1.98025876556582       -1.07670947524383
C            5.39468226585370        3.30614978697817       -0.82353968840653
C            4.38873933346418        3.85233048652116       -0.03740244713742
C            4.32774654592476        5.22969257560121        0.06179390566294
C            5.24455679247434        6.05029023975128       -0.59060305508242
C            6.25981220368279        5.51113816133804       -1.35764109967419
C            6.34018710790560        4.13095150937946       -1.47540428231342
C            7.24523316106323        3.25262227700742       -2.16551461797243
C            8.34534842723419        3.46870789458489       -2.98223853999928
C            8.99129761978714        2.37448015410901       -3.52609227584943
C            8.53934042232184        1.08102042782002       -3.27841321321797
C            7.44537963703766        0.84126818546023       -2.46815749384119
C            6.81090176791378        1.93423238746945       -1.89336739431621
C            5.70377566017790       -0.19276360875930       -0.01391477527561
C            4.99345946370441       -1.27894201328758        0.49394577990022
N            5.68716516842498       -2.36765626342442        1.04027505588095
C            6.69149549694796       -2.30198654258882        1.98497225390900
C            7.21859319075994       -1.19812555694084        2.64041855143247
C            8.21614000238798       -1.41713097740609        3.57141245639994
C            8.67618664343798       -2.70049532332127        3.85668307033243
C            8.13713502888529       -3.80524032517552        3.22647352508596
C            7.13455962947399       -3.61069706775601        2.28670638133134
C            6.35257482533734       -4.50368928342052        1.47664702997004
C            6.33365759255961       -5.88264854830879        1.31965625507699
C            5.44527149725350       -6.43362419256736        0.41671443242915
C            4.59508008026060       -5.62669233428092       -0.33580307477825
C            4.59586537594133       -4.25175482642021       -0.19731378727494
C            5.46867649822705       -3.69435844430046        0.72649038497129
C            3.60864133183538       -1.28855000697883        0.47282607916973
C            0.72165747158419        1.02462539888835       -0.05322482913250
N            1.22850045346699        2.25334915564378       -0.06171731042115
S            0.00057835470852        3.34253548639821       -0.02682582183134
N           -1.22783243483693        2.25400740094818        0.01073577250531
C           -0.72151529963333        1.02504466176943        0.00424644663771
C           -3.61312667163758        0.86088662124082        0.58886406217385
C           -4.99716672922232        0.87966863420782        0.56181932543750
N           -5.68732289261286        1.98133162999326        1.07961958112637
C           -6.78993328777659        1.93435843077626        1.90895044965188
C           -7.41605834535643        0.84090334719654        2.49191355971886
C           -8.50092650377690        1.07967745894373        3.31458510818396
C           -8.95199613150359        2.37266356535291        3.56635025020774
C           -8.31391794162560        3.46742350305735        3.01434089112297
C           -7.22285441756489        3.25232718158863        2.18529555703609
C           -6.32670939461916        4.13142042504634        1.48462131046512
C           -6.24935565785624        5.51165358243199        1.36541033505221
C           -5.24316375897006        6.05173941038281        0.58717278200882
C           -4.33241160722922        5.23199453674992       -0.07471206822208
C           -4.39070574428393        3.85458295362031        0.02553403419635
C           -5.38750814831414        3.30748228187101        0.82260573682906
C           -5.70486562712647       -0.19115305941430        0.01587587527769
H           -9.51244685376743       -2.82987651688534       -4.54478921774614
H           -8.69701821204910       -0.57346407220666       -4.05455621136544
H           -6.88777592064184       -0.19951607864200       -2.42598087477516
H           -8.51950967746878       -4.80092791159868       -3.42915722012894
H           -7.02100016912701       -6.50643088646929       -1.87829625521869
H           -5.40964432393643       -7.50269708681121       -0.28901721186526
H           -3.90720058329718       -6.08251413654056        1.02310807739556
H           -3.93759216816145       -3.63009400039513        0.77842415979013
H           -3.10073873192963       -2.10908223355606       -0.96726508295391
H           -1.20221975260490       -2.32867786297047       -0.00060621183776
H            1.19987114789584       -2.32939564994855       -0.05162101440730
H            3.08668931878645        1.66825034671945       -1.08214585412283
H            3.67012667455073        3.23296817602947        0.47520799514286
H            3.54843236330191        5.67777843352835        0.65964919901044
H            5.16077043946632        7.12214736417192       -0.48981342430774
H            6.97798598944613        6.14546605405665       -1.85490465623303
H            8.68300602754722        4.47248238252679       -3.19099222724764
H            9.85106019641188        2.52065860347202       -4.16266456446545
H            9.05092427620472        0.24594835803693       -3.73354234632292
H            7.09023639636183       -0.16509107139845       -2.30628171261405
H            6.78139155125888       -0.18203444857407        0.02646291194227
H            6.85423133050985       -0.20127242834574        2.44338807490626
H            8.64485344889920       -0.57413714491359        4.09269387635378
H            9.45858145459710       -2.82973521232008        4.58946554745895
H            8.48199654421714       -4.80111738467080        3.46008147719062
H            7.00392593620437       -6.50729061150181        1.89043285086959
H            5.41216610188025       -7.50442578020414        0.28206097853713
H            3.92243419403782       -6.08522476725517       -1.04552710785128
H            3.94661818663596       -3.63298124792927       -0.79844699393913
H            3.08818531444069       -2.11171590986347        0.93618634060430
H           -3.07535620795432        1.66974291922846        1.05304220596997
H           -7.06120233761302       -0.16503517853215        2.32678386963902
H           -9.00587866377012        0.24423013722116        3.77638004267666
H           -9.80465731525332        2.51806759770198        4.21258095063195
H           -8.65065832832605        4.47085739225807        3.22619247981100
H           -6.96287534209274        6.14528929674805        1.87020359038540
H           -5.16182028100375        7.12365570871261        0.48502603776540
H           -3.56005384674326        5.68079758321260       -0.68099361280603
H           -3.67689117374313        3.23595710940954       -0.49462528225795
H           -6.78291048102638       -0.18080509431754       -0.01078017825197

 projected vibrational frequencies (cm⁻¹)
eigval :       -0.00    -0.00    -0.00     0.00     0.00     0.00
eigval :        5.64     7.92    13.07    18.83    19.01    20.77
eigval :       21.52    22.09    25.39    26.03    26.67    30.16
eigval :       53.05    66.20    70.54    71.67    88.51    88.75
eigval :       89.58    98.57   106.44   108.49   110.70   132.81
eigval :      137.35   138.31   140.35   143.08   146.16   149.29
eigval :      149.38   173.24   174.30   196.18   208.17   225.40
eigval :      230.84   236.20   242.18   244.14   257.05   258.22
eigval :      271.18   271.21   271.60   272.63   285.88   290.87
eigval :      302.80   314.41   320.47   340.59   348.42   360.63
eigval :      368.66   393.52   394.00   394.36   395.52   395.92
eigval :      403.73   422.02   422.51   422.68   422.94   436.09
eigval :      436.23   437.33   437.44   438.99   452.83   482.55
eigval :      497.73   507.58   507.73   515.43   516.51   518.16
eigval :      518.66   518.96   525.41   534.86   534.91   538.68
eigval :      538.74   540.10   540.11   544.10   544.59   575.58
eigval :      582.79   586.81   586.86   589.98   591.36   598.47
eigval :      615.98   620.24   620.79   629.96   630.72   631.63
eigval :      635.72   651.21   662.91   663.12   673.63   674.16
eigval :      674.30   675.35   675.36   708.80   708.93   709.73
eigval :      709.87   715.76   743.32   748.61   748.76   753.67
eigval :      757.26   768.67   768.72   769.22   769.51   770.06
eigval :      770.13   773.62   779.38   779.56   780.33   780.58
eigval :      784.29   789.03   821.41   825.17   838.69   861.11
eigval :      861.48   862.21   862.49   872.39   872.41   876.28
eigval :      876.34   882.16   882.26   886.71   886.94   888.84
eigval :      894.89   896.25   896.39   898.64   899.00   900.78
eigval :      903.47   903.50   905.01   905.03   906.06   906.10
eigval :      907.41   907.61   922.08   922.09   923.14   923.15
eigval :      923.53   923.57   924.65   924.79   984.11   989.20
eigval :     1007.73  1010.07  1011.46  1011.64  1022.84  1033.16
eigval :     1035.27  1055.13  1069.77  1069.99  1071.48  1071.62
eigval :     1072.97  1073.00  1074.98  1075.20  1112.84  1122.72
eigval :     1124.05  1124.80  1126.57  1148.77  1150.11  1150.17
eigval :     1150.42  1152.92  1164.80  1165.64  1176.30  1177.78
eigval :     1179.69  1179.75  1180.72  1180.75  1181.72  1181.79
eigval :     1188.44  1195.37  1226.21  1229.09  1231.89  1233.24
eigval :     1233.61  1235.31  1235.51  1236.75  1239.22  1240.44
eigval :     1250.62  1262.57  1276.71  1292.89  1293.48  1294.11
eigval :     1294.68  1298.40  1299.64  1299.77  1300.00  1319.72
eigval :     1322.26  1329.48  1333.11  1334.55  1339.24  1351.09
eigval :     1351.19  1357.02  1357.22  1358.02  1358.43  1359.16
eigval :     1359.71  1378.14  1387.45  1391.90  1397.24  1407.84
eigval :     1412.98  1418.11  1419.09  1422.97  1423.39  1428.23
eigval :     1429.84  1431.63  1442.62  1442.67  1446.78  1447.58
eigval :     1468.45  1468.59  1472.50  1472.66  1484.90  1484.99
eigval :     1486.71  1486.78  1522.06  1524.73  1528.66  1532.25
eigval :     1546.00  1569.67  1569.74  1572.32  1572.37  1583.16
eigval :     1583.61  1586.96  1587.03  1587.71  1587.77  1593.43
eigval :     1593.47  1605.14  1605.63  1609.45  1609.94  3077.56
eigval :     3077.58  3078.98  3078.99  3079.01  3079.06  3079.99
eigval :     3080.02  3082.53  3082.57  3083.56  3084.06  3084.06
eigval :     3084.29  3084.32  3087.84  3087.90  3089.18  3089.20
eigval :     3091.22  3091.24  3091.46  3091.57  3095.60  3095.78
eigval :     3096.08  3096.71  3096.81  3097.72  3097.77  3098.06
eigval :     3098.45  3105.70  3106.27  3107.76  3108.01  3108.07
eigval :     3108.54  3132.05  3132.11

   temp. (K)  partition function   enthalpy   heat capacity  entropy
                                   cal/mol     cal/K/mol   cal/K/mol   J/K/mol
 298.15  VIB  0.870E+27            33309.030    210.955    206.961
         ROT  0.351E+09              888.752      2.981     42.081
         INT  0.305E+36            34197.782    213.936    249.042
         TR   0.283E+29             1481.254      4.968     46.405
         TOT                       35679.0361   218.9039   295.4470  1236.1503

       T/K    H(0)-H(T)+PV         H(T)/Eh          T*S/Eh         G(T)/Eh
   ------------------------------------------------------------------------
    298.15    0.568582E-01    0.905166E+00    0.140376E+00    0.764790E+00
   ------------------------------------------------------------------------

         :::::::::::::::::::::::::::::::::::::::::::::::::::::
         ::                  THERMODYNAMIC                  ::
         :::::::::::::::::::::::::::::::::::::::::::::::::::::
         :: total free energy        -181.860002325686 Eh   ::
         ::.................................................::
         :: total energy             -182.624792174786 Eh   ::
         :: zero point energy           0.848308094281 Eh   ::
         :: G(RRHO) w/o ZPVE           -0.083518245181 Eh   ::
         :: G(RRHO) contrib.            0.764789849100 Eh   ::
         :::::::::::::::::::::::::::::::::::::::::::::::::::::

           -------------------------------------------------
          | TOTAL ENERGY             -182.624792174786 Eh   |
          | TOTAL ENTHALPY           -181.719625917247 Eh   |
          | TOTAL FREE ENERGY        -181.860002325686 Eh   |
          | GRADIENT NORM               0.000170336876 Eh/α |
           -------------------------------------------------

 * finished run on 2025/08/24 at 04:22:05.790
