   * xtb version 6.7.1 (edcfbbe) compiled by 'albert@albert-system' on 2024-07-22

   ID    Z sym.   atoms
    1    6 C      1, 2, 4-11, 13, 15, 16, 19-21, 23-28, 30-39
    2    7 N      3, 22
    3    8 O      12, 14, 17, 18
    4   16 S      29
    5    1 H      40-63

          program call               : xtb data2507/gas/VBC-PTZ/VBC-PTZ.xyz --gfn 2 --ohess vtight --parallel 40 --molden --ceasefiles --namespace data2507/gas/VBC-PTZ/VBC-PTZ_gas_S0_preOpt
          :  Hamiltonian                  GFN2-xTB          :
 * total energy  :  -106.1619752 Eh     change       -0.5458531E-08 Eh
 * total energy  :  -106.1796844 Eh     change       -0.1770919E-01 Eh
 * total energy  :  -106.1869447 Eh     change       -0.7260321E-02 Eh
 * total energy  :  -106.1891544 Eh     change       -0.2209690E-02 Eh
 * total energy  :  -106.1903952 Eh     change       -0.1240810E-02 Eh
 * total energy  :  -106.1910950 Eh     change       -0.6997272E-03 Eh
 * total energy  :  -106.1914963 Eh     change       -0.4013317E-03 Eh
 * total energy  :  -106.1918002 Eh     change       -0.3039151E-03 Eh
 * total energy  :  -106.1920068 Eh     change       -0.2065663E-03 Eh
 * total energy  :  -106.1921693 Eh     change       -0.1624801E-03 Eh
 * total energy  :  -106.1926859 Eh     change       -0.6861237E-06 Eh
 * total energy  :  -106.1926865 Eh     change       -0.5962041E-06 Eh
 * total energy  :  -106.1926871 Eh     change       -0.5391108E-06 Eh
 * total energy  :  -106.1926876 Eh     change       -0.4976872E-06 Eh
 * total energy  :  -106.1926880 Eh     change       -0.4564042E-06 Eh
 * total energy  :  -106.1926885 Eh     change       -0.4337937E-06 Eh
 * total energy  :  -106.1926889 Eh     change       -0.4606973E-06 Eh
 * total energy  :  -106.1926895 Eh     change       -0.5564050E-06 Eh
 * total energy  :  -106.1926895 Eh     change       -0.5419494E-08 Eh
   *** GEOMETRY OPTIMIZATION CONVERGED AFTER 122 ITERATIONS ***

 final structure:
================
63
 xtb: 6.7.1 (edcfbbe)
C            7.35121946471169       -1.01474043684282       -1.42655873751256
C            7.07388300876833        0.00686010971503       -0.32358145076181
N            5.82807858660258        0.71575404955982       -0.52958436450823
C            5.92574708755765        1.96326910740331       -1.25694698232614
C            6.13884493273185        3.16203469951441       -0.33159279301849
C            4.64105062308547        0.21975213424831       -0.09918909543367
C            3.45176963408278        0.98594283031577       -0.15788429872867
C            2.24294586753176        0.46908151446404        0.21865294063662
C            2.11597302374357       -0.84646084915449        0.69546001555861
C            3.31679740359955       -1.55926574114033        0.88542181099847
C            4.53514015172503       -1.05742059557545        0.46696789546290
O            3.33809458078322       -2.77539146220302        1.47171618504216
C            2.24233931041689       -3.30644396393996        2.11574425926048
O            2.41495252823719       -4.30991427481693        2.74747122687255
C            0.97336043297011       -2.61341751530565        1.89477392401917
C           -0.20070008613015       -3.14791272168003        2.57752831902989
O           -0.24266661455974       -4.07713765583265        3.33085537285778
O           -1.37994146427970       -2.44918429753153        2.38107859389918
C           -1.51583512184571       -1.53547722666999        1.40266813365812
C           -2.80940495792419       -1.10398049572722        1.12032974424619
C           -3.03132333525742       -0.23687414188828        0.06395412525649
N           -4.33491615680446        0.21782496567664       -0.25777275246675
C           -5.25732572375360       -0.68407200633344       -0.79407043721467
C           -4.95319377827898       -2.04274453006492       -0.88630951641267
C           -5.85685853952486       -2.95351472280100       -1.40416495587828
C           -7.09848381487810       -2.53571575334010       -1.84378041684753
C           -7.40755237008283       -1.18878510060152       -1.79046572450931
C           -6.49677311280631       -0.27185807911947       -1.29137814683638
S           -6.96219644797311        1.43285673986333       -1.41159482653333
C           -5.80513307353492        2.18113990040010       -0.30323771308676
C           -6.08255970778879        3.47440413946655        0.10914380998340
C           -5.21418164324365        4.15100210417752        0.94662649335399
C           -4.07209702647963        3.50979296244089        1.38815695554317
C           -3.80226416952828        2.21168729219769        0.99336408730596
C           -4.65187739692529        1.52166555054490        0.12675110331425
C           -1.95794925891602        0.18164365784110       -0.72479063344929
C           -0.67665017732804       -0.21696426457934       -0.42285937105378
C           -0.41732613389597       -1.03796345085409        0.68143816125120
C            0.89800038086380       -1.48962264848676        1.08779499255069
H            8.29713880529723       -1.51534431837829       -1.23955882312999
H            6.56252866893947       -1.76094648133800       -1.46595529226947
H            7.40493734402492       -0.52359350451073       -2.39545715711333
H            7.05849060055864       -0.48412952402958        0.65158997704838
H            7.87853866787058        0.74601287960276       -0.30249832779953
H            5.02855074635650        2.10678894195522       -1.86283844944630
H            6.77136408313924        1.88423820279911       -1.94532950474772
H            7.05599011774927        3.04236896206127        0.23994544379131
H            5.31376863811633        3.25982563511416        0.36893656014143
H            6.21263386582394        4.07496586101678       -0.91631495484604
H            3.48375885298562        2.01336392219651       -0.47847085086150
H            1.37859754255673        1.11346429075238        0.20858649715386
H            5.38918326701300       -1.69432474659759        0.61568745111302
H           -3.62423123430786       -1.47426163474899        1.72229002428938
H           -3.98840297177641       -2.39742503332700       -0.56188529991520
H           -5.57921615724575       -3.99489526295264       -1.45890605287794
H           -7.81267971397705       -3.24071229719604       -2.23841431967015
H           -8.35610865070533       -0.82441123363880       -2.15447512231261
H           -6.98545655465511        3.94537311551876       -0.24838705479968
H           -5.43373031589637        5.16190823812356        1.25151336987680
H           -3.38477577975345        4.01249103258152        2.05137893532219
H           -2.91525172888654        1.72283401044668        1.36524552254964
H           -2.14815307223481        0.81321621903883       -1.57884648929462
H            0.13153607333922        0.06334390218368       -1.07797201572129

          :  Hamiltonian                  GFN2-xTB          :
         :: gradient norm              0.000046797361 Eh/a0 ::
         :: HOMO-LUMO gap              0.949685454977 eV    ::
         :: SCC energy              -107.811735427839 Eh    ::
         :: -> dispersion             -0.085492340502 Eh    ::
         :: repulsion energy           1.619045941480 Eh    ::

    * Orbital Energies and Occupations

         #    Occupation            Energy/Eh            Energy/eV
      -------------------------------------------------------------
         1        2.0000           -0.7545174             -20.5315
       ...           ...                  ...                  ...
        84        2.0000           -0.4375254             -11.9057
        85        2.0000           -0.4313642             -11.7380
        86        2.0000           -0.4279569             -11.6453
        87        2.0000           -0.4243123             -11.5461
        88        2.0000           -0.4221359             -11.4869
        89        2.0000           -0.4190326             -11.4025
        90        2.0000           -0.4155569             -11.3079
        91        2.0000           -0.4134564             -11.2507
        92        2.0000           -0.4108496             -11.1798
        93        2.0000           -0.3972920             -10.8109
        94        2.0000           -0.3852702             -10.4837
        95        2.0000           -0.3793598             -10.3229
        96        2.0000           -0.3449887              -9.3876 (HOMO)
        97                         -0.3100884              -8.4379 (LUMO)
        98                         -0.2609900              -7.1019
        99                         -0.2547004              -6.9308
       100                         -0.2462872              -6.7018
       101                         -0.2458284              -6.6893
       102                         -0.2352648              -6.4019
       103                         -0.2296434              -6.2489
       104                         -0.2198958              -5.9837
       105                         -0.2142897              -5.8311
       106                         -0.2060692              -5.6074
       107                         -0.1991444              -5.4190
       ...                                ...                  ...
       185                          0.7211559              19.6237
      -------------------------------------------------------------
                  HL-Gap            0.0349002 Eh            0.9497 eV

     #   Z          covCN         q      C6AA      α(0)
     1   6 C        3.751    -0.115    22.759     6.803
     2   6 C        3.747    -0.006    20.753     6.498
     3   7 N        2.738    -0.068    22.550     7.053
     4   6 C        3.746    -0.005    20.728     6.494
     5   6 C        3.751    -0.114    22.746     6.802
     6   6 C        2.908     0.076    26.311     8.411
     7   6 C        2.921    -0.066    29.656     8.930
     8   6 C        2.919    -0.035    28.866     8.811
     9   6 C        2.976    -0.032    28.793     8.802
    10   6 C        2.874     0.148    24.776     8.160
    11   6 C        2.921    -0.088    30.200     9.012
    12   8 O        1.710    -0.235    17.902     5.713
    13   6 C        2.715     0.346    21.117     7.522
    14   8 O        0.857    -0.359    20.878     6.126
    15   6 C        2.964    -0.086    30.146     9.006
    16   6 C        2.715     0.346    21.127     7.524
    17   8 O        0.857    -0.352    20.749     6.107
    18   8 O        1.709    -0.233    17.860     5.706
    19   6 C        2.875     0.150    24.737     8.153
    20   6 C        2.918    -0.061    29.521     8.910
    21   6 C        2.931     0.077    26.283     8.408
    22   7 N        2.749    -0.071    22.616     7.063
    23   6 C        2.939     0.059    26.682     8.472
    24   6 C        2.927    -0.058    29.449     8.899
    25   6 C        2.920    -0.032    28.806     8.801
    26   6 C        2.918    -0.038    28.941     8.822
    27   6 C        2.990    -0.039    28.959     8.827
    28   6 C        2.972     0.034    27.244     8.562
    29  16 S        2.137    -0.146   147.222    20.422
    30   6 C        2.971     0.034    27.225     8.559
    31   6 C        2.985    -0.039    28.971     8.829
    32   6 C        2.918    -0.038    28.946     8.823
    33   6 C        2.919    -0.034    28.839     8.806
    34   6 C        2.928    -0.057    29.429     8.896
    35   6 C        2.949     0.059    26.674     8.471
    36   6 C        2.920    -0.047    29.171     8.857
    37   6 C        2.921    -0.033    28.832     8.805
    38   6 C        2.977    -0.018    28.453     8.750
    39   6 C        2.976     0.036    27.186     8.553
    40   1 H        0.925     0.050     2.320     2.382
    41   1 H        0.925     0.051     2.306     2.375
    42   1 H        0.925     0.043     2.411     2.428
    43   1 H        0.924     0.054     2.265     2.353
    44   1 H        0.924     0.051     2.306     2.375
    45   1 H        0.924     0.051     2.310     2.377
    46   1 H        0.924     0.051     2.305     2.374
    47   1 H        0.925     0.045     2.381     2.413
    48   1 H        0.925     0.048     2.346     2.395
    49   1 H        0.925     0.048     2.343     2.394
    50   1 H        0.926     0.045     2.384     2.414
    51   1 H        0.926     0.049     2.328     2.386
    52   1 H        0.926     0.063     2.167     2.302
    53   1 H        0.926     0.074     2.047     2.237
    54   1 H        0.926     0.034     2.528     2.486
    55   1 H        0.926     0.038     2.469     2.457
    56   1 H        0.926     0.039     2.466     2.456
    57   1 H        0.926     0.046     2.376     2.410
    58   1 H        0.926     0.046     2.371     2.408
    59   1 H        0.926     0.038     2.476     2.461
    60   1 H        0.926     0.035     2.513     2.479
    61   1 H        0.926     0.029     2.599     2.521
    62   1 H        0.926     0.054     2.272     2.357
    63   1 H        0.926     0.059     2.210     2.325

molecular dipole:
                 x           y           z       tot (Debye)
 q only:        2.286       3.541      -2.607
   full:        2.458       3.674      -2.627      13.070

 projected vibrational frequencies (cm⁻¹)
eigval :       -0.00    -0.00    -0.00     0.00     0.00     0.00
eigval :        9.43    16.76    18.55    24.71    34.47    35.95
eigval :       50.23    59.44    72.11    89.88    95.97    98.25
eigval :      103.78   114.55   130.99   143.34   169.99   174.77
eigval :      185.03   191.59   214.32   225.54   230.01   241.62
eigval :      253.96   262.94   269.21   288.00   296.10   313.81
eigval :      332.60   342.85   346.43   377.09   386.46   398.15
eigval :      405.69   415.07   415.84   423.94   430.48   438.25
eigval :      445.80   462.37   484.34   491.26   495.55   504.13
eigval :      509.92   530.03   551.80   562.96   579.23   602.91
eigval :      606.29   630.31   635.86   644.57   648.92   653.06
eigval :      656.06   661.35   671.43   694.72   697.62   713.20
eigval :      722.66   739.05   749.81   770.72   771.89   806.65
eigval :      819.00   822.73   830.23   844.57   847.26   860.95
eigval :      861.25   867.88   889.98   900.96   902.46   903.51
eigval :      905.97   908.58   915.54   917.27   918.05   948.51
eigval :      955.29   975.93  1000.97  1003.23  1037.91  1042.67
eigval :     1055.06  1056.44  1078.07  1081.29  1094.24  1103.93
eigval :     1106.05  1129.89  1146.45  1153.18  1158.68  1163.10
eigval :     1166.15  1180.96  1183.93  1195.38  1213.08  1220.42
eigval :     1224.93  1235.08  1241.24  1246.20  1257.15  1259.82
eigval :     1269.94  1274.85  1303.49  1314.68  1318.82  1327.79
eigval :     1329.62  1332.02  1340.56  1357.19  1367.14  1397.86
eigval :     1405.74  1409.28  1409.66  1417.86  1421.79  1429.82
eigval :     1462.64  1467.95  1479.19  1480.43  1486.51  1488.50
eigval :     1488.76  1499.36  1500.64  1501.59  1522.44  1527.22
eigval :     1551.94  1557.71  1570.96  1575.56  1578.68  1593.19
eigval :     1603.34  1733.73  1788.72  2958.26  2965.90  2976.70
eigval :     2979.24  3039.85  3043.17  3049.75  3051.87  3052.46
eigval :     3055.84  3086.74  3090.16  3093.31  3093.91  3099.13
eigval :     3101.37  3104.16  3106.23  3107.37  3113.02  3114.14
eigval :     3117.72  3124.54  3139.72

   temp. (K)  partition function   enthalpy   heat capacity  entropy
                                   cal/mol     cal/K/mol   cal/K/mol   J/K/mol
 298.15  VIB  0.701E+15            19076.706    118.031    118.629
         ROT  0.569E+08              888.752      2.981     38.468
         INT  0.399E+23            19965.458    121.012    157.097
         TR   0.119E+29             1481.254      4.968     44.683
         TOT                       21446.7121   125.9802   201.7807   844.2505

       T/K    H(0)-H(T)+PV         H(T)/Eh          T*S/Eh         G(T)/Eh
   ------------------------------------------------------------------------
    298.15    0.341775E-01    0.508505E+00    0.958725E-01    0.412633E+00
   ------------------------------------------------------------------------

         :::::::::::::::::::::::::::::::::::::::::::::::::::::
         ::                  THERMODYNAMIC                  ::
         :::::::::::::::::::::::::::::::::::::::::::::::::::::
         :: total free energy        -105.780056900007 Eh   ::
         ::.................................................::
         :: total energy             -106.192689486359 Eh   ::
         :: zero point energy           0.474327604749 Eh   ::
         :: G(RRHO) w/o ZPVE           -0.061695018397 Eh   ::
         :: G(RRHO) contrib.            0.412632586352 Eh   ::
         :::::::::::::::::::::::::::::::::::::::::::::::::::::

           -------------------------------------------------
          | TOTAL ENERGY             -106.192689486359 Eh   |
          | TOTAL ENTHALPY           -105.684184370325 Eh   |
          | TOTAL FREE ENERGY        -105.780056900007 Eh   |
          | GRADIENT NORM               0.000046815762 Eh/α |
          | HOMO-LUMO GAP               0.949684017223 eV   |
           -------------------------------------------------

 * finished run on 2025/09/13 at 18:49:33.753
