   * xtb version 6.7.1 (edcfbbe) compiled by 'albert@albert-system' on 2024-07-22

   ID    Z sym.   atoms
    1    6 C      1, 2, 4-11, 13, 15, 16, 19-21, 23-28, 30-39
    2    7 N      3, 22
    3    8 O      12, 14, 17, 18
    4   16 S      29
    5    1 H      40-63

          program call               : xtb data2507/gas/VBC-PTZ/VBC-PTZ_gas_S0_crest.xyz --gfn 2 --ohess vtight --parallel 40 --molden --ceasefiles --namespace data2507/gas/VBC-PTZ/VBC-PTZ_gas_S0_finalOpt
          :  Hamiltonian                  GFN2-xTB          :
 * total energy  :  -106.1965269 Eh     change       -0.5740674E-08 Eh
 * total energy  :  -106.1965278 Eh     change       -0.9248241E-06 Eh
 * total energy  :  -106.1965287 Eh     change       -0.9116089E-06 Eh
 * total energy  :  -106.1965298 Eh     change       -0.1092587E-05 Eh
 * total energy  :  -106.1965305 Eh     change       -0.6993417E-06 Eh
 * total energy  :  -106.1965311 Eh     change       -0.5871774E-06 Eh
 * total energy  :  -106.1965319 Eh     change       -0.8206200E-06 Eh
 * total energy  :  -106.1965326 Eh     change       -0.6262437E-06 Eh
 * total energy  :  -106.1965330 Eh     change       -0.4136018E-06 Eh
 * total energy  :  -106.1965333 Eh     change       -0.3608171E-06 Eh
 * total energy  :  -106.1965349 Eh     change       -0.3633121E-06 Eh
 * total energy  :  -106.1965352 Eh     change       -0.3104654E-06 Eh
 * total energy  :  -106.1965355 Eh     change       -0.2625821E-06 Eh
 * total energy  :  -106.1965357 Eh     change       -0.2224019E-06 Eh
 * total energy  :  -106.1965359 Eh     change       -0.1932821E-06 Eh
 * total energy  :  -106.1965361 Eh     change       -0.1847839E-06 Eh
 * total energy  :  -106.1965363 Eh     change       -0.2071156E-06 Eh
 * total energy  :  -106.1965366 Eh     change       -0.2557189E-06 Eh
 * total energy  :  -106.1965366 Eh     change       -0.2449241E-08 Eh
   *** GEOMETRY OPTIMIZATION CONVERGED AFTER 22 ITERATIONS ***

 final structure:
================
63
 xtb: 6.7.1 (edcfbbe)
C            8.09578048684751       -1.36073690632058        1.67497733989121
C            7.82161327210871       -1.37628439905859        0.17082226469410
N            6.52742482979458       -1.94062756702305       -0.14840450709746
C            6.50932513132477       -3.35994184184539       -0.42743659661148
C            6.70436633277669       -3.66461215294575       -1.91373855878052
C            5.39632863082621       -1.18643874624890       -0.15252151884307
C            4.16509958953399       -1.69973694937478       -0.62253684474980
C            3.01381905341005       -0.96075394476660       -0.57876094420116
C            2.99347531554156        0.34932112315721       -0.07620479865502
C            4.23982029858574        0.90490393530809        0.26810058719649
C            5.39906564585192        0.14952452442884        0.26586480405137
O            4.36873622998069        2.20016498158832        0.62713782914410
C            3.34764730648481        3.11541826554748        0.47124022924858
O            3.62370253948455        4.26801678521398        0.65506368037659
C            2.03299986274716        2.56184884525986        0.16355320134164
C            0.93582762195420        3.50845648729782        0.00000597911189
O            0.99539189463082        4.70486186413048        0.05045924760802
O           -0.29390193191294        2.96136320392034       -0.31614554543194
C           -0.54146840235100        1.63999851108435       -0.21428498136796
C           -1.86579371564560        1.24838878406385       -0.32979249797813
C           -2.22939880246764       -0.08918766762530       -0.18013119818867
N           -3.53994833915956       -0.48925054363088       -0.29658863060325
C           -3.95875762452660       -1.81645953724359       -0.06630224692878
C           -3.40793908538437       -2.88354860225464       -0.76839303364434
C           -3.82694422729753       -4.17648161002405       -0.51319324080289
C           -4.81655346529997       -4.41739314929854        0.42692079255525
C           -5.40982789807488       -3.36052193379100        1.09182132426668
C           -4.98784187659603       -2.06400064642943        0.84054986879432
S           -5.77071537917132       -0.70260532881189        1.66178910612940
C           -5.69651734279279        0.43683796167059        0.30483241339670
C           -6.74008028501984        1.32347554824424        0.08943651691361
C           -6.69732625249339        2.18317468768097       -0.99226852836806
C           -5.63236492984646        2.13000175461789       -1.87764120343905
C           -4.59295083588965        1.24274172683767       -1.66604376016281
C           -4.59606584562956        0.41451577480985       -0.54889125579458
C           -1.22569643293415       -0.99828562675044        0.20570671515951
C            0.08595721547533       -0.61055395130344        0.28876711072886
C            0.48465324825132        0.70330715092231        0.00406576895169
C            1.83793568052922        1.19415655990996        0.02927847159511
H            9.07772515647245       -0.93837534676394        1.86972612819062
H            7.34963668135952       -0.76567810271638        2.19413880408827
H            8.06687172499828       -2.37084858601528        2.07728957271447
H            7.88997431362911       -0.36513166184316       -0.23581872616429
H            8.58239105328261       -1.98008325450229       -0.33057243136797
H            5.57135059799107       -3.79246682084043       -0.07236902905178
H            7.31663874622815       -3.82513223583003        0.14477202730471
H            7.65796897812367       -3.27279752788709       -2.25921406991737
H            5.91623970118861       -3.20790313891339       -2.50645857201154
H            6.69114343146187       -4.73858007574670       -2.07944740897010
H            4.11646810869942       -2.68531886813579       -1.05385882857847
H            2.11313685978900       -1.37853341363141       -0.99904048928190
H            6.29523741373459        0.65173684640061        0.58519170620948
H           -2.59892536957868        2.02068223381094       -0.49122191417659
H           -2.64670286154164       -2.68864763919419       -1.50885059811921
H           -3.38175842765192       -4.99757214765941       -1.05388654782693
H           -5.13833308368700       -5.42691030108563        0.63024314534897
H           -6.19689556241333       -3.52704242844657        1.81059833090548
H           -7.57262639632031        1.33306775226097        0.77554509504576
H           -7.50312338914850        2.88219331896386       -1.15312908135585
H           -5.61007807316500        2.78026508642118       -2.73834921151341
H           -3.76817820418202        1.18919481493352       -2.36019191432794
H           -1.49167632245144       -2.00793620597349        0.47502184113686
H            0.81707909353557       -1.32132343165369        0.63826458821206

          :  Hamiltonian                  GFN2-xTB          :
         :: gradient norm              0.000027871242 Eh/a0 ::
         :: HOMO-LUMO gap              1.922408357816 eV    ::
         :: SCC energy              -107.816296407954 Eh    ::
         :: -> dispersion             -0.085572193376 Eh    ::
         :: repulsion energy           1.619759830818 Eh    ::

    * Orbital Energies and Occupations

         #    Occupation            Energy/Eh            Energy/eV
      -------------------------------------------------------------
         1        2.0000           -0.7392048             -20.1148
       ...           ...                  ...                  ...
        84        2.0000           -0.4362014             -11.8696
        85        2.0000           -0.4343819             -11.8201
        86        2.0000           -0.4309159             -11.7258
        87        2.0000           -0.4277776             -11.6404
        88        2.0000           -0.4233673             -11.5204
        89        2.0000           -0.4162538             -11.3268
        90        2.0000           -0.4088520             -11.1254
        91        2.0000           -0.4029650             -10.9652
        92        2.0000           -0.4008983             -10.9090
        93        2.0000           -0.3867010             -10.5227
        94        2.0000           -0.3840845             -10.4515
        95        2.0000           -0.3686808             -10.0323
        96        2.0000           -0.3645331              -9.9195 (HOMO)
        97                         -0.2938858              -7.9970 (LUMO)
        98                         -0.2538844              -6.9085
        99                         -0.2522141              -6.8631
       100                         -0.2484896              -6.7617
       101                         -0.2457728              -6.6878
       102                         -0.2429637              -6.6114
       103                         -0.2327786              -6.3342
       104                         -0.2297931              -6.2530
       105                         -0.2106381              -5.7318
       106                         -0.2034604              -5.5364
       107                         -0.1981344              -5.3915
       ...                                ...                  ...
       185                          0.7327812              19.9400
      -------------------------------------------------------------
                  HL-Gap            0.0706473 Eh            1.9224 eV

     #   Z          covCN         q      C6AA      α(0)
     1   6 C        3.751    -0.114    22.748     6.802
     2   6 C        3.747    -0.005    20.731     6.494
     3   7 N        2.738    -0.074    22.668     7.071
     4   6 C        3.746    -0.003    20.704     6.490
     5   6 C        3.751    -0.114    22.734     6.800
     6   6 C        2.908     0.074    26.355     8.418
     7   6 C        2.921    -0.068    29.703     8.937
     8   6 C        2.919    -0.035    28.882     8.813
     9   6 C        2.977    -0.033    28.811     8.805
    10   6 C        2.874     0.148    24.793     8.163
    11   6 C        2.922    -0.089    30.221     9.015
    12   8 O        1.709    -0.240    17.982     5.725
    13   6 C        2.715     0.345    21.136     7.526
    14   8 O        0.857    -0.366    21.020     6.147
    15   6 C        2.964    -0.090    30.264     9.024
    16   6 C        2.715     0.345    21.139     7.526
    17   8 O        0.857    -0.364    20.976     6.141
    18   8 O        1.709    -0.239    17.962     5.722
    19   6 C        2.876     0.149    24.759     8.157
    20   6 C        2.921    -0.082    30.052     8.990
    21   6 C        2.913     0.075    26.327     8.414
    22   7 N        2.752    -0.059    22.384     7.027
    23   6 C        2.974     0.056    26.729     8.480
    24   6 C        2.922    -0.044    29.097     8.846
    25   6 C        2.919    -0.033    28.819     8.803
    26   6 C        2.920    -0.032    28.792     8.799
    27   6 C        2.959    -0.036    28.897     8.817
    28   6 C        2.972     0.036    27.184     8.552
    29  16 S        2.115    -0.129   146.469    20.369
    30   6 C        2.972     0.037    27.174     8.551
    31   6 C        2.959    -0.035    28.879     8.815
    32   6 C        2.921    -0.030    28.753     8.793
    33   6 C        2.919    -0.030    28.758     8.794
    34   6 C        2.923    -0.043    29.058     8.840
    35   6 C        2.974     0.056    26.743     8.483
    36   6 C        2.921    -0.064    29.582     8.919
    37   6 C        2.921    -0.034    28.850     8.808
    38   6 C        2.977    -0.029    28.720     8.791
    39   6 C        2.976     0.035    27.203     8.555
    40   1 H        0.925     0.048     2.344     2.394
    41   1 H        0.925     0.051     2.309     2.376
    42   1 H        0.925     0.041     2.430     2.438
    43   1 H        0.924     0.053     2.280     2.362
    44   1 H        0.924     0.048     2.339     2.392
    45   1 H        0.924     0.049     2.330     2.387
    46   1 H        0.924     0.049     2.338     2.391
    47   1 H        0.925     0.044     2.397     2.421
    48   1 H        0.925     0.047     2.354     2.399
    49   1 H        0.925     0.046     2.373     2.409
    50   1 H        0.926     0.041     2.440     2.443
    51   1 H        0.926     0.047     2.360     2.402
    52   1 H        0.926     0.060     2.202     2.320
    53   1 H        0.926     0.061     2.188     2.313
    54   1 H        0.926     0.046     2.373     2.409
    55   1 H        0.926     0.043     2.412     2.429
    56   1 H        0.926     0.045     2.385     2.415
    57   1 H        0.926     0.052     2.295     2.369
    58   1 H        0.926     0.052     2.294     2.369
    59   1 H        0.926     0.047     2.357     2.401
    60   1 H        0.926     0.047     2.355     2.400
    61   1 H        0.926     0.049     2.329     2.386
    62   1 H        0.926     0.042     2.422     2.434
    63   1 H        0.926     0.051     2.309     2.376

molecular dipole:
                 x           y           z       tot (Debye)
 q only:       -0.036      -5.200      -0.924
   full:        0.024      -5.528      -1.142      14.347

 projected vibrational frequencies (cm⁻¹)
eigval :       -0.00    -0.00     0.00     0.00     0.00     0.00
eigval :       12.34    19.87    29.22    35.20    38.72    49.96
eigval :       57.69    63.32    73.29    87.26    93.79    98.99
eigval :      111.24   136.41   143.72   152.21   155.06   175.45
eigval :      184.77   186.73   212.99   225.67   234.05   243.97
eigval :      259.87   265.92   267.55   290.09   307.46   324.77
eigval :      329.35   340.40   344.48   355.66   379.71   400.11
eigval :      411.14   418.44   424.70   426.67   433.94   441.54
eigval :      447.37   460.45   488.25   496.70   500.69   513.49
eigval :      521.97   528.10   552.64   567.70   589.51   591.65
eigval :      596.89   609.30   635.34   644.99   657.77   658.13
eigval :      661.49   677.51   687.03   692.15   697.51   699.93
eigval :      720.82   738.76   748.39   779.00   782.48   804.87
eigval :      818.32   822.38   823.36   844.72   846.08   858.39
eigval :      869.13   882.66   887.52   899.51   902.34   907.89
eigval :      915.87   918.10   920.19   929.07   930.95   949.02
eigval :      955.74   975.68  1002.79  1003.98  1040.81  1043.85
eigval :     1055.15  1055.68  1077.28  1081.45  1086.59  1087.14
eigval :     1094.38  1134.50  1149.30  1154.11  1158.99  1172.00
eigval :     1172.69  1175.92  1177.96  1200.27  1215.80  1225.15
eigval :     1229.02  1233.03  1240.22  1241.96  1244.54  1260.89
eigval :     1271.30  1280.65  1289.48  1314.53  1319.57  1328.62
eigval :     1330.57  1338.29  1356.25  1361.60  1381.53  1405.00
eigval :     1408.69  1409.22  1415.88  1419.10  1421.21  1428.57
eigval :     1445.22  1458.22  1479.31  1483.42  1488.83  1489.23
eigval :     1496.62  1499.88  1501.31  1502.22  1521.19  1525.67
eigval :     1546.09  1563.40  1570.15  1572.05  1580.65  1589.22
eigval :     1606.54  1727.75  1784.00  2955.23  2962.99  2974.23
eigval :     2977.06  3038.52  3042.20  3047.59  3050.68  3051.48
eigval :     3055.93  3086.40  3090.60  3093.09  3095.16  3099.56
eigval :     3101.25  3101.82  3104.93  3107.33  3108.57  3114.56
eigval :     3121.77  3127.34  3138.37

   temp. (K)  partition function   enthalpy   heat capacity  entropy
                                   cal/mol     cal/K/mol   cal/K/mol   J/K/mol
 298.15  VIB  0.932E+14            18916.484    118.570    116.862
         ROT  0.566E+08              888.752      2.981     38.456
         INT  0.528E+22            19805.236    121.551    155.318
         TR   0.119E+29             1481.254      4.968     44.683
         TOT                       21286.4900   126.5191   200.0015   836.8062

       T/K    H(0)-H(T)+PV         H(T)/Eh          T*S/Eh         G(T)/Eh
   ------------------------------------------------------------------------
    298.15    0.339222E-01    0.508749E+00    0.950272E-01    0.413721E+00
   ------------------------------------------------------------------------

         :::::::::::::::::::::::::::::::::::::::::::::::::::::
         ::                  THERMODYNAMIC                  ::
         :::::::::::::::::::::::::::::::::::::::::::::::::::::
         :: total free energy        -105.782815103911 Eh   ::
         ::.................................................::
         :: total energy             -106.196536577136 Eh   ::
         :: zero point energy           0.474826452825 Eh   ::
         :: G(RRHO) w/o ZPVE           -0.061104979601 Eh   ::
         :: G(RRHO) contrib.            0.413721473225 Eh   ::
         :::::::::::::::::::::::::::::::::::::::::::::::::::::

           -------------------------------------------------
          | TOTAL ENERGY             -106.196536577136 Eh   |
          | TOTAL ENTHALPY           -105.687787943230 Eh   |
          | TOTAL FREE ENERGY        -105.782815103911 Eh   |
          | GRADIENT NORM               0.000027881631 Eh/α |
          | HOMO-LUMO GAP               1.922409824701 eV   |
           -------------------------------------------------

 * finished run on 2025/09/13 at 18:54:57.943
