   * xtb version 6.7.1 (edcfbbe) compiled by 'albert@albert-system' on 2024-07-22

   ID    Z sym.   atoms
    1    6 C      1, 2, 4-11, 13, 15, 16, 19-21, 23-28, 30-39
    2    7 N      3, 22
    3    8 O      12, 14, 17, 18
    4   16 S      29
    5    1 H      40-63

          program call               : xtb data2507/gas/VBC-PTZ/VBC-PTZ_gas_T1_crest.xyz --gfn 2 --spinpol --tblite --uhf 2 --ohess vtight --parallel 40 --molden --ceasefiles --namespace data2507/gas/VBC-PTZ/VBC-PTZ_gas_T1_finalOpt
 * total energy  :  -106.1303055 Eh     change        0.6748735E-09 Eh
 * total energy  :  -106.1303139 Eh     change       -0.8393987E-05 Eh
 * total energy  :  -106.1303172 Eh     change       -0.3336119E-05 Eh
 * total energy  :  -106.1303189 Eh     change       -0.1748631E-05 Eh
 * total energy  :  -106.1303212 Eh     change       -0.2270743E-05 Eh
 * total energy  :  -106.1303232 Eh     change       -0.2030070E-05 Eh
 * total energy  :  -106.1303255 Eh     change       -0.2229638E-05 Eh
 * total energy  :  -106.1303271 Eh     change       -0.1590279E-05 Eh
 * total energy  :  -106.1303281 Eh     change       -0.1017219E-05 Eh
 * total energy  :  -106.1303291 Eh     change       -0.1034848E-05 Eh
 * total energy  :  -106.1303338 Eh     change       -0.1592259E-06 Eh
 * total energy  :  -106.1303341 Eh     change       -0.2896906E-06 Eh
 * total energy  :  -106.1303343 Eh     change       -0.1922100E-06 Eh
 * total energy  :  -106.1303345 Eh     change       -0.1342785E-06 Eh
 * total energy  :  -106.1303344 Eh     change        0.9600608E-07 Eh
 * total energy  :  -106.1303345 Eh     change       -0.1404162E-06 Eh
 * total energy  :  -106.1303345 Eh     change        0.2591500E-07 Eh
 * total energy  :  -106.1303346 Eh     change       -0.1114832E-06 Eh
 * total energy  :  -106.1303347 Eh     change       -0.7091998E-07 Eh
   *** GEOMETRY OPTIMIZATION CONVERGED AFTER 24 ITERATIONS ***

 final structure:
================
63
 xtb: 6.7.1 (edcfbbe)
C            8.13807616877538        0.81743675894381       -2.06192191343313
C            7.78245699920301        1.41217863591379       -0.69772431861580
N            6.47176269158420        2.02017079585296       -0.68920973808245
C            6.42524680242573        3.42652380913110       -1.01263738476541
C            6.57441434294868        4.31501287119394        0.22471608358831
C            5.34225587563198        1.30425144467631       -0.40183409453668
C            4.10022687050956        1.93295666264215       -0.18701343923487
C            2.96404292643096        1.20528990353795        0.06677857217657
C            2.97062910260349       -0.20229258332702        0.10910369369200
C            4.23850519150193       -0.82221238816981        0.00202375682151
C            5.37754628244709       -0.09687406024880       -0.27111860666659
O            4.39787751216710       -2.16186772047260        0.12223187605950
C            3.39141665590604       -2.97355376118557        0.63970050056961
O            3.70529805093032       -4.11355080801325        0.87510239515444
C            2.09640696372071       -2.36871434312929        0.79805811780483
C            1.06254449201921       -3.14089268932902        1.43652274853455
O            1.17199843972543       -4.21743682867901        1.96742525095757
O           -0.20611243780150       -2.57455696552353        1.46518536194463
C           -0.51526665314428       -1.46077037340378        0.75697422260157
C           -1.85540757614900       -1.13850789716060        0.66917691680604
C           -2.25255015899419       -0.01748932773947       -0.06030647094606
N           -3.64041014520053        0.32107672254865       -0.14169247355421
C           -4.14190145442550        1.18262825544162        0.81535154755043
C           -3.29847226118968        1.64933618720860        1.83292331147822
C           -3.75291477449844        2.51237126373379        2.80732312896786
C           -5.07078305648128        2.94523997866336        2.80556675571228
C           -5.92156045023856        2.49917629425892        1.81469458091464
C           -5.47007575553537        1.63023748122989        0.82972253355939
S           -6.65741022154404        1.15025278052909       -0.37954472785561
C           -5.74253273831696        0.00898606350928       -1.36140223844386
C           -6.44523452845008       -0.60980482931790       -2.38724804310524
C           -5.82084801004647       -1.51028974848271       -3.22617418069372
C           -4.47593782398210       -1.79012836508160       -3.03329791061718
C           -3.77287672216077       -1.18002527511199       -2.01630350857390
C           -4.38461671696431       -0.26528216746932       -1.14834171429630
C           -1.30647156941574        0.75043432005418       -0.72789723227679
C            0.03077241210193        0.43638073471811       -0.62796577083595
C            0.47575842432742       -0.64872416330545        0.15399295003972
C            1.83339625724103       -1.03353498842329        0.32553569056583
H            9.13125262119226        0.37846412808063       -2.02612239785271
H            7.42452506768889        0.04735723689371       -2.34130767063110
H            8.12699287581893        1.58831873442940       -2.82908981501731
H            7.83296865378986        0.64092187969746        0.07302357240528
H            8.51236779888374        2.18407445408429       -0.43916008016430
H            5.48911340288483        3.65251993140546       -1.52744820361537
H            7.24198539934848        3.63937670195846       -1.70808712035693
H            7.52475587632748        4.12516310187787        0.71764934744860
H            5.77756073634402        4.11761267087686        0.93666155400022
H            6.53722170553381        5.36204024422720       -0.06364078577700
H            4.02129582269489        3.00737228953803       -0.19186116400121
H            2.04803739688046        1.73020378869997        0.28430037906859
H            6.28673512831353       -0.66073662567078       -0.38613293598249
H           -2.58171812672839       -1.76329989751469        1.16385123524482
H           -2.27278818462757        1.31883142424867        1.85089223013772
H           -3.07251960983551        2.84717746768828        3.57474107256946
H           -5.43087313115557        3.61944425954978        3.56594067627192
H           -6.95263508462121        2.81700519939192        1.78579367162403
H           -7.48978857233903       -0.36854031509450       -2.51261359290818
H           -6.37502016239297       -1.98630710926087       -4.01903825916911
H           -3.96893616809568       -2.49052138242786       -3.67838537616224
H           -2.72913937042102       -1.41055235168124       -1.87925502130976
H           -1.62824948274747        1.58731184789531       -1.33017110535662
H            0.74880348170034        1.00009199069232       -1.20018222133267

 projected vibrational frequencies (cm⁻¹)
eigval :       -0.00    -0.00     0.00     0.00     0.00     0.00
eigval :        7.25    16.75    17.60    25.15    32.73    36.33
eigval :       53.58    63.31    71.56    85.94    89.34    97.65
eigval :       99.40   111.78   130.78   139.55   168.04   173.12
eigval :      184.05   187.16   208.46   224.19   224.90   228.09
eigval :      241.23   254.06   264.45   287.37   295.08   313.80
eigval :      333.48   338.03   346.85   375.80   383.36   392.58
eigval :      407.22   413.75   416.28   424.20   424.75   436.14
eigval :      442.51   457.56   475.81   483.48   487.88   497.89
eigval :      514.09   517.89   530.15   548.47   565.24   578.59
eigval :      600.31   610.38   617.52   635.36   649.15   654.34
eigval :      655.05   655.38   666.40   675.39   682.76   702.94
eigval :      707.15   716.96   733.90   769.98   773.62   796.74
eigval :      818.45   820.08   822.95   834.80   838.42   852.60
eigval :      862.43   864.40   865.01   885.82   892.70   904.93
eigval :      905.81   905.98   906.29   919.42   919.89   920.13
eigval :      925.54   974.88   989.22   995.95  1029.34  1045.75
eigval :     1052.17  1057.24  1073.71  1077.52  1092.87  1098.87
eigval :     1099.28  1118.03  1138.73  1150.89  1154.71  1161.03
eigval :     1165.08  1177.32  1179.69  1195.32  1212.23  1215.91
eigval :     1222.35  1233.49  1237.96  1244.94  1249.08  1258.71
eigval :     1267.88  1269.22  1301.16  1301.98  1322.53  1324.80
eigval :     1330.79  1333.52  1335.08  1337.84  1354.62  1374.52
eigval :     1391.09  1402.66  1403.59  1407.83  1413.80  1419.90
eigval :     1436.46  1444.47  1453.67  1463.55  1472.26  1474.52
eigval :     1487.06  1487.79  1488.98  1494.81  1498.81  1500.22
eigval :     1517.36  1544.82  1547.88  1559.62  1567.10  1568.60
eigval :     1582.35  1652.55  1728.69  2954.49  2961.32  2977.22
eigval :     2982.56  3039.30  3042.92  3049.56  3052.29  3053.19
eigval :     3056.80  3082.05  3093.49  3094.08  3097.52  3098.85
eigval :     3103.57  3110.45  3111.06  3111.45  3113.88  3117.23
eigval :     3119.20  3121.04  3135.26

   temp. (K)  partition function   enthalpy   heat capacity  entropy
                                   cal/mol     cal/K/mol   cal/K/mol   J/K/mol
 298.15  VIB  0.135E+16            19301.282    119.283    120.450
         ROT  0.571E+08              888.752      2.981     38.473
         INT  0.772E+23            20190.034    122.263    158.923
         TR   0.119E+29             1481.254      4.968     44.683
         TOT                       21671.2883   127.2316   203.6060   851.8875

       T/K    H(0)-H(T)+PV         H(T)/Eh          T*S/Eh         G(T)/Eh
   ------------------------------------------------------------------------
    298.15    0.345354E-01    0.505977E+00    0.967398E-01    0.409237E+00
   ------------------------------------------------------------------------

         :::::::::::::::::::::::::::::::::::::::::::::::::::::
         ::                  THERMODYNAMIC                  ::
         :::::::::::::::::::::::::::::::::::::::::::::::::::::
         :: total free energy        -105.721097170227 Eh   ::
         ::.................................................::
         :: total energy             -106.130334662112 Eh   ::
         :: zero point energy           0.471441870836 Eh   ::
         :: G(RRHO) w/o ZPVE           -0.062204378951 Eh   ::
         :: G(RRHO) contrib.            0.409237491885 Eh   ::
         :::::::::::::::::::::::::::::::::::::::::::::::::::::

           -------------------------------------------------
          | TOTAL ENERGY             -106.130334662112 Eh   |
          | TOTAL ENTHALPY           -105.624357395118 Eh   |
          | TOTAL FREE ENERGY        -105.721097170227 Eh   |
          | GRADIENT NORM               0.000121919567 Eh/α |
           -------------------------------------------------

 * finished run on 2025/09/13 at 19:02:22.572
