   * xtb version 6.7.1 (edcfbbe) compiled by 'albert@albert-system' on 2024-07-22

   ID    Z sym.   atoms
    1    6 C      1, 2, 4-11, 13, 15, 16, 19-21, 23-28, 30-39
    2    7 N      3, 22
    3    8 O      12, 14, 17, 18
    4   16 S      29
    5    1 H      40-63

          program call               : xtb data2507/gas/VBC-PTZ/VBC-PTZ_gas_S0_finalOpt.xtbopt.xyz --gfn 2 --spinpol --tblite --uhf 2 --ohess vtight --parallel 40 --molden --ceasefiles --namespace data2507/gas/VBC-PTZ/VBC-PTZ_gas_T1_preOpt
 * total energy  :  -106.1197546 Eh     change       -0.6371195E-08 Eh
 * total energy  :  -106.1226627 Eh     change       -0.2908130E-02 Eh
 * total energy  :  -106.1233921 Eh     change       -0.7293431E-03 Eh
 * total energy  :  -106.1234687 Eh     change       -0.7666818E-04 Eh
 * total energy  :  -106.1235404 Eh     change       -0.7166761E-04 Eh
 * total energy  :  -106.1236229 Eh     change       -0.8246598E-04 Eh
 * total energy  :  -106.1236835 Eh     change       -0.6064843E-04 Eh
 * total energy  :  -106.1237227 Eh     change       -0.3914963E-04 Eh
 * total energy  :  -106.1237380 Eh     change       -0.1538851E-04 Eh
 * total energy  :  -106.1237484 Eh     change       -0.1032624E-04 Eh
 * total energy  :  -106.1237963 Eh     change       -0.2067146E-06 Eh
 * total energy  :  -106.1237963 Eh     change       -0.5085899E-07 Eh
 * total energy  :  -106.1237967 Eh     change       -0.3289629E-06 Eh
 * total energy  :  -106.1237971 Eh     change       -0.4443297E-06 Eh
 * total energy  :  -106.1237973 Eh     change       -0.2130344E-06 Eh
 * total energy  :  -106.1237977 Eh     change       -0.4158692E-06 Eh
 * total energy  :  -106.1237981 Eh     change       -0.3441306E-06 Eh
 * total energy  :  -106.1237982 Eh     change       -0.1632127E-06 Eh
 * total energy  :  -106.1237983 Eh     change       -0.5948110E-07 Eh
   *** GEOMETRY OPTIMIZATION CONVERGED AFTER 36 ITERATIONS ***

 final structure:
================
63
 xtb: 6.7.1 (edcfbbe)
C            8.19418343867663       -1.28194488376728        1.60296685283466
C            7.85900344887667       -1.32049831008578        0.11033880625559
N            6.57305570119929       -1.92552499332459       -0.14828720189507
C            6.57911313699251       -3.35011566141376       -0.38139744140584
C            6.75911126237009       -3.69850641349818       -1.86102503295721
C            5.41501082969093       -1.19496518827009       -0.15365075781618
C            4.19804711962277       -1.73651567987827       -0.60775349164063
C            3.03385014799619       -1.00826395488978       -0.57668250728066
C            2.98832606629130        0.30783883621924       -0.07898932497289
C            4.22929743210324        0.87922672137192        0.28346124803513
C            5.39663391247126        0.14832728686172        0.26835402204802
O            4.33739472519341        2.16763660023908        0.70129028381822
C            3.30212104075289        3.07607145744339        0.54751918437060
O            3.56253018363175        4.22547541714940        0.80228997972393
C            2.02758887647825        2.54244552557446        0.13217157399757
C            0.95880674331002        3.47201345823836       -0.14881529597701
O            1.03742388758525        4.67337339918020       -0.20944451595539
O           -0.28859525537660        2.92824588538425       -0.40232555211822
C           -0.54898730269954        1.60539666670853       -0.22861659217270
C           -1.87158597553665        1.23259713427116       -0.31351965548093
C           -2.25429196224786       -0.11030103399982       -0.15714168376222
N           -3.58760792420725       -0.48729417718991       -0.24822029219112
C           -4.01543146766014       -1.80754673209858       -0.04558459678540
C           -3.43910044044629       -2.87308705114291       -0.73707314063598
C           -3.86887025386505       -4.16604305358670       -0.51454704416564
C           -4.89258709268391       -4.41988071921528        0.38759888883914
C           -5.51002151940933       -3.37003392544929        1.04027619701846
C           -5.08248531737164       -2.06984408211291        0.81751646696190
S           -5.89562638751692       -0.72652292381594        1.63183627436851
C           -5.75649683791580        0.44041990265982        0.30855006356551
C           -6.77886125450077        1.35003331674690        0.08577367334388
C           -6.69012404009344        2.24004786057777       -0.96772565724316
C           -5.59769358585034        2.19260675140314       -1.82167732251330
C           -4.57733764343722        1.28850012169413       -1.60151287834380
C           -4.62201452764201        0.42713288366006       -0.50563511573120
C           -1.26259337118255       -1.02805609008085        0.21895249734042
C            0.05595538678199       -0.65390171007208        0.29507557488112
C            0.47847019410576        0.65915130406316        0.00018396623747
C            1.82109530893583        1.11923154354887        0.01592410228184
H            9.16956215029836       -0.82695174060080        1.75135033123198
H            7.45181494439100       -0.70476123021003        2.14701632097676
H            8.21431949943486       -2.28800042112794        2.01570739261437
H            7.87842833394753       -0.31125928482551       -0.30511787678453
H            8.61787720286796       -1.90707950626492       -0.41468714872411
H            5.65250483163225       -3.78635282888335       -0.00236596992771
H            7.40412958872084       -3.78235369100989        0.19184696174466
H            7.70141648696228       -3.30385108216251       -2.23315310689793
H            5.95488825880266       -3.27337722716007       -2.45538642933737
H            6.76033502552991       -4.77739163680289       -1.99083657828735
H            4.15962280861997       -2.73287702671969       -1.01578209111877
H            2.13645714349926       -1.44180249646101       -0.98739383747379
H            6.28355587286972        0.65567820406151        0.60564235921233
H           -2.59493576363968        2.01359682543922       -0.47495074971459
H           -2.65749627049876       -2.66983673149252       -1.45316112649631
H           -3.40753440474395       -4.98017307573440       -1.05204167319031
H           -5.22090338212686       -5.43152325152002        0.56704223763025
H           -6.32421185292381       -3.54382417620155        1.72631984499561
H           -7.63377294918918        1.35026479922111        0.74379004892319
H           -7.48037345507341        2.95486218186287       -1.13447697089117
H           -5.54186442857600        2.86101311200847       -2.66670700180992
H           -3.73879198351614        1.23458897226748       -2.27838026884033
H           -1.53220342138414       -2.03612157720512        0.49145633692916
H            0.78267491539694       -1.36972585293921        0.64322250526253

 projected vibrational frequencies (cm⁻¹)
eigval :       -0.00    -0.00    -0.00     0.00     0.00     0.00
eigval :       11.78    18.80    27.38    34.18    39.54    52.73
eigval :       59.14    64.71    71.49    83.33    89.57   101.08
eigval :      107.80   135.50   139.39   148.94   155.66   173.75
eigval :      182.50   184.48   208.77   222.42   224.58   231.25
eigval :      257.44   259.40   270.21   283.68   302.42   321.50
eigval :      327.70   338.89   347.45   358.42   377.74   387.64
eigval :      403.56   414.54   424.45   425.32   427.44   440.00
eigval :      441.91   455.19   481.03   489.89   491.89   503.97
eigval :      509.49   520.80   525.83   548.87   565.05   576.64
eigval :      588.01   592.55   606.19   630.92   650.40   654.58
eigval :      656.48   670.71   673.64   680.24   684.81   694.85
eigval :      709.30   714.76   734.19   776.85   779.95   797.05
eigval :      817.96   820.47   823.01   835.18   838.60   845.52
eigval :      863.24   876.95   887.66   891.59   896.04   901.89
eigval :      908.48   914.21   915.48   922.77   928.28   935.20
eigval :      936.84   974.61   990.74   996.15  1025.09  1043.37
eigval :     1051.57  1053.17  1073.16  1077.31  1086.23  1087.04
eigval :     1092.77  1119.48  1146.50  1148.22  1155.73  1165.94
eigval :     1170.55  1174.22  1174.99  1191.71  1213.10  1215.45
eigval :     1224.95  1229.48  1233.11  1240.09  1245.13  1257.57
eigval :     1267.20  1268.98  1287.90  1311.26  1315.54  1322.23
eigval :     1322.75  1324.94  1335.38  1343.46  1355.61  1379.41
eigval :     1389.55  1402.85  1407.14  1410.21  1416.38  1426.53
eigval :     1433.08  1443.77  1449.59  1452.89  1472.24  1474.18
eigval :     1485.16  1486.93  1487.46  1494.33  1498.36  1499.71
eigval :     1501.16  1545.78  1548.01  1556.30  1562.37  1572.19
eigval :     1574.80  1648.35  1720.90  2953.60  2960.24  2975.99
eigval :     2981.64  3039.30  3042.71  3048.97  3051.80  3053.08
eigval :     3056.52  3089.46  3093.47  3095.93  3097.62  3098.12
eigval :     3101.40  3103.43  3103.99  3108.79  3110.27  3111.46
eigval :     3116.48  3128.66  3134.93

   temp. (K)  partition function   enthalpy   heat capacity  entropy
                                   cal/mol     cal/K/mol   cal/K/mol   J/K/mol
 298.15  VIB  0.151E+15            19157.388    119.941    118.508
         ROT  0.570E+08              888.752      2.981     38.470
         INT  0.863E+22            20046.140    122.922    156.979
         TR   0.119E+29             1481.254      4.968     44.683
         TOT                       21527.3939   127.8898   201.6620   843.7537

       T/K    H(0)-H(T)+PV         H(T)/Eh          T*S/Eh         G(T)/Eh
   ------------------------------------------------------------------------
    298.15    0.343061E-01    0.505914E+00    0.958161E-01    0.410098E+00
   ------------------------------------------------------------------------

         :::::::::::::::::::::::::::::::::::::::::::::::::::::
         ::                  THERMODYNAMIC                  ::
         :::::::::::::::::::::::::::::::::::::::::::::::::::::
         :: total free energy        -105.713699907797 Eh   ::
         ::.................................................::
         :: total energy             -106.123798284967 Eh   ::
         :: zero point energy           0.471608398187 Eh   ::
         :: G(RRHO) w/o ZPVE           -0.061510021016 Eh   ::
         :: G(RRHO) contrib.            0.410098377171 Eh   ::
         :::::::::::::::::::::::::::::::::::::::::::::::::::::

           -------------------------------------------------
          | TOTAL ENERGY             -106.123798284967 Eh   |
          | TOTAL ENTHALPY           -105.617883800946 Eh   |
          | TOTAL FREE ENERGY        -105.713699907797 Eh   |
          | GRADIENT NORM               0.000197881119 Eh/α |
           -------------------------------------------------

 * finished run on 2025/09/13 at 18:55:04.439
