   * xtb version 6.7.1 (edcfbbe) compiled by 'albert@albert-system' on 2024-07-22

   ID    Z sym.   atoms
    1    6 C      1-9, 11-15, 17-22, 24-31
    2    7 N      10
    3    8 O      16, 23
    4    1 H      32-52

          program call               : xtb data2507/toluene/ACRXTN/ACRXTN.xyz --gfn 2 --gbsa toluene --ohess vtight --parallel 40 --molden --ceasefiles --namespace data2507/toluene/ACRXTN/ACRXTN_toluene_S0_preOpt
      * Solvation model:               GBSA
        Solvent                        toluene
        Solvent mass                       9.2140E+01 g/mol
          :  Hamiltonian                  GFN2-xTB          :
 * total energy  :   -81.7879623 Eh     change       -0.6168790E-09 Eh
 * total energy  :   -81.7989972 Eh     change       -0.1103487E-01 Eh
 * total energy  :   -81.8020449 Eh     change       -0.3047761E-02 Eh
 * total energy  :   -81.8024600 Eh     change       -0.4150597E-03 Eh
 * total energy  :   -81.8026431 Eh     change       -0.1831344E-03 Eh
 * total energy  :   -81.8026597 Eh     change       -0.1653907E-04 Eh
 * total energy  :   -81.8026639 Eh     change       -0.4204827E-05 Eh
 * total energy  :   -81.8026648 Eh     change       -0.9607320E-06 Eh
 * total energy  :   -81.8026653 Eh     change       -0.4929234E-06 Eh
 * total energy  :   -81.8026655 Eh     change       -0.2125615E-06 Eh
 * total energy  :   -81.8026656 Eh     change       -0.1061399E-06 Eh
 * total energy  :   -81.8026657 Eh     change       -0.4454279E-07 Eh
   *** GEOMETRY OPTIMIZATION CONVERGED AFTER 12 ITERATIONS ***

 final structure:
================
52
 xtb: 6.7.1 (edcfbbe)
C           -5.07283439961794       -0.00000662667454       -0.71201488620324
C           -3.93311242790557       -0.00001391005913        0.32403301070867
C           -4.51075095349296       -0.00003703619952        1.75207003722306
C           -3.10419190837475        1.25745059572155        0.13604173575881
C           -3.70892866821205        2.50127130169352        0.26003069248889
C           -3.00484641102999        3.68098070147098        0.10051626428999
C           -1.65370353992093        3.62829219417792       -0.19134790793872
C           -1.02684915298614        2.40605546336482       -0.31902034676902
C           -1.73768206699953        1.21319179371343       -0.15921665649843
N           -1.07855144672073        0.00001238877859       -0.29460577590017
C            0.30792876490106        0.00002534009567       -0.60389229140620
C            0.72531494190751        0.00007530475386       -1.93915608149978
C            2.06744122156995        0.00008841820154       -2.23331350293992
C            3.02824006777628        0.00005036331943       -1.21604546006209
C            4.46088799913548        0.00006392763214       -1.53950821751065
O            4.88357109015802        0.00011123184669       -2.69023490378156
C            5.33704727223454        0.00001543876154       -0.36278542037111
C            6.72898492789866        0.00001927975659       -0.50951228755477
C            7.55242634380307       -0.00002523009286        0.59210754536709
C            6.99931867450353       -0.00007435628761        1.87089008906980
C            5.63229875614642       -0.00007912459920        2.04289403575009
C            4.79305862905312       -0.00003407339685        0.92774513127961
O            3.45760092636997       -0.00004098299946        1.16366272860373
C            2.60182910683384       -0.00000059725163        0.11844323039564
C            1.23914033054181       -0.00001216347067        0.41849460704267
C           -1.73766610180213       -1.21317893927433       -0.15924705553143
C           -1.02681941285247       -2.40602947471156       -0.31908693639160
C           -1.65365922003971       -3.62827756191873       -0.19145093434656
C           -3.00480124477114       -3.68099090029958        0.10041261447762
C           -3.70889750790882       -2.50129454925601        0.25996159792642
C           -3.10417584810363       -1.25746288735544        0.13600843221128
H           -5.69971366975926       -0.88003665397039       -0.59920868744764
H           -4.65885515231437        0.00001468547107       -1.71903578175000
H           -5.69972955068523        0.88000816015018       -0.59917792162161
H           -3.70082657435838       -0.00004764767534        2.47973986097222
H           -5.12414173416797        0.88052641290905        1.92170341795284
H           -5.12414000807728       -0.88060707564389        1.92167555913323
H           -4.76227197807885        2.55809486306657        0.48902329251429
H           -3.50767173031651        4.63090236888692        0.20322647721510
H           -1.08393149037084        4.53688806155072       -0.32041850963494
H            0.02730419153816        2.37149428922234       -0.54847693145816
H           -0.01348529338453        0.00010407417523       -2.72546848801507
H            2.42009664029562        0.00012759318023       -3.25389835808312
H            7.12464920759634        0.00005790511786       -1.51441995966902
H            8.62403093082774       -0.00002243961448        0.46755432425601
H            7.64501435379921       -0.00010991279763        2.73564775055256
H            5.18525639664961       -0.00011681804304        3.02444567475089
H            0.92719485688796       -0.00005162491375        1.45126316544641
H            0.02733304852091       -2.37144901884320       -0.54854448320319
H           -1.08387655482259       -4.53686272839621       -0.32055009149313
H           -3.50761539339587       -4.63092159576403        0.20309446779051
H           -4.76224023847878       -2.55813722750932        0.48895213390376

          :  Hamiltonian                  GFN2-xTB          :
         :: gradient norm              0.000043327329 Eh/a0 ::
         :: HOMO-LUMO gap              1.365411416131 eV    ::
         :: SCC energy               -83.188281884182 Eh    ::
         :: -> dispersion             -0.068653531516 Eh    ::
         :: -> Gsolv                  -0.034790109582 Eh    ::
         :: repulsion energy           1.385616203608 Eh    ::

    * Orbital Energies and Occupations

         #    Occupation            Energy/Eh            Energy/eV
      -------------------------------------------------------------
         1        2.0000           -0.7603594             -20.6904
       ...           ...                  ...                  ...
        63        2.0000           -0.4392449             -11.9525
        64        2.0000           -0.4369646             -11.8904
        65        2.0000           -0.4322599             -11.7624
        66        2.0000           -0.4281978             -11.6519
        67        2.0000           -0.4252517             -11.5717
        68        2.0000           -0.4097082             -11.1487
        69        2.0000           -0.4081204             -11.1055
        70        2.0000           -0.4047084             -11.0127
        71        2.0000           -0.4028364             -10.9617
        72        2.0000           -0.3999659             -10.8836
        73        2.0000           -0.3985326             -10.8446
        74        2.0000           -0.3932063             -10.6997
        75        2.0000           -0.3483325              -9.4786 (HOMO)
        76                         -0.2981545              -8.1132 (LUMO)
        77                         -0.2585702              -7.0361
        78                         -0.2492571              -6.7826
        79                         -0.2304540              -6.2710
        80                         -0.2249358              -6.1208
        81                         -0.2198391              -5.9821
        82                         -0.2188907              -5.9563
        83                         -0.1928723              -5.2483
        84                         -0.1912234              -5.2035
        85                         -0.1243220              -3.3830
        86                         -0.0919953              -2.5033
       ...                                ...                  ...
       145                          0.6807593              18.5244
      -------------------------------------------------------------
                  HL-Gap            0.0501780 Eh            1.3654 eV

     #   Z          covCN         q      C6AA      α(0)
     1   6 C        3.761    -0.104    22.537     6.768
     2   6 C        3.908     0.021    20.164     6.383
     3   6 C        3.761    -0.104    22.534     6.767
     4   6 C        2.979    -0.013    28.330     8.731
     5   6 C        2.928    -0.037    28.919     8.819
     6   6 C        2.917    -0.046    29.139     8.852
     7   6 C        2.919    -0.034    28.852     8.808
     8   6 C        2.924    -0.060    29.495     8.906
     9   6 C        2.928     0.058    26.703     8.474
    10   7 N        2.755    -0.071    22.617     7.063
    11   6 C        2.927     0.083    26.154     8.387
    12   6 C        2.917    -0.043    29.056     8.839
    13   6 C        2.922    -0.017    28.441     8.746
    14   6 C        2.973    -0.044    29.089     8.847
    15   6 C        2.831     0.224    23.285     7.907
    16   8 O        0.857    -0.447    22.635     6.379
    17   6 C        2.973    -0.042    29.035     8.839
    18   6 C        2.923    -0.018    28.448     8.747
    19   6 C        2.916    -0.031    28.779     8.797
    20   6 C        2.921    -0.018    28.449     8.747
    21   6 C        2.915    -0.048    29.204     8.862
    22   6 C        2.886     0.142    24.897     8.180
    23   8 O        1.711    -0.207    17.441     5.639
    24   6 C        2.885     0.145    24.847     8.172
    25   6 C        2.918    -0.061    29.508     8.908
    26   6 C        2.928     0.058    26.703     8.474
    27   6 C        2.924    -0.060    29.495     8.906
    28   6 C        2.919    -0.034    28.852     8.808
    29   6 C        2.917    -0.046    29.139     8.852
    30   6 C        2.928    -0.037    28.919     8.819
    31   6 C        2.979    -0.013    28.330     8.731
    32   1 H        0.925     0.042     2.418     2.432
    33   1 H        0.925     0.030     2.580     2.512
    34   1 H        0.925     0.042     2.418     2.432
    35   1 H        0.925     0.031     2.576     2.510
    36   1 H        0.925     0.042     2.418     2.432
    37   1 H        0.925     0.042     2.418     2.432
    38   1 H        0.926     0.034     2.526     2.485
    39   1 H        0.926     0.027     2.630     2.536
    40   1 H        0.926     0.027     2.627     2.535
    41   1 H        0.926     0.021     2.718     2.578
    42   1 H        0.926     0.062     2.174     2.306
    43   1 H        0.926     0.068     2.106     2.269
    44   1 H        0.926     0.061     2.187     2.313
    45   1 H        0.926     0.058     2.218     2.329
    46   1 H        0.926     0.064     2.148     2.292
    47   1 H        0.926     0.067     2.114     2.273
    48   1 H        0.926     0.072     2.068     2.249
    49   1 H        0.926     0.021     2.718     2.578
    50   1 H        0.926     0.027     2.627     2.535
    51   1 H        0.926     0.027     2.630     2.536
    52   1 H        0.926     0.034     2.526     2.485

molecular dipole:
                 x           y           z       tot (Debye)
 q only:       -0.260      -0.000       1.561
   full:       -0.206      -0.000       1.575       4.038

 projected vibrational frequencies (cm⁻¹)
eigval :       -0.00    -0.00    -0.00     0.00     0.00     0.00
eigval :      -11.91    22.78    26.35    43.64    48.48    97.86
eigval :      101.91   105.93   125.07   128.30   150.18   157.10
eigval :      191.72   209.89   219.82   231.14   237.61   265.51
eigval :      289.90   297.03   315.87   329.24   334.19   342.52
eigval :      377.80   381.36   392.77   410.68   415.62   432.68
eigval :      448.00   461.37   489.79   497.74   512.68   513.20
eigval :      542.62   545.58   554.89   556.13   586.28   615.47
eigval :      621.01   646.78   649.68   670.16   680.24   684.44
eigval :      691.52   702.65   735.76   740.62   776.87   777.50
eigval :      788.07   820.92   826.97   836.65   860.45   869.17
eigval :      869.94   877.74   881.69   912.86   913.60   916.34
eigval :      920.60   920.65   921.81   923.39   927.44   928.42
eigval :      937.27   955.66   996.70  1011.11  1074.13  1075.41
eigval :     1081.43  1108.12  1111.91  1117.95  1124.09  1139.45
eigval :     1149.01  1158.50  1166.49  1178.77  1182.97  1186.41
eigval :     1186.48  1211.46  1218.19  1228.51  1238.20  1248.80
eigval :     1248.99  1267.56  1273.04  1292.67  1309.39  1322.95
eigval :     1331.92  1337.56  1342.59  1348.76  1398.48  1407.99
eigval :     1417.26  1429.70  1434.96  1439.63  1441.55  1461.10
eigval :     1476.77  1485.78  1487.65  1494.62  1497.36  1501.50
eigval :     1544.39  1567.23  1574.07  1580.47  1589.74  1589.78
eigval :     1592.23  1600.26  1641.71  3021.37  3023.86  3038.72
eigval :     3041.64  3047.25  3052.04  3073.00  3073.07  3080.30
eigval :     3080.42  3090.08  3090.19  3090.34  3093.09  3093.75
eigval :     3096.82  3098.00  3102.78  3104.81  3108.32  3109.00

   temp. (K)  partition function   enthalpy   heat capacity  entropy
                                   cal/mol     cal/K/mol   cal/K/mol   J/K/mol
 298.15  VIB  0.918E+10            13987.208     91.877     84.380
         ROT  0.208E+08              888.752      2.981     36.463
         INT  0.191E+18            14875.960     94.858    120.843
         TR   0.784E+28             1481.254      4.968     43.856
         TOT                       16357.2140    99.8262   164.6992   689.1013

       T/K    H(0)-H(T)+PV         H(T)/Eh          T*S/Eh         G(T)/Eh
   ------------------------------------------------------------------------
    298.15    0.260669E-01    0.428706E+00    0.782539E-01    0.350452E+00
   ------------------------------------------------------------------------

         :::::::::::::::::::::::::::::::::::::::::::::::::::::
         ::                  THERMODYNAMIC                  ::
         :::::::::::::::::::::::::::::::::::::::::::::::::::::
         :: total free energy         -81.452213580727 Eh   ::
         ::.................................................::
         :: total energy              -81.802665676817 Eh   ::
         :: zero point energy           0.402639100404 Eh   ::
         :: G(RRHO) w/o ZPVE           -0.052187004313 Eh   ::
         :: G(RRHO) contrib.            0.350452096090 Eh   ::
         :::::::::::::::::::::::::::::::::::::::::::::::::::::

           -------------------------------------------------
          | TOTAL ENERGY              -81.802665676817 Eh   |
          | TOTAL ENTHALPY            -81.373959696661 Eh   |
          | TOTAL FREE ENERGY         -81.452213580727 Eh   |
          | GRADIENT NORM               0.000043286593 Eh/α |
          | HOMO-LUMO GAP               1.365412399628 eV   |
           -------------------------------------------------

 * finished run on 2025/07/16 at 13:03:54.517
