   * xtb version 6.7.1 (edcfbbe) compiled by 'albert@albert-system' on 2024-07-22

   ID    Z sym.   atoms
    1    6 C      1-9, 11-15, 17-22, 24-31
    2    7 N      10
    3    8 O      16, 23
    4    1 H      32-52

          program call               : xtb data2507/toluene/ACRXTN/ACRXTN_toluene_S0_finalOpt.xtbopt.xyz --gfn 2 --uhf 2 --gbsa toluene --ohess vtight --parallel 40 --molden --ceasefiles --namespace data2507/toluene/ACRXTN/ACRXTN_toluene_T1_preOpt
      * Solvation model:               GBSA
        Solvent                        toluene
        Solvent mass                       9.2140E+01 g/mol
          :  Hamiltonian                  GFN2-xTB          :
 * total energy  :   -81.7091181 Eh     change       -0.2677353E-08 Eh
 * total energy  :   -81.7120694 Eh     change       -0.2951327E-02 Eh
 * total energy  :   -81.7128120 Eh     change       -0.7426553E-03 Eh
 * total energy  :   -81.7128948 Eh     change       -0.8273993E-04 Eh
 * total energy  :   -81.7129454 Eh     change       -0.5059577E-04 Eh
 * total energy  :   -81.7129795 Eh     change       -0.3409676E-04 Eh
 * total energy  :   -81.7130150 Eh     change       -0.3551594E-04 Eh
 * total energy  :   -81.7130458 Eh     change       -0.3079904E-04 Eh
 * total energy  :   -81.7130680 Eh     change       -0.2216331E-04 Eh
 * total energy  :   -81.7130871 Eh     change       -0.1918117E-04 Eh
 * total energy  :   -81.7132085 Eh     change       -0.7049335E-06 Eh
 * total energy  :   -81.7132092 Eh     change       -0.6098518E-06 Eh
 * total energy  :   -81.7132095 Eh     change       -0.3691672E-06 Eh
 * total energy  :   -81.7132097 Eh     change       -0.1918575E-06 Eh
 * total energy  :   -81.7132099 Eh     change       -0.1715622E-06 Eh
 * total energy  :   -81.7132101 Eh     change       -0.1926222E-06 Eh
 * total energy  :   -81.7132103 Eh     change       -0.1942176E-06 Eh
 * total energy  :   -81.7132104 Eh     change       -0.1260258E-06 Eh
 * total energy  :   -81.7132105 Eh     change       -0.7392042E-07 Eh
   *** GEOMETRY OPTIMIZATION CONVERGED AFTER 42 ITERATIONS ***

 final structure:
================
52
 xtb: 6.7.1 (edcfbbe)
C           -5.09407431169276        0.86098913346200        1.83504844213635
C           -3.72852181622436        0.47204607815517        1.26639265505512
C           -2.76334807061651        0.25109504198294        2.45147418617480
C           -3.15525124191670        1.53799671255190        0.35249760808524
C           -3.61999389204241        2.83934550775742        0.27358710022598
C           -3.04267083884500        3.75341992900812       -0.59580787447390
C           -1.99955335718327        3.36743909076881       -1.42306842650300
C           -1.51243027002822        2.07784651009972       -1.35919725761029
C           -2.06256702208334        1.17051172360511       -0.45196144713536
N           -1.62163882199778       -0.15579296856623       -0.39159198983099
C           -0.28921485677364       -0.51437162692324       -0.29898869134851
C            0.10698177956817       -1.85986466842565       -0.17549626518873
C            1.43213072709577       -2.20011331648374       -0.09352058564015
C            2.45088980454375       -1.21675318562229       -0.07253957871900
C            3.84007234778307       -1.57024866649675        0.02815988624110
O            4.23025743574945       -2.77846993736108        0.05644353558211
C            4.75709478737769       -0.45134779721826        0.06176031250279
C            6.14606878919627       -0.64848421661548        0.14553711868137
C            7.00975833079202        0.42398686851528        0.20471028784223
C            6.51852875515065        1.72101433833575        0.17973336720734
C            5.14835545305429        1.94177728382357        0.09467797221417
C            4.27643692053016        0.87003655781061        0.03312170284986
O            2.93946621438817        1.16507851352807       -0.05687244764604
C            2.04591876987816        0.13751831148488       -0.12546800341333
C            0.71794157912717        0.48237026765660       -0.20997382862638
C           -2.67462648302465       -1.07774751761634       -0.37961871278618
C           -2.67908214023169       -2.18929558023882       -1.22342303861393
C           -3.75027790184039       -3.05962153537882       -1.20952224444444
C           -4.82406918686299       -2.81934069222007       -0.36667063997754
C           -4.84273470900263       -1.68776652760592        0.43526383722231
C           -3.78564944465750       -0.79403856719316        0.43358929735690
H           -5.46103532126198        0.07753287422311        2.49226140114524
H           -5.81554248260291        1.02664181067827        1.03862244677897
H           -5.00569303860596        1.76516063254793        2.43090759942962
H           -1.76755719465344       -0.02676115601174        2.11620140832721
H           -2.68493726459985        1.16404557240770        3.03726419349464
H           -3.14266431982980       -0.54289032116000        3.09064560253994
H           -4.44339479634935        3.15925385860286        0.88996521510759
H           -3.42348153977523        4.76213972793357       -0.64117561605314
H           -1.57492563200318        4.06525994698519       -2.12838853443173
H           -0.73708143574000        1.75092959708495       -2.03500146657301
H           -0.63151291740678       -2.64158167072192       -0.10908199403867
H            1.73926820466112       -3.23017301201843       -0.00168547216722
H            6.50557397113536       -1.66663866855963        0.16559993233059
H            8.07362382843560        0.24916214052261        0.27057428016779
H            7.19281068865887        2.56209767319399        0.22427826007780
H            4.74265356396432        2.94147402946423        0.07280513996599
H            0.47123010512093        1.52958946382127       -0.16852737233418
H           -1.86384818831723       -2.33603514398099       -1.91521572656371
H           -3.75182741559748       -3.91651896665282       -1.86556645511451
H           -5.66031735236262       -3.50119197177015       -0.34866861529631
H           -5.70036632488032       -1.51114620395665        1.06262638111462

          :  Hamiltonian                  GFN2-xTB          :
         :: gradient norm              0.000062867659 Eh/a0 ::
         :: HOMO-LUMO gap              0.889540567256 eV    ::
         :: SCC energy               -83.083407939344 Eh    ::
         :: -> dispersion             -0.068947879595 Eh    ::
         :: -> Gsolv                  -0.046994089781 Eh    ::
         :: repulsion energy           1.370197462292 Eh    ::

    * Orbital Energies and Occupations

         #    Occupation            Energy/Eh            Energy/eV
      -------------------------------------------------------------
         1        2.0000           -0.7351383             -20.0041
       ...           ...                  ...                  ...
        64        2.0000           -0.4312096             -11.7338
        65        2.0000           -0.4292973             -11.6818
        66        2.0000           -0.4223140             -11.4917
        67        2.0000           -0.4205929             -11.4449
        68        2.0000           -0.4191127             -11.4046
        69        2.0000           -0.4153764             -11.3030
        70        2.0000           -0.4143958             -11.2763
        71        2.0000           -0.4131476             -11.2423
        72        2.0000           -0.4028607             -10.9624
        73        1.9999           -0.3845878             -10.4652
        74        1.8247           -0.3770321             -10.2596
        75        1.1754           -0.3740904             -10.1795
        76        1.0000           -0.2790510              -7.5934 (HOMO)
        77                         -0.2463608              -6.7038 (LUMO)
        78                         -0.2424873              -6.5984
        79                         -0.2413388              -6.5672
        80                         -0.2352333              -6.4010
        81                         -0.2328880              -6.3372
        82                         -0.2234386              -6.0801
        83                         -0.2088150              -5.6821
        84                         -0.1675679              -4.5598
        85                         -0.1177713              -3.2047
        86                         -0.1090030              -2.9661
        87                         -0.1034146              -2.8141
       ...                                ...                  ...
       145                          0.6777242              18.4418
      -------------------------------------------------------------
                  HL-Gap            0.0326902 Eh            0.8895 eV

     #   Z          covCN         q      C6AA      α(0)
     1   6 C        3.759    -0.114    22.727     6.797
     2   6 C        3.911     0.025    20.104     6.373
     3   6 C        3.761    -0.103    22.511     6.764
     4   6 C        2.987     0.003    27.954     8.673
     5   6 C        2.921    -0.033    28.819     8.803
     6   6 C        2.918    -0.028    28.701     8.785
     7   6 C        2.918    -0.028    28.703     8.785
     8   6 C        2.918    -0.038    28.956     8.824
     9   6 C        2.955     0.051    26.847     8.498
    10   7 N        2.754     0.009    21.104     6.823
    11   6 C        2.910     0.047    26.953     8.513
    12   6 C        2.913    -0.050    29.250     8.869
    13   6 C        2.917    -0.042    29.055     8.839
    14   6 C        2.973    -0.031    28.771     8.798
    15   6 C        2.834     0.169    24.358     8.088
    16   8 O        0.857    -0.512    24.057     6.576
    17   6 C        2.975    -0.039    28.963     8.828
    18   6 C        2.922    -0.039    28.959     8.825
    19   6 C        2.915    -0.039    28.960     8.825
    20   6 C        2.919    -0.041    29.022     8.834
    21   6 C        2.915    -0.060    29.504     8.907
    22   6 C        2.879     0.127    25.217     8.232
    23   8 O        1.710    -0.253    18.188     5.758
    24   6 C        2.873     0.134    25.067     8.207
    25   6 C        2.916    -0.077    29.918     8.969
    26   6 C        2.954     0.051    26.844     8.498
    27   6 C        2.918    -0.039    28.962     8.825
    28   6 C        2.918    -0.028    28.705     8.786
    29   6 C        2.918    -0.028    28.695     8.784
    30   6 C        2.921    -0.033    28.814     8.803
    31   6 C        2.987     0.003    27.951     8.672
    32   1 H        0.925     0.053     2.284     2.363
    33   1 H        0.925     0.049     2.338     2.391
    34   1 H        0.925     0.053     2.284     2.363
    35   1 H        0.925     0.036     2.506     2.476
    36   1 H        0.925     0.050     2.318     2.381
    37   1 H        0.925     0.050     2.318     2.381
    38   1 H        0.926     0.061     2.183     2.310
    39   1 H        0.926     0.050     2.324     2.384
    40   1 H        0.926     0.049     2.338     2.391
    41   1 H        0.926     0.051     2.306     2.375
    42   1 H        0.926     0.058     2.222     2.331
    43   1 H        0.926     0.044     2.395     2.420
    44   1 H        0.926     0.034     2.536     2.490
    45   1 H        0.926     0.036     2.501     2.473
    46   1 H        0.926     0.040     2.446     2.446
    47   1 H        0.926     0.046     2.369     2.407
    48   1 H        0.926     0.065     2.145     2.290
    49   1 H        0.926     0.052     2.296     2.370
    50   1 H        0.926     0.049     2.332     2.388
    51   1 H        0.926     0.050     2.320     2.382
    52   1 H        0.926     0.062     2.179     2.309

molecular dipole:
                 x           y           z       tot (Debye)
 q only:       -6.025       2.129       0.087
   full:       -5.793       2.096       0.002      15.657

 projected vibrational frequencies (cm⁻¹)
eigval :       -0.00    -0.00    -0.00     0.00     0.00     0.00
eigval :       16.16    33.27    46.68    59.28    65.39    92.28
eigval :      117.73   130.30   134.49   153.54   167.23   179.67
eigval :      197.06   214.66   232.96   249.38   264.70   271.91
eigval :      283.17   301.13   315.66   334.01   345.64   356.48
eigval :      360.39   378.45   392.72   411.43   418.72   431.47
eigval :      455.93   459.98   490.82   493.09   495.70   508.88
eigval :      523.24   541.79   548.09   559.12   566.63   569.67
eigval :      589.81   599.83   638.33   639.45   670.16   681.50
eigval :      688.20   696.87   719.56   721.88   763.08   770.01
eigval :      777.04   794.89   809.12   811.71   819.39   846.69
eigval :      850.30   871.71   880.84   886.61   891.64   904.37
eigval :      906.37   907.51   914.78   916.90   932.12   936.27
eigval :      941.71   964.75   982.34  1007.58  1069.46  1070.78
eigval :     1073.68  1092.15  1095.07  1100.19  1111.97  1131.26
eigval :     1145.95  1157.76  1164.24  1171.64  1176.84  1182.47
eigval :     1183.15  1200.70  1210.32  1217.00  1226.02  1233.35
eigval :     1245.29  1254.56  1257.64  1264.42  1268.51  1309.78
eigval :     1322.43  1325.21  1328.87  1346.68  1393.59  1394.63
eigval :     1403.28  1406.98  1410.25  1420.89  1425.13  1430.98
eigval :     1440.58  1448.17  1457.37  1469.28  1484.72  1488.68
eigval :     1499.20  1514.58  1515.20  1539.23  1544.28  1549.46
eigval :     1560.92  1568.36  1575.84  3034.42  3035.58  3039.66
eigval :     3039.80  3051.98  3053.78  3075.38  3086.14  3086.48
eigval :     3086.69  3091.26  3092.36  3093.37  3100.15  3100.48
eigval :     3100.83  3101.26  3113.47  3120.06  3121.22  3125.05

   temp. (K)  partition function   enthalpy   heat capacity  entropy
                                   cal/mol     cal/K/mol   cal/K/mol   J/K/mol
 298.15  VIB  0.892E+09            13861.327     94.128     82.208
         ROT  0.203E+08              888.752      2.981     36.420
         INT  0.181E+17            14750.080     97.109    118.628
         TR   0.784E+28             1481.254      4.968     43.856
         TOT                       16231.3336   102.0770   162.4837   679.8319

       T/K    H(0)-H(T)+PV         H(T)/Eh          T*S/Eh         G(T)/Eh
   ------------------------------------------------------------------------
    298.15    0.258663E-01    0.425754E+00    0.772013E-01    0.348553E+00
   ------------------------------------------------------------------------

         :::::::::::::::::::::::::::::::::::::::::::::::::::::
         ::                  THERMODYNAMIC                  ::
         :::::::::::::::::::::::::::::::::::::::::::::::::::::
         :: total free energy         -81.364657293960 Eh   ::
         ::.................................................::
         :: total energy              -81.713210472729 Eh   ::
         :: zero point energy           0.399888166916 Eh   ::
         :: G(RRHO) w/o ZPVE           -0.051334988147 Eh   ::
         :: G(RRHO) contrib.            0.348553178769 Eh   ::
         :::::::::::::::::::::::::::::::::::::::::::::::::::::

           -------------------------------------------------
          | TOTAL ENERGY              -81.713210472729 Eh   |
          | TOTAL ENTHALPY            -81.287456029213 Eh   |
          | TOTAL FREE ENERGY         -81.364657293960 Eh   |
          | GRADIENT NORM               0.000063192658 Eh/α |
          | HOMO-LUMO GAP               0.889545786942 eV   |
           -------------------------------------------------

 * finished run on 2025/07/16 at 13:05:17.754
