   * xtb version 6.7.1 (edcfbbe) compiled by 'albert@albert-system' on 2024-07-22

   ID    Z sym.   atoms
    1    6 C      1-9, 11-15, 17-22, 24-31
    2    7 N      10
    3    8 O      16, 23
    4    1 H      32-52

          program call               : xtb data2507/toluene/ACRXTN/ACRXTN_toluene_S0_crest.xyz --gfn 2 --gbsa toluene --ohess vtight --parallel 40 --molden --ceasefiles --namespace data2507/toluene/ACRXTN/ACRXTN_toluene_S0_finalOpt
      * Solvation model:               GBSA
        Solvent                        toluene
        Solvent mass                       9.2140E+01 g/mol
          :  Hamiltonian                  GFN2-xTB          :
 * total energy  :   -81.8043374 Eh     change       -0.5681358E-09 Eh
 * total energy  :   -81.8044505 Eh     change       -0.1131229E-03 Eh
 * total energy  :   -81.8044874 Eh     change       -0.3689474E-04 Eh
 * total energy  :   -81.8044923 Eh     change       -0.4901726E-05 Eh
 * total energy  :   -81.8044965 Eh     change       -0.4150530E-05 Eh
 * total energy  :   -81.8044995 Eh     change       -0.3097443E-05 Eh
 * total energy  :   -81.8045017 Eh     change       -0.2174702E-05 Eh
 * total energy  :   -81.8045038 Eh     change       -0.2047638E-05 Eh
 * total energy  :   -81.8045064 Eh     change       -0.2625104E-05 Eh
 * total energy  :   -81.8045093 Eh     change       -0.2860697E-05 Eh
 * total energy  :   -81.8045126 Eh     change       -0.7867303E-06 Eh
 * total energy  :   -81.8045134 Eh     change       -0.8178930E-06 Eh
 * total energy  :   -81.8045141 Eh     change       -0.6942740E-06 Eh
 * total energy  :   -81.8045147 Eh     change       -0.5401769E-06 Eh
 * total energy  :   -81.8045150 Eh     change       -0.3839662E-06 Eh
 * total energy  :   -81.8045153 Eh     change       -0.2865991E-06 Eh
 * total energy  :   -81.8045156 Eh     change       -0.2589247E-06 Eh
 * total energy  :   -81.8045159 Eh     change       -0.2689720E-06 Eh
 * total energy  :   -81.8045159 Eh     change       -0.2789037E-08 Eh
   *** GEOMETRY OPTIMIZATION CONVERGED AFTER 22 ITERATIONS ***

 final structure:
================
52
 xtb: 6.7.1 (edcfbbe)
C           -4.94412731882043        0.84015824816397        1.93480481481599
C           -3.62094100871180        0.45615003487865        1.27178621496236
C           -2.58020674869159        0.21971557433944        2.38570187200816
C           -3.10816933986078        1.53437241148047        0.33138540726927
C           -3.60099928271845        2.82961093620465        0.27839155081901
C           -3.09149616378617        3.74827301401382       -0.62445015620474
C           -2.09790703115849        3.37599925728492       -1.51271924946990
C           -1.59804546666250        2.08700535737395       -1.48268762841203
C           -2.07826703794584        1.18097649819337       -0.54575863361764
N           -1.62065743923933       -0.15682101662766       -0.52212868006833
C           -0.30437695362019       -0.50322519570678       -0.37098657068486
C            0.08208356584345       -1.85327857213542       -0.21484667232994
C            1.39778119420685       -2.19334061082359       -0.06733996298875
C            2.41346923679616       -1.22608579309490       -0.04570076655398
C            3.81250073392823       -1.59497398889709        0.09853980306832
O            4.20329902132158       -2.76030790709926        0.17518517246905
C            4.73020786739896       -0.44654492614358        0.15052549036325
C            6.10782339632546       -0.63891282672056        0.29152907734348
C            6.96836789786093        0.43344088955615        0.34601433478573
C            6.46485430713704        1.72884597221986        0.26099705786474
C            5.11123542476386        1.94540056041045        0.12103195153225
C            4.23551881070446        0.85998016085238        0.06422541499297
O            2.91723246313444        1.14178504382728       -0.07779962197661
C            2.02580526546686        0.11880569085528       -0.13725252436876
C            0.69410941644192        0.47159490427238       -0.28935746425145
C           -2.68954163356716       -1.07985437885472       -0.45617971848833
C           -2.75230289026654       -2.16970999306616       -1.31519093625424
C           -3.83196955152240       -3.03188697309993       -1.25557695155944
C           -4.85696718913639       -2.78820739914920       -0.35859438041781
C           -4.81604641585888       -1.67296873001518        0.46194051474017
C           -3.73835111447459       -0.80100649522506        0.42583460962567
H           -5.26990671974213        0.04835781252099        2.60442541118566
H           -5.71747713502811        1.01808657673348        1.19097858402619
H           -4.81452559246143        1.73696134978736        2.53515995736165
H           -1.61026322188087       -0.05867295047620        1.98287561480465
H           -2.45799718612424        1.12664568340424        2.97416736978916
H           -2.91898420100925       -0.57937748571087        3.04179985875809
H           -4.39129166166450        3.13877616490893        0.94244511119139
H           -3.48468159649071        4.75378364043973       -0.64326844052727
H           -1.71923958111655        4.08157135270386       -2.23700945054081
H           -0.84832210670445        1.77428628336849       -2.19396379592560
H           -0.66791613706077       -2.62605909116203       -0.18623888219916
H            1.69327732664933       -3.22609128789154        0.04505780311456
H            6.46392952834693       -1.65680525302876        0.35563318343472
H            8.02971692231145        0.27195500383517        0.45478317847557
H            7.13797769101420        2.57153530081659        0.30429473911894
H            4.70217817665684        2.94125933168494        0.05261010395543
H            0.45708155790563        1.52193631586500       -0.31897692868945
H           -1.96572593033321       -2.32864333049587       -2.03761384721655
H           -3.87558678694174       -3.88345336601891       -1.91795312125083
H           -5.70175777331196       -3.45876497164931       -0.30732343210751
H           -5.63928389280374       -1.49284313210291        1.13344103492816

          :  Hamiltonian                  GFN2-xTB          :
         :: gradient norm              0.000072272856 Eh/a0 ::
         :: HOMO-LUMO gap              2.198778773111 eV    ::
         :: SCC energy               -83.189946997782 Eh    ::
         :: -> dispersion             -0.069270708507 Eh    ::
         :: -> Gsolv                  -0.037323540436 Eh    ::
         :: repulsion energy           1.385431133032 Eh    ::

    * Orbital Energies and Occupations

         #    Occupation            Energy/Eh            Energy/eV
      -------------------------------------------------------------
         1        2.0000           -0.7485556             -20.3692
       ...           ...                  ...                  ...
        63        2.0000           -0.4339904             -11.8095
        64        2.0000           -0.4303593             -11.7107
        65        2.0000           -0.4254090             -11.5760
        66        2.0000           -0.4221867             -11.4883
        67        2.0000           -0.4210227             -11.4566
        68        2.0000           -0.4205100             -11.4427
        69        2.0000           -0.4140165             -11.2660
        70        2.0000           -0.4066937             -11.0667
        71        2.0000           -0.4030018             -10.9662
        72        2.0000           -0.4022577             -10.9460
        73        2.0000           -0.3924798             -10.6799
        74        2.0000           -0.3874353             -10.5427
        75        2.0000           -0.3643729              -9.9151 (HOMO)
        76                         -0.2835693              -7.7163 (LUMO)
        77                         -0.2461021              -6.6968
        78                         -0.2387469              -6.4966
        79                         -0.2322605              -6.3201
        80                         -0.2269229              -6.1749
        81                         -0.2239265              -6.0934
        82                         -0.2211698              -6.0183
        83                         -0.2184147              -5.9434
        84                         -0.1742755              -4.7423
        85                         -0.1122873              -3.0555
        86                         -0.1020807              -2.7778
       ...                                ...                  ...
       145                          0.6899210              18.7737
      -------------------------------------------------------------
                  HL-Gap            0.0808036 Eh            2.1988 eV

     #   Z          covCN         q      C6AA      α(0)
     1   6 C        3.759    -0.110    22.652     6.785
     2   6 C        3.910     0.023    20.130     6.377
     3   6 C        3.761    -0.100    22.460     6.756
     4   6 C        2.987    -0.004    28.117     8.698
     5   6 C        2.923    -0.037    28.932     8.821
     6   6 C        2.919    -0.036    28.887     8.814
     7   6 C        2.920    -0.033    28.818     8.803
     8   6 C        2.920    -0.045    29.127     8.850
     9   6 C        2.951     0.053    26.812     8.493
    10   7 N        2.754    -0.055    22.300     7.014
    11   6 C        2.911     0.078    26.256     8.402
    12   6 C        2.919    -0.063    29.555     8.915
    13   6 C        2.921    -0.022    28.550     8.762
    14   6 C        2.973    -0.060    29.484     8.907
    15   6 C        2.831     0.218    23.407     7.928
    16   8 O        0.857    -0.477    23.277     6.469
    17   6 C        2.974    -0.045    29.102     8.849
    18   6 C        2.923    -0.020    28.512     8.757
    19   6 C        2.916    -0.035    28.868     8.811
    20   6 C        2.921    -0.022    28.545     8.761
    21   6 C        2.916    -0.052    29.285     8.874
    22   6 C        2.885     0.141    24.932     8.186
    23   8 O        1.711    -0.224    17.709     5.682
    24   6 C        2.883     0.139    24.963     8.191
    25   6 C        2.920    -0.087    30.175     9.008
    26   6 C        2.951     0.053    26.803     8.491
    27   6 C        2.920    -0.046    29.131     8.851
    28   6 C        2.920    -0.033    28.820     8.804
    29   6 C        2.919    -0.036    28.886     8.814
    30   6 C        2.923    -0.038    28.933     8.821
    31   6 C        2.987    -0.004    28.120     8.699
    32   1 H        0.925     0.046     2.370     2.407
    33   1 H        0.925     0.042     2.420     2.433
    34   1 H        0.925     0.046     2.368     2.406
    35   1 H        0.925     0.033     2.546     2.495
    36   1 H        0.925     0.043     2.408     2.426
    37   1 H        0.925     0.043     2.409     2.427
    38   1 H        0.926     0.049     2.333     2.389
    39   1 H        0.926     0.039     2.468     2.457
    40   1 H        0.926     0.038     2.472     2.459
    41   1 H        0.926     0.040     2.446     2.446
    42   1 H        0.926     0.053     2.284     2.363
    43   1 H        0.926     0.052     2.296     2.370
    44   1 H        0.926     0.054     2.268     2.355
    45   1 H        0.926     0.052     2.295     2.369
    46   1 H        0.926     0.058     2.218     2.329
    47   1 H        0.926     0.061     2.184     2.311
    48   1 H        0.926     0.059     2.206     2.323
    49   1 H        0.926     0.041     2.442     2.444
    50   1 H        0.926     0.038     2.475     2.460
    51   1 H        0.926     0.038     2.470     2.458
    52   1 H        0.926     0.049     2.333     2.388

molecular dipole:
                 x           y           z       tot (Debye)
 q only:       -2.321       1.911       0.156
   full:       -2.205       1.912       0.104       7.423

 projected vibrational frequencies (cm⁻¹)
eigval :       -0.00    -0.00     0.00     0.00     0.00     0.00
eigval :       17.29    28.62    45.81    56.18    65.50    89.91
eigval :      117.07   129.18   135.92   155.43   172.45   175.95
eigval :      182.78   206.99   228.96   260.41   269.59   271.60
eigval :      289.13   304.79   317.36   338.67   350.42   363.82
eigval :      383.09   385.29   403.76   411.34   423.44   432.26
eigval :      456.45   463.72   493.51   499.44   500.35   527.45
eigval :      553.68   556.37   563.56   574.25   587.75   596.32
eigval :      608.75   625.98   646.67   671.36   678.77   694.34
eigval :      705.30   725.88   730.64   734.35   776.91   783.47
eigval :      788.30   809.26   822.46   825.12   854.43   859.98
eigval :      880.14   887.41   890.14   906.80   914.20   919.04
eigval :      921.00   921.44   924.55   928.07   933.45   938.61
eigval :      945.06   965.88   998.91  1010.06  1072.34  1076.00
eigval :     1077.17  1096.75  1103.98  1107.64  1132.69  1136.00
eigval :     1150.52  1166.04  1168.97  1176.71  1180.55  1188.29
eigval :     1196.18  1215.30  1222.47  1228.31  1233.18  1246.38
eigval :     1256.28  1266.51  1271.73  1278.39  1290.35  1318.21
eigval :     1324.44  1337.10  1342.46  1375.49  1396.18  1413.81
eigval :     1423.20  1431.25  1436.95  1442.24  1446.57  1452.11
eigval :     1468.91  1488.38  1489.62  1492.08  1504.83  1518.99
eigval :     1529.54  1565.81  1574.86  1578.79  1583.99  1587.64
eigval :     1591.35  1597.70  1627.99  3026.84  3029.21  3032.71
eigval :     3035.12  3047.48  3052.11  3077.74  3078.26  3083.90
eigval :     3084.86  3085.31  3089.15  3090.10  3093.53  3094.35
eigval :     3098.95  3105.88  3114.86  3115.47  3119.12  3124.43

   temp. (K)  partition function   enthalpy   heat capacity  entropy
                                   cal/mol     cal/K/mol   cal/K/mol   J/K/mol
 298.15  VIB  0.881E+09            13651.846     92.323     81.191
         ROT  0.202E+08              888.752      2.981     36.408
         INT  0.178E+17            14540.599     95.304    117.599
         TR   0.784E+28             1481.254      4.968     43.856
         TOT                       16021.8525   100.2724   161.4549   675.5273

       T/K    H(0)-H(T)+PV         H(T)/Eh          T*S/Eh         G(T)/Eh
   ------------------------------------------------------------------------
    298.15    0.255324E-01    0.429158E+00    0.767124E-01    0.352446E+00
   ------------------------------------------------------------------------

         :::::::::::::::::::::::::::::::::::::::::::::::::::::
         ::                  THERMODYNAMIC                  ::
         :::::::::::::::::::::::::::::::::::::::::::::::::::::
         :: total free energy         -81.452070130471 Eh   ::
         ::.................................................::
         :: total energy              -81.804515862324 Eh   ::
         :: zero point energy           0.403625717818 Eh   ::
         :: G(RRHO) w/o ZPVE           -0.051179985965 Eh   ::
         :: G(RRHO) contrib.            0.352445731853 Eh   ::
         :::::::::::::::::::::::::::::::::::::::::::::::::::::

           -------------------------------------------------
          | TOTAL ENERGY              -81.804515862324 Eh   |
          | TOTAL ENTHALPY            -81.375357697276 Eh   |
          | TOTAL FREE ENERGY         -81.452070130471 Eh   |
          | GRADIENT NORM               0.000072194253 Eh/α |
          | HOMO-LUMO GAP               2.198777727232 eV   |
           -------------------------------------------------

 * finished run on 2025/07/16 at 13:05:14.483
