   * xtb version 6.7.1 (edcfbbe) compiled by 'albert@albert-system' on 2024-07-22

   ID    Z sym.   atoms
    1    6 C      1-9, 11-15, 17-22, 24-31
    2    7 N      10
    3    8 O      16, 23
    4    1 H      32-52

          program call               : xtb data2507/toluene/ACRXTN/ACRXTN_toluene_T1_crest.xyz --gfn 2 --uhf 2 --gbsa toluene --ohess vtight --parallel 40 --molden --ceasefiles --namespace data2507/toluene/ACRXTN/ACRXTN_toluene_T1_finalOpt
      * Solvation model:               GBSA
        Solvent                        toluene
        Solvent mass                       9.2140E+01 g/mol
          :  Hamiltonian                  GFN2-xTB          :
 * total energy  :   -81.7224069 Eh     change       -0.9782184E-09 Eh
 * total energy  :   -81.7225520 Eh     change       -0.1450644E-03 Eh
 * total energy  :   -81.7225912 Eh     change       -0.3921102E-04 Eh
 * total energy  :   -81.7225947 Eh     change       -0.3473878E-05 Eh
 * total energy  :   -81.7225956 Eh     change       -0.9025015E-06 Eh
 * total energy  :   -81.7225963 Eh     change       -0.7485416E-06 Eh
 * total energy  :   -81.7225971 Eh     change       -0.7094173E-06 Eh
 * total energy  :   -81.7225976 Eh     change       -0.5884309E-06 Eh
 * total energy  :   -81.7225980 Eh     change       -0.3835912E-06 Eh
 * total energy  :   -81.7225983 Eh     change       -0.2641458E-06 Eh
 * total energy  :   -81.7225998 Eh     change       -0.2697978E-06 Eh
 * total energy  :   -81.7226001 Eh     change       -0.2882286E-06 Eh
 * total energy  :   -81.7226005 Eh     change       -0.4023635E-06 Eh
 * total energy  :   -81.7226010 Eh     change       -0.5528017E-06 Eh
 * total energy  :   -81.7226015 Eh     change       -0.4436187E-06 Eh
 * total energy  :   -81.7226017 Eh     change       -0.2369422E-06 Eh
 * total energy  :   -81.7226018 Eh     change       -0.1163524E-06 Eh
 * total energy  :   -81.7226018 Eh     change        0.3980091E-08 Eh
 * total energy  :   -81.7226018 Eh     change       -0.4608935E-08 Eh
   *** GEOMETRY OPTIMIZATION CONVERGED AFTER 23 ITERATIONS ***

 final structure:
================
52
 xtb: 6.7.1 (edcfbbe)
C           -5.05469013965764        0.31885032860886        1.79318739644788
C           -4.46619639378380        0.14180678128326        0.37792185094931
C           -5.60381916823944        0.07998219545397       -0.66255764260559
C           -3.69701882102675       -1.15813151226603        0.33473486595216
C           -4.34837685844009       -2.35625450285572        0.59525441682255
C           -3.68222173084877       -3.56820020669249        0.57968871793193
C           -2.32048601624910       -3.60273568856048        0.30457976254497
C           -1.64674234889930       -2.43372496711162        0.04120148151508
C           -2.32005864904899       -1.19962348460764        0.04393766016613
N           -1.62067471846265       -0.04862448148560       -0.23134476395590
C           -0.22776018013307       -0.13853173917889       -0.51783824580579
C            0.21630258703915       -0.45924918256075       -1.79956097160374
C            1.56167597598458       -0.53462057374043       -2.06159165738403
C            2.52040828524611       -0.28967105736242       -1.04859411730711
C            3.92326886039037       -0.36315637650054       -1.32298659312451
O            4.38237471865246       -0.64935714858325       -2.47402648992555
C            4.78884822767561       -0.08873188961932       -0.19334145468843
C            6.18692049395223       -0.12384148170421       -0.32096938585461
C            7.00114360654013        0.14249405267120        0.75962069805463
C            6.44886067764719        0.45005295985295        1.99363618833505
C            5.06757572316203        0.49013209717911        2.14418393576572
C            4.24449041625320        0.22357695231576        1.06421769744767
O            2.89399946359454        0.28088328537504        1.28730562452839
C            2.04898498773923        0.02986960665870        0.24399340368567
C            0.69792048529028        0.10650913501860        0.50806821854035
C           -2.22004606601802        1.18874585403935       -0.23382737290575
C           -1.45467594572189        2.32547810101941       -0.54761234049313
C           -2.02263819203229        3.57739262748153       -0.54793333754923
C           -3.36952801580609        3.72491975281888       -0.23929317100753
C           -4.13148549148194        2.60924548464744        0.05646132475741
C           -3.58862550015944        1.33127831803444        0.06394312112954
H           -5.63364973672378        1.23490972924800        1.85541351730599
H           -4.25223167800453        0.36647146375413        2.52664814238508
H           -5.70354393990294       -0.51388632910202        2.04566810866668
H           -5.18951109383471       -0.05073768457306       -1.66022077713543
H           -6.26929807691238       -0.75171802271245       -0.45381386868553
H           -6.18648299312367        0.99566287373162       -0.64870324978640
H           -5.40335677919454       -2.35039817969633        0.81825743428771
H           -4.21829523203710       -4.48162266446043        0.78585602805524
H           -1.78786976658140       -4.54115464968086        0.29736714560064
H           -0.58944331896112       -2.45438552274746       -0.16910578001468
H           -0.50352255666227       -0.64224356236919       -2.58335859905847
H            1.93416551218417       -0.77786903603829       -3.04464163152989
H            6.59547004248716       -0.36509526230608       -1.29113058517991
H            8.07409293782288        0.11025282538388        0.63879521673684
H            7.08386327561148        0.65896644965142        2.84061756271532
H            4.61372879043921        0.72687612139376        3.09425414259035
H            0.36571784835104        0.35329266308858        1.50414147567252
H           -0.41156976695153        2.20538570272902       -0.79231579510249
H           -1.41947177371262        4.43884411564422       -0.78994915582721
H           -3.82211349762083        4.70441282593451       -0.23511782165862
H           -5.17656954043060        2.74427501859729        0.28533449439894

          :  Hamiltonian                  GFN2-xTB          :
         :: gradient norm              0.000036828979 Eh/a0 ::
         :: HOMO-LUMO gap              0.738479612729 eV    ::
         :: SCC energy               -83.095681008554 Eh    ::
         :: -> dispersion             -0.068373802069 Eh    ::
         :: -> Gsolv                  -0.049787229341 Eh    ::
         :: repulsion energy           1.373079160356 Eh    ::

    * Orbital Energies and Occupations

         #    Occupation            Energy/Eh            Energy/eV
      -------------------------------------------------------------
         1        2.0000           -0.7322370             -19.9252
       ...           ...                  ...                  ...
        64        2.0000           -0.4322845             -11.7631
        65        2.0000           -0.4284072             -11.6576
        66        2.0000           -0.4260818             -11.5943
        67        2.0000           -0.4221775             -11.4880
        68        2.0000           -0.4196926             -11.4204
        69        2.0000           -0.4158735             -11.3165
        70        2.0000           -0.4154602             -11.3052
        71        2.0000           -0.4062283             -11.0540
        72        2.0000           -0.4019365             -10.9372
        73        1.9998           -0.3822049             -10.4003
        74        1.7524           -0.3749944             -10.2041
        75        1.2477           -0.3728829             -10.1467
        76        1.0000           -0.2793854              -7.6025 (HOMO)
        77        0.0000           -0.2522468              -6.8640 (LUMO)
        78                         -0.2420386              -6.5862
        79                         -0.2415369              -6.5726
        80                         -0.2359694              -6.4211
        81                         -0.2280111              -6.2045
        82                         -0.2163376              -5.8868
        83                         -0.2072247              -5.6389
        84                         -0.1693959              -4.6095
        85                         -0.1170683              -3.1856
        86                         -0.1055321              -2.8717
        87                         -0.1030225              -2.8034
       ...                                ...                  ...
       145                          0.6799994              18.5037
      -------------------------------------------------------------
                  HL-Gap            0.0271386 Eh            0.7385 eV

     #   Z          covCN         q      C6AA      α(0)
     1   6 C        3.761    -0.110    22.650     6.784
     2   6 C        3.909     0.026    20.077     6.369
     3   6 C        3.761    -0.110    22.654     6.785
     4   6 C        2.978     0.006    27.890     8.663
     5   6 C        2.924    -0.030    28.745     8.792
     6   6 C        2.917    -0.024    28.592     8.768
     7   6 C        2.917    -0.023    28.587     8.768
     8   6 C        2.922    -0.041    29.021     8.834
     9   6 C        2.931     0.063    26.597     8.458
    10   7 N        2.755     0.011    21.065     6.817
    11   6 C        2.930     0.029    27.354     8.577
    12   6 C        2.912    -0.047    29.166     8.856
    13   6 C        2.921    -0.045    29.107     8.847
    14   6 C        2.974    -0.044    29.081     8.846
    15   6 C        2.835     0.168    24.382     8.092
    16   8 O        0.857    -0.512    24.058     6.576
    17   6 C        2.976    -0.037    28.915     8.820
    18   6 C        2.922    -0.039    28.980     8.828
    19   6 C        2.915    -0.039    28.975     8.827
    20   6 C        2.919    -0.042    29.040     8.837
    21   6 C        2.916    -0.061    29.522     8.910
    22   6 C        2.879     0.128    25.202     8.230
    23   8 O        1.710    -0.255    18.224     5.764
    24   6 C        2.877     0.130    25.152     8.222
    25   6 C        2.915    -0.074    29.852     8.959
    26   6 C        2.931     0.063    26.597     8.458
    27   6 C        2.922    -0.041    29.019     8.834
    28   6 C        2.917    -0.023    28.587     8.768
    29   6 C        2.917    -0.024    28.593     8.769
    30   6 C        2.924    -0.030    28.746     8.792
    31   6 C        2.978     0.006    27.890     8.663
    32   1 H        0.925     0.058     2.223     2.332
    33   1 H        0.925     0.041     2.433     2.439
    34   1 H        0.925     0.058     2.225     2.333
    35   1 H        0.925     0.041     2.432     2.439
    36   1 H        0.925     0.058     2.223     2.332
    37   1 H        0.925     0.058     2.225     2.333
    38   1 H        0.926     0.060     2.193     2.316
    39   1 H        0.926     0.054     2.272     2.357
    40   1 H        0.926     0.050     2.325     2.385
    41   1 H        0.926     0.048     2.340     2.392
    42   1 H        0.926     0.045     2.389     2.417
    43   1 H        0.926     0.039     2.468     2.457
    44   1 H        0.926     0.032     2.553     2.498
    45   1 H        0.926     0.036     2.508     2.476
    46   1 H        0.926     0.040     2.455     2.450
    47   1 H        0.926     0.045     2.386     2.415
    48   1 H        0.926     0.050     2.321     2.382
    49   1 H        0.926     0.048     2.344     2.394
    50   1 H        0.926     0.049     2.328     2.386
    51   1 H        0.926     0.054     2.272     2.357
    52   1 H        0.926     0.060     2.194     2.316

molecular dipole:
                 x           y           z       tot (Debye)
 q only:       -6.929       0.531       1.889
   full:       -6.659       0.521       1.863      17.625

 projected vibrational frequencies (cm⁻¹)
eigval :       -0.00    -0.00    -0.00     0.00     0.00     0.00
eigval :       13.41    23.58    29.73    55.29    57.05    89.19
eigval :       97.11   106.01   130.22   133.91   148.46   154.94
eigval :      196.89   214.00   220.82   232.47   241.32   251.18
eigval :      283.98   295.44   311.62   322.27   331.38   341.13
eigval :      380.23   383.40   384.88   408.43   409.72   423.71
eigval :      445.63   451.13   496.03   496.52   504.89   524.21
eigval :      531.01   541.01   545.34   552.03   554.16   582.11
eigval :      599.24   615.99   642.79   650.49   664.81   680.18
eigval :      690.39   696.42   706.35   725.19   765.02   773.05
eigval :      775.50   799.47   815.38   825.64   829.54   847.13
eigval :      849.90   873.33   874.58   879.60   883.46   908.00
eigval :      908.66   908.85   917.99   920.39   927.09   927.52
eigval :      935.15   959.16   983.97  1011.19  1069.95  1074.58
eigval :     1078.26  1093.48  1100.32  1103.25  1106.07  1134.52
eigval :     1137.04  1141.54  1164.47  1170.34  1177.87  1178.63
eigval :     1179.17  1201.59  1209.14  1214.63  1231.38  1234.90
eigval :     1236.27  1251.06  1253.48  1290.35  1299.81  1304.92
eigval :     1325.38  1329.38  1337.18  1343.92  1393.37  1395.20
eigval :     1403.54  1413.39  1421.26  1423.70  1429.14  1430.60
eigval :     1447.29  1467.06  1472.34  1476.60  1478.90  1478.96
eigval :     1487.77  1493.05  1518.08  1537.87  1544.85  1550.43
eigval :     1571.68  1577.17  1582.91  3031.23  3033.59  3054.77
eigval :     3056.61  3060.87  3064.76  3074.47  3082.28  3086.41
eigval :     3089.28  3089.95  3091.72  3096.87  3096.99  3099.01
eigval :     3099.55  3103.19  3106.09  3106.37  3112.95  3114.69

   temp. (K)  partition function   enthalpy   heat capacity  entropy
                                   cal/mol     cal/K/mol   cal/K/mol   J/K/mol
 298.15  VIB  0.604E+10            14129.723     93.636     85.034
         ROT  0.207E+08              888.752      2.981     36.459
         INT  0.125E+18            15018.476     96.617    121.493
         TR   0.784E+28             1481.254      4.968     43.856
         TOT                       16499.7296   101.5852   165.3494   691.8220

       T/K    H(0)-H(T)+PV         H(T)/Eh          T*S/Eh         G(T)/Eh
   ------------------------------------------------------------------------
    298.15    0.262940E-01    0.425855E+00    0.785628E-01    0.347292E+00
   ------------------------------------------------------------------------

         :::::::::::::::::::::::::::::::::::::::::::::::::::::
         ::                  THERMODYNAMIC                  ::
         :::::::::::::::::::::::::::::::::::::::::::::::::::::
         :: total free energy         -81.375309830374 Eh   ::
         ::.................................................::
         :: total energy              -81.722601844804 Eh   ::
         :: zero point energy           0.399560864481 Eh   ::
         :: G(RRHO) w/o ZPVE           -0.052268850051 Eh   ::
         :: G(RRHO) contrib.            0.347292014430 Eh   ::
         :::::::::::::::::::::::::::::::::::::::::::::::::::::

           -------------------------------------------------
          | TOTAL ENERGY              -81.722601844804 Eh   |
          | TOTAL ENTHALPY            -81.296746987552 Eh   |
          | TOTAL FREE ENERGY         -81.375309830374 Eh   |
          | GRADIENT NORM               0.000036761326 Eh/α |
          | HOMO-LUMO GAP               0.738478789328 eV   |
           -------------------------------------------------

 * finished run on 2025/07/16 at 13:06:55.348
