   * xtb version 6.7.1 (edcfbbe) compiled by 'albert@albert-system' on 2024-07-22

   ID    Z sym.   atoms
    1    6 C      1-9, 11-14, 16-31, 33-46, 48-54
    2    7 N      10, 15, 32, 47
    3    1 H      55-94

          program call               : xtb data2507/toluene/BDQDMAC/BDQDMAC_toluene_S0_finalOpt.xtbopt.xyz --gfn 2 --uhf 2 --gbsa toluene --ohess vtight --parallel 40 --molden --ceasefiles --namespace data2507/toluene/BDQDMAC/BDQDMAC_toluene_T1_preOpt
      * Solvation model:               GBSA
        Solvent                        toluene
        Solvent mass                       9.2140E+01 g/mol
          :  Hamiltonian                  GFN2-xTB          :
 * total energy  :  -139.2322658 Eh     change       -0.4285994E-10 Eh
 * total energy  :  -139.2352451 Eh     change       -0.2979313E-02 Eh
 * total energy  :  -139.2360244 Eh     change       -0.7792844E-03 Eh
 * total energy  :  -139.2361253 Eh     change       -0.1009168E-03 Eh
 * total energy  :  -139.2361843 Eh     change       -0.5904322E-04 Eh
 * total energy  :  -139.2362087 Eh     change       -0.2434937E-04 Eh
 * total energy  :  -139.2362392 Eh     change       -0.3056537E-04 Eh
 * total energy  :  -139.2362696 Eh     change       -0.3030863E-04 Eh
 * total energy  :  -139.2362961 Eh     change       -0.2649583E-04 Eh
 * total energy  :  -139.2363201 Eh     change       -0.2403315E-04 Eh
 * total energy  :  -139.2367453 Eh     change       -0.2619819E-06 Eh
 * total energy  :  -139.2367455 Eh     change       -0.2492887E-06 Eh
 * total energy  :  -139.2367458 Eh     change       -0.2254595E-06 Eh
 * total energy  :  -139.2367460 Eh     change       -0.2436540E-06 Eh
 * total energy  :  -139.2367463 Eh     change       -0.3076445E-06 Eh
 * total energy  :  -139.2367466 Eh     change       -0.3236918E-06 Eh
 * total energy  :  -139.2367469 Eh     change       -0.2405187E-06 Eh
 * total energy  :  -139.2367470 Eh     change       -0.1341909E-06 Eh
 * total energy  :  -139.2367470 Eh     change       -0.3471936E-07 Eh
   *** GEOMETRY OPTIMIZATION CONVERGED AFTER 62 ITERATIONS ***

 final structure:
================
94
 xtb: 6.7.1 (edcfbbe)
C            6.28341328484571        0.24853427389153       -0.41682088812769
C            5.67504121188913       -1.04792950964919        0.15214997638567
C            6.78646226327203       -1.96930635952095        0.69118085139444
C            4.94141094226255       -1.75848339044324       -0.96652272507652
C            5.64905061857504       -2.15973002782108       -2.09253239613355
C            5.03310911910204       -2.76544698088745       -3.17147395370851
C            3.66241728667238       -2.95921073136784       -3.14503251875284
C            2.93679931718810       -2.57416269086557       -2.03860855149777
C            3.56053945064423       -1.99448428728985       -0.92687694769194
N            2.81145033947343       -1.66342771933014        0.19396204552659
C            1.39816798513898       -1.69339144781265        0.12423717140495
C            0.69322454845176       -2.89826592426423        0.06549625536747
C           -0.67943297966052       -2.90169661688739       -0.06073056277266
C           -1.39026332566039       -1.70036743527960       -0.12103962654754
N           -2.80368854470987       -1.67746556114606       -0.19046255143024
C           -3.55083944781021       -2.01044617465808        0.93109137042314
C           -2.92399919997143       -2.58553769980254        2.04345790475084
C           -3.64743541539652       -2.97241136961918        3.15067106512518
C           -5.01899937485963       -2.78497589393327        3.17732793826890
C           -5.63815619183925       -2.18377852128591        2.09769955371728
C           -4.93280306849593       -1.78090958405031        0.97083670152225
C           -5.67021709979419       -1.07574009181717       -0.14876775965549
C           -6.77723614408443       -2.00348750444522       -0.68596572646596
C           -6.28506813574790        0.21853114851760        0.41822537658093
C           -4.74577934683048       -0.71877768728243       -1.29308362695980
C           -5.25690853288360       -0.06975309431137       -2.40944265910712
C           -4.46935491686831        0.24119834506833       -3.50244245742386
C           -3.13455926780097       -0.12996763186220       -3.50420258182756
C           -2.60266489874172       -0.77298253032171       -2.40852766304897
C           -3.38391185715923       -1.04565375699098       -1.27765225767833
C           -0.71334057265354       -0.46792587123945       -0.06224982753539
N           -1.36302931158552        0.69451797829552       -0.08922800842421
C           -0.70655629391909        1.85718969150415       -0.01320250072894
C           -1.53522537576433        3.06031469465629        0.06001332738772
C           -2.70098716709210        3.12394261886126       -0.70464096187731
C           -3.52024637125402        4.23433585108037       -0.64042810222482
C           -3.19594520517962        5.29192625969023        0.19469067675875
C           -2.05284191627867        5.22523854821591        0.97664888518039
C           -1.22842674921229        4.11817980477609        0.91590883310867
C            0.69709483750913        1.86063917202541        0.01175711179491
C            1.51997015132254        3.06764955086252       -0.06284760663876
C            1.20806690941074        4.12315955091370       -0.91981032042906
C            2.02736313151647        5.23393341335174       -0.98196351798084
C            3.17035271656743        5.30674920308979       -0.20038619162008
C            3.49968377473350        4.25162547831915        0.63588296656968
C            2.68555622028151        3.13755159656215        0.70153731945509
N            1.35922693467549        0.70126456938204        0.08914787127987
C            0.71521281423188       -0.46436148452939        0.06367681136333
C            3.38827873743508       -1.02707434562129        1.28032243367148
C            2.60540654482590       -0.75624038172722        2.41051386537615
C            3.13389109756288       -0.10887229510192        3.50527692275356
C            4.46691185674936        0.26859388157850        3.50334903426827
C            5.25627240225135       -0.04044417855663        2.41111057595885
C            4.74857207513836       -0.69368113841143        1.29564953542670
H            5.49272830151878        0.88683514550049       -0.80755757057183
H            6.97721006849332        0.02838922498911       -1.22305414067829
H            6.81782628201285        0.79572609749979        0.35424476612365
H            7.48433475475801       -2.23550355001159       -0.09709049101806
H            6.34932931634168       -2.88395685701217        1.08797711954957
H            7.34130534503527       -1.48061222586918        1.48661641225990
H            6.71376444220182       -1.99060821261522       -2.13658798339117
H            5.61410185183042       -3.06795473291209       -4.02934391221032
H            3.15480720112857       -3.40745169714899       -3.98630825530928
H            1.86770427187172       -2.71504391354198       -2.03562574146606
H            1.23981738746977       -3.82742978600142        0.12298330671543
H           -1.22153046697605       -3.83357549344892       -0.11693444774766
H           -1.85425864191822       -2.72141992603580        2.04032211525325
H           -3.13744059896447       -3.41706623555311        3.99240336070041
H           -5.59827031119226       -3.08890459465663        4.03586047241108
H           -6.70363836090568       -2.01960815217690        2.14188914083111
H           -7.47389262751904       -2.27129447940752        0.10283654197486
H           -7.33432551456564       -1.51907074091259       -1.48244098140630
H           -6.33585319340095       -2.91691371196442       -1.08085047525672
H           -6.82249536738347        0.76166822364213       -0.35361203520819
H           -5.49766716280988        0.86160605393549        0.80773652224326
H           -6.97753519430158       -0.00386254284360        1.22498604818779
H           -6.30031393949000        0.20450622263522       -2.43235602551041
H           -4.89562033083656        0.75532854497317       -4.35049341651831
H           -2.50799646881869        0.07871529218255       -4.35898479516836
H           -1.56640039270346       -1.07520380763675       -2.42200579695119
H           -2.94559800623520        2.29195407958128       -1.34885502304735
H           -4.41575401122774        4.27403001420001       -1.24362026169979
H           -3.83492105961534        6.16130822953359        0.24343628460211
H           -1.80508380948941        6.03878186141942        1.64307340144692
H           -0.34821492824637        4.06395333865913        1.54042887437181
H            0.32798229692496        4.06419902671436       -1.54408829600739
H            1.77572318741793        6.04558304882314       -1.64923861793361
H            3.80532495682145        6.17899624225285       -0.25027180518540
H            4.39510033236739        4.29612545012189        1.23887875317962
H            2.93412208494212        2.30743526551461        1.34666416350078
H            1.57054213906722       -1.06320054468297        2.42421987529521
H            2.50605004411141        0.09827998922104        4.35949280428008
H            4.89047449618252        0.78611360717602        4.35069167450377
H            6.29836703307538        0.23874599738298        2.43387901123951

          :  Hamiltonian                  GFN2-xTB          :
         :: gradient norm              0.000033561060 Eh/a0 ::
         :: HOMO-LUMO gap              0.901594096336 eV    ::
         :: SCC energy              -141.750221042456 Eh    ::
         :: -> dispersion             -0.142391279998 Eh    ::
         :: -> Gsolv                  -0.054686770855 Eh    ::
         :: repulsion energy           2.513473921127 Eh    ::

    * Orbital Energies and Occupations

         #    Occupation            Energy/Eh            Energy/eV
      -------------------------------------------------------------
         1        2.0000           -0.6730260             -18.3140
       ...           ...                  ...                  ...
       119        2.0000           -0.4076698             -11.0933
       120        2.0000           -0.4059153             -11.0455
       121        2.0000           -0.4045208             -11.0076
       122        2.0000           -0.4043691             -11.0034
       123        2.0000           -0.4034905             -10.9795
       124        2.0000           -0.3989695             -10.8565
       125        2.0000           -0.3988371             -10.8529
       126        2.0000           -0.3890217             -10.5858
       127        2.0000           -0.3856814             -10.4949
       128        1.9999           -0.3589640              -9.7679
       129        1.9975           -0.3558395              -9.6829
       130        1.0026           -0.3445017              -9.3744
       131        1.0000           -0.2915930              -7.9346 (HOMO)
       132                         -0.2584599              -7.0331 (LUMO)
       133                         -0.2318049              -6.3077
       134                         -0.2316336              -6.3031
       135                         -0.2264526              -6.1621
       136                         -0.2258673              -6.1462
       137                         -0.2256341              -6.1398
       138                         -0.2250943              -6.1251
       139                         -0.2249207              -6.1204
       140                         -0.2228888              -6.0651
       141                         -0.2203030              -5.9948
       142                         -0.2139287              -5.8213
       ...                                ...                  ...
       256                          0.6952040              18.9175
      -------------------------------------------------------------
                  HL-Gap            0.0331331 Eh            0.9016 eV

     #   Z          covCN         q      C6AA      α(0)
     1   6 C        3.761    -0.105    22.544     6.768
     2   6 C        3.909     0.022    20.144     6.379
     3   6 C        3.761    -0.107    22.589     6.775
     4   6 C        2.979    -0.008    28.205     8.712
     5   6 C        2.927    -0.036    28.906     8.817
     6   6 C        2.917    -0.040    28.995     8.830
     7   6 C        2.919    -0.033    28.823     8.804
     8   6 C        2.924    -0.055    29.358     8.886
     9   6 C        2.927     0.061    26.626     8.462
    10   7 N        2.753    -0.043    22.071     6.977
    11   6 C        2.928     0.024    27.479     8.597
    12   6 C        2.914    -0.060    29.498     8.906
    13   6 C        2.914    -0.060    29.498     8.906
    14   6 C        2.928     0.024    27.479     8.597
    15   7 N        2.753    -0.043    22.071     6.977
    16   6 C        2.927     0.061    26.626     8.462
    17   6 C        2.924    -0.055    29.358     8.886
    18   6 C        2.919    -0.033    28.823     8.804
    19   6 C        2.917    -0.040    28.995     8.830
    20   6 C        2.927    -0.036    28.906     8.817
    21   6 C        2.979    -0.008    28.205     8.712
    22   6 C        3.909     0.022    20.144     6.379
    23   6 C        3.761    -0.107    22.589     6.775
    24   6 C        3.761    -0.105    22.544     6.768
    25   6 C        2.979    -0.006    28.167     8.706
    26   6 C        2.927    -0.036    28.902     8.816
    27   6 C        2.917    -0.039    28.969     8.826
    28   6 C        2.918    -0.033    28.831     8.805
    29   6 C        2.924    -0.045    29.126     8.850
    30   6 C        2.933     0.070    26.444     8.434
    31   6 C        2.942     0.087    26.055     8.372
    32   7 N        1.853    -0.272    27.924     7.832
    33   6 C        2.933     0.074    26.348     8.418
    34   6 C        2.980     0.004    27.932     8.669
    35   6 C        2.926    -0.030    28.748     8.793
    36   6 C        2.918    -0.030    28.758     8.794
    37   6 C        2.919    -0.033    28.813     8.802
    38   6 C        2.918    -0.030    28.756     8.794
    39   6 C        2.922    -0.035    28.859     8.810
    40   6 C        2.933     0.074    26.348     8.418
    41   6 C        2.980     0.004    27.932     8.669
    42   6 C        2.922    -0.035    28.859     8.810
    43   6 C        2.918    -0.030    28.756     8.794
    44   6 C        2.919    -0.033    28.813     8.802
    45   6 C        2.918    -0.030    28.758     8.794
    46   6 C        2.926    -0.030    28.748     8.793
    47   7 N        1.853    -0.272    27.924     7.832
    48   6 C        2.942     0.087    26.055     8.372
    49   6 C        2.933     0.070    26.444     8.434
    50   6 C        2.924    -0.045    29.126     8.850
    51   6 C        2.918    -0.033    28.831     8.805
    52   6 C        2.917    -0.039    28.969     8.826
    53   6 C        2.927    -0.036    28.902     8.816
    54   6 C        2.979    -0.006    28.167     8.706
    55   1 H        0.925     0.032     2.556     2.500
    56   1 H        0.925     0.047     2.355     2.400
    57   1 H        0.925     0.048     2.350     2.397
    58   1 H        0.925     0.048     2.343     2.394
    59   1 H        0.925     0.034     2.534     2.490
    60   1 H        0.925     0.048     2.348     2.396
    61   1 H        0.926     0.043     2.414     2.430
    62   1 H        0.926     0.036     2.503     2.474
    63   1 H        0.926     0.034     2.531     2.488
    64   1 H        0.926     0.029     2.594     2.518
    65   1 H        0.926     0.041     2.440     2.443
    66   1 H        0.926     0.041     2.440     2.443
    67   1 H        0.926     0.029     2.594     2.518
    68   1 H        0.926     0.034     2.531     2.488
    69   1 H        0.926     0.036     2.503     2.474
    70   1 H        0.926     0.043     2.414     2.430
    71   1 H        0.925     0.048     2.343     2.394
    72   1 H        0.925     0.048     2.348     2.396
    73   1 H        0.925     0.034     2.534     2.490
    74   1 H        0.925     0.048     2.350     2.397
    75   1 H        0.925     0.032     2.556     2.500
    76   1 H        0.925     0.047     2.355     2.400
    77   1 H        0.926     0.043     2.406     2.426
    78   1 H        0.926     0.036     2.498     2.472
    79   1 H        0.926     0.031     2.570     2.507
    80   1 H        0.926     0.021     2.716     2.577
    81   1 H        0.926     0.034     2.531     2.488
    82   1 H        0.926     0.037     2.493     2.469
    83   1 H        0.926     0.037     2.496     2.470
    84   1 H        0.926     0.034     2.529     2.487
    85   1 H        0.926     0.023     2.694     2.567
    86   1 H        0.926     0.023     2.694     2.567
    87   1 H        0.926     0.034     2.530     2.487
    88   1 H        0.926     0.037     2.496     2.470
    89   1 H        0.926     0.037     2.493     2.469
    90   1 H        0.926     0.034     2.531     2.488
    91   1 H        0.926     0.021     2.716     2.577
    92   1 H        0.926     0.031     2.570     2.507
    93   1 H        0.926     0.036     2.498     2.472
    94   1 H        0.926     0.043     2.406     2.426

molecular dipole:
                 x           y           z       tot (Debye)
 q only:        0.001      -0.409       0.001
   full:        0.001      -0.388       0.000       0.987

 projected vibrational frequencies (cm⁻¹)
eigval :       -0.00    -0.00    -0.00    -0.00     0.00     0.00
eigval :       13.66    15.08    18.01    20.16    21.32    21.64
eigval :       36.77    40.81    50.30    52.90    64.43    67.54
eigval :       79.07    83.08    97.14    98.16   101.59   104.95
eigval :      116.07   148.51   150.68   151.90   152.55   158.95
eigval :      169.44   195.59   208.84   210.01   212.32   220.49
eigval :      224.91   234.07   235.36   237.64   269.78   271.98
eigval :      288.28   294.11   305.63   306.12   329.81   330.32
eigval :      342.02   342.62   348.59   351.06   374.35   376.80
eigval :      379.42   380.59   381.23   388.43   389.47   409.89
eigval :      415.88   419.28   448.45   454.04   457.05   462.34
eigval :      510.28   510.91   511.43   512.44   513.07   532.20
eigval :      533.84   536.62   541.95   546.94   547.44   556.55
eigval :      565.58   583.28   584.88   585.95   586.83   598.20
eigval :      600.33   611.77   627.52   640.34   651.30   661.40
eigval :      667.16   670.67   674.73   687.36   688.37   692.58
eigval :      700.93   701.15   705.65   719.69   740.13   760.78
eigval :      761.12   776.22   777.13   778.10   778.38   816.18
eigval :      825.60   826.77   842.60   846.69   868.72   873.05
eigval :      875.68   875.97   876.10   878.34   899.04   899.65
eigval :      902.56   909.33   910.49   913.49   913.91   914.35
eigval :      914.83   919.17   922.48   922.54   922.68   923.41
eigval :      929.77   929.84   930.18   932.22   938.07   938.41
eigval :      958.93   959.22   972.18   998.39  1014.11  1014.28
eigval :     1037.09  1046.51  1075.89  1075.99  1080.00  1081.55
eigval :     1097.12  1097.79  1110.12  1110.51  1115.60  1115.75
eigval :     1118.59  1120.23  1132.53  1137.97  1138.13  1153.97
eigval :     1154.11  1169.52  1173.30  1179.19  1179.63  1181.86
eigval :     1182.47  1183.40  1184.62  1192.15  1194.37  1197.71
eigval :     1203.48  1231.86  1233.04  1239.90  1242.91  1244.12
eigval :     1250.42  1253.93  1259.39  1263.17  1280.33  1282.94
eigval :     1287.19  1288.17  1293.81  1293.91  1310.32  1311.97
eigval :     1316.65  1318.38  1324.24  1326.99  1327.70  1333.89
eigval :     1333.91  1335.54  1343.13  1387.82  1398.25  1398.51
eigval :     1404.97  1416.69  1417.32  1425.83  1426.40  1426.62
eigval :     1429.39  1431.32  1431.50  1445.75  1462.15  1463.02
eigval :     1471.72  1474.32  1480.17  1482.68  1484.83  1485.27
eigval :     1487.17  1487.32  1493.02  1495.23  1495.83  1501.54
eigval :     1501.70  1523.84  1562.58  1562.59  1571.10  1571.14
eigval :     1576.00  1577.11  1583.30  1583.38  1588.65  1589.01
eigval :     1593.27  1593.56  3025.02  3025.21  3027.22  3027.32
eigval :     3043.53  3043.68  3046.33  3046.35  3051.21  3051.37
eigval :     3055.88  3055.94  3069.13  3069.81  3071.70  3071.96
eigval :     3074.32  3074.36  3078.32  3078.35  3078.41  3078.85
eigval :     3083.78  3083.91  3084.65  3085.33  3085.54  3085.93
eigval :     3086.03  3090.47  3090.57  3091.55  3091.73  3096.34
eigval :     3096.60  3096.87  3096.96  3098.23  3107.22  3107.65

   temp. (K)  partition function   enthalpy   heat capacity  entropy
                                   cal/mol     cal/K/mol   cal/K/mol   J/K/mol
 298.15  VIB  0.185E+21            26647.665    168.788    164.417
         ROT  0.410E+08              888.752      2.981     37.814
         INT  0.757E+28            27536.417    171.769    202.231
         TR   0.178E+29             1481.254      4.968     45.484
         TOT                       29017.6714   176.7370   247.7155  1036.4418

       T/K    H(0)-H(T)+PV         H(T)/Eh          T*S/Eh         G(T)/Eh
   ------------------------------------------------------------------------
    298.15    0.462426E-01    0.788940E+00    0.117698E+00    0.671242E+00
   ------------------------------------------------------------------------

         :::::::::::::::::::::::::::::::::::::::::::::::::::::
         ::                  THERMODYNAMIC                  ::
         :::::::::::::::::::::::::::::::::::::::::::::::::::::
         :: total free energy        -138.565504792638 Eh   ::
         ::.................................................::
         :: total energy             -139.236747121170 Eh   ::
         :: zero point energy           0.742697371112 Eh   ::
         :: G(RRHO) w/o ZPVE           -0.071455042580 Eh   ::
         :: G(RRHO) contrib.            0.671242328533 Eh   ::
         :::::::::::::::::::::::::::::::::::::::::::::::::::::

           -------------------------------------------------
          | TOTAL ENERGY             -139.236747121170 Eh   |
          | TOTAL ENTHALPY           -138.447807147185 Eh   |
          | TOTAL FREE ENERGY        -138.565504792638 Eh   |
          | GRADIENT NORM               0.000031897434 Eh/α |
          | HOMO-LUMO GAP               0.901596996878 eV   |
           -------------------------------------------------

 * finished run on 2025/07/21 at 04:35:40.560
