   * xtb version 6.7.1 (edcfbbe) compiled by 'albert@albert-system' on 2024-07-22

   ID    Z sym.   atoms
    1    6 C      1-9, 11-14, 16-31, 33-46, 48-54
    2    7 N      10, 15, 32, 47
    3    1 H      55-94

          program call               : xtb data2507/toluene/BDQDMAC/BDQDMAC_toluene_S0_crest.xyz --gfn 2 --gbsa toluene --ohess vtight --parallel 40 --molden --ceasefiles --namespace data2507/toluene/BDQDMAC/BDQDMAC_toluene_S0_finalOpt
      * Solvation model:               GBSA
        Solvent                        toluene
        Solvent mass                       9.2140E+01 g/mol
          :  Hamiltonian                  GFN2-xTB          :
 * total energy  :  -139.2854107 Eh     change       -0.2579696E-08 Eh
 * total energy  :  -139.2854822 Eh     change       -0.7153890E-04 Eh
 * total energy  :  -139.2855306 Eh     change       -0.4834955E-04 Eh
 * total energy  :  -139.2855689 Eh     change       -0.3835410E-04 Eh
 * total energy  :  -139.2856046 Eh     change       -0.3571896E-04 Eh
 * total energy  :  -139.2856648 Eh     change       -0.6014768E-04 Eh
 * total energy  :  -139.2857221 Eh     change       -0.5734117E-04 Eh
 * total energy  :  -139.2857509 Eh     change       -0.2881039E-04 Eh
 * total energy  :  -139.2858079 Eh     change       -0.5696343E-04 Eh
 * total energy  :  -139.2858462 Eh     change       -0.3827582E-04 Eh
 * total energy  :  -139.2864782 Eh     change       -0.9559766E-06 Eh
 * total energy  :  -139.2864791 Eh     change       -0.8943809E-06 Eh
 * total energy  :  -139.2864799 Eh     change       -0.8368046E-06 Eh
 * total energy  :  -139.2864807 Eh     change       -0.7897279E-06 Eh
 * total energy  :  -139.2864815 Eh     change       -0.7595344E-06 Eh
 * total energy  :  -139.2864822 Eh     change       -0.7451974E-06 Eh
 * total energy  :  -139.2864830 Eh     change       -0.7550373E-06 Eh
 * total energy  :  -139.2864838 Eh     change       -0.7850041E-06 Eh
 * total energy  :  -139.2864838 Eh     change       -0.6487284E-08 Eh
   *** GEOMETRY OPTIMIZATION CONVERGED AFTER 94 ITERATIONS ***

 final structure:
================
94
 xtb: 6.7.1 (edcfbbe)
C            6.15165189006066        0.38761195605316       -0.39108200484321
C            5.65065224078739       -0.94554907946818        0.19566149939469
C            6.83135248006657       -1.76706440971661        0.74678685908060
C            4.97469495405016       -1.72797735868855       -0.91471949272871
C            5.72216471984267       -2.11179860183151       -2.02091141426989
C            5.16162024861468       -2.77593796916789       -3.09577040259488
C            3.80593956447807       -3.04871029476354       -3.08441910907849
C            3.04101196988044       -2.68062945300432       -1.99700930956534
C            3.61032033958975       -2.03863315221599       -0.89365056473891
N            2.82256231767409       -1.70584716085064        0.20476643239754
C            1.41532396378962       -1.74701585267811        0.10181836809615
C            0.70515430515138       -2.92442504807052        0.06498253627700
C           -0.69091949419803       -2.92799315902496       -0.05990740187288
C           -1.40692197110285       -1.75417312900635       -0.09814000945262
N           -2.81434850163669       -1.72005264894124       -0.20091256130725
C           -3.60029317340398       -2.05537065534421        0.89805672604172
C           -3.02778777696363       -2.69376139233773        2.00185379041022
C           -3.79072237370980       -3.06417100375299        3.08987436930797
C           -5.14759320292567       -2.79739637858976        3.10141092148610
C           -5.71142457377489       -2.13681353577822        2.02608320499317
C           -4.96603458419311       -1.75084254166084        0.91923744557216
C           -5.64590698914871       -0.97279549528209       -0.19181667392971
C           -6.82289620574429       -1.80049491165279       -0.74163101001734
C           -6.15281661354331        0.35873973992512        0.39353027983560
C           -4.69452526249886       -0.67318334811188       -1.33298356777175
C           -5.15991937993460       -0.00168353344388       -2.45647574458768
C           -4.34788315567802        0.26292684490590       -3.54365273200683
C           -3.03700674326934       -0.18031802822393       -3.53123092833860
C           -2.55073018416539       -0.84561444146916       -2.42572258279880
C           -3.35418822979887       -1.06570973969614       -1.30239687371616
C           -0.70677501434725       -0.52208089960288       -0.02457076225692
N           -1.38303252806628        0.63592784634572        0.05131922550155
C           -0.71734714514374        1.76620559317548        0.07828354624800
C           -1.51152875324864        2.97898852068542        0.29765211116571
C           -2.76872355528919        3.07957147648900       -0.29620875532114
C           -3.54522647208670        4.20492270485724       -0.09455453440576
C           -3.08339044111900        5.23234991814469        0.71289878569331
C           -1.84501737367956        5.12638906368944        1.32641508385001
C           -1.05947146461665        4.00732546955051        1.12236249798413
C            0.70817321144083        1.76964855838852       -0.07987613643275
C            1.49616238238039        2.98610119620302       -0.30129572141541
C            1.03892972729588        4.01055288045014       -1.12799263500017
C            1.81872804210788        5.13326811859168       -1.33401846985615
C            3.05641842586314        5.24677322624512       -0.72047471964681
C            3.52340935573412        4.22327461701048        0.08900118837232
C            2.75269173554802        3.09429970449520        0.29262300058136
N            1.37954054305380        0.64277616358228       -0.05110814574473
C            0.70909202234858       -0.51850485203455        0.02651904568429
C            3.35904162003080       -1.04783808132764        1.30569569775068
C            2.55426706822232       -0.83026879247804        2.42857455075037
C            3.03717058850466       -0.16160991207971        3.53353579831246
C            4.34595023072389        0.28779458293419        3.54580449985901
C            5.15948772178185        0.02582137685691        2.45910592963512
C            4.69753670620269       -0.64904766180899        1.33621077349962
H            5.31240050772180        0.94902934418366       -0.79802745973453
H            6.86788725879291        0.21390320150117       -1.18943944707493
H            6.63134594836374        0.99045328958457        0.37503761945694
H            7.54644521817312       -1.99598054710801       -0.03785893669639
H            6.46683542226453       -2.70411824949449        1.16440040484979
H            7.35130884704755       -1.22210008625704        1.52926612262826
H            6.77546066885546       -1.87917568023353       -2.05393556564634
H            5.77378002628107       -3.06324054531760       -3.93722465557187
H            3.33781193077059       -3.54649295505702       -3.92105956765779
H            1.98170894379978       -2.88502728766231       -2.01080612961800
H            1.23209845892584       -3.86546122635502        0.12297012732441
H           -1.21319741558665       -3.87170238746519       -0.11677357779349
H           -1.96757874551763       -2.89340319393179        2.01553344793135
H           -3.32011362711294       -3.55904161592614        3.92685267398973
H           -5.75818767770293       -3.08650124956072        3.94338623869045
H           -6.76573638500500       -1.90885916164699        2.05921394996855
H           -7.53660739255120       -2.03195761340804        0.04352442493444
H           -7.34572138233292       -1.25889570423393       -1.52453928698940
H           -6.45405512182266       -2.73627081896297       -1.15832262117766
H           -6.63572849240493        0.95837606070655       -0.37308323426846
H           -5.31594292265632        0.92458431143859        0.79926447475876
H           -6.86779251106285        0.18270879683027        1.19250573088281
H           -6.18657374809955        0.32992733324704       -2.48838596258752
H           -4.73851191311310        0.79531563832238       -4.39774670043514
H           -2.39176791376015       -0.01349063845750       -4.38169835178086
H           -1.53046609410783       -1.20228322057351       -2.43039476323267
H           -3.11613430620059        2.26777110745545       -0.91816118302115
H           -4.51397129295466        4.27870291274843       -0.56610271026157
H           -3.68998579899993        6.11182517557946        0.86997954662071
H           -1.48930238581032        5.91809722872220        1.96906144393148
H           -0.10194364458517        3.92015632447033        1.61524637623218
H            0.08194923770043        3.91746593865316       -1.62086248016401
H            1.45906343279182        5.92194332739010       -1.97820033366290
H            3.65850114841527        6.12906452888799       -0.87911796548560
H            4.49167252595927        4.30299253241366        0.56057603833254
H            3.10414192481256        2.28546365664736        0.91616952121740
H            1.53572322144100       -1.19181024078290        2.43342261049694
H            2.39094566624567        0.00305339220249        4.38367678824053
H            4.73388361422556        0.82290838682876        4.39942594424074
H            6.18452814875728        0.36239806244158        2.49089070184064

          :  Hamiltonian                  GFN2-xTB          :
         :: gradient norm              0.000063145922 Eh/a0 ::
         :: HOMO-LUMO gap              1.165924967095 eV    ::
         :: SCC energy              -141.805143516834 Eh    ::
         :: -> dispersion             -0.142546010500 Eh    ::
         :: -> Gsolv                  -0.053540493495 Eh    ::
         :: repulsion energy           2.518659739059 Eh    ::

    * Orbital Energies and Occupations

         #    Occupation            Energy/Eh            Energy/eV
      -------------------------------------------------------------
         1        2.0000           -0.6878787             -18.7181
       ...           ...                  ...                  ...
       118        2.0000           -0.4093654             -11.1394
       119        2.0000           -0.4087200             -11.1218
       120        2.0000           -0.4053986             -11.0315
       121        2.0000           -0.4048173             -11.0156
       122        2.0000           -0.4024797             -10.9520
       123        2.0000           -0.3999103             -10.8821
       124        2.0000           -0.3997621             -10.8781
       125        2.0000           -0.3963802             -10.7861
       126        2.0000           -0.3942741             -10.7287
       127        2.0000           -0.3941847             -10.7263
       128        2.0000           -0.3662385              -9.9659
       129        2.0000           -0.3518184              -9.5735
       130        2.0000           -0.3460670              -9.4170 (HOMO)
       131                         -0.3032201              -8.2510 (LUMO)
       132                         -0.2725825              -7.4173
       133                         -0.2356066              -6.4112
       134                         -0.2341567              -6.3717
       135                         -0.2284317              -6.2159
       136                         -0.2275301              -6.1914
       137                         -0.2259881              -6.1494
       138                         -0.2258962              -6.1469
       139                         -0.2214493              -6.0259
       140                         -0.2213704              -6.0238
       141                         -0.2206163              -6.0033
       ...                                ...                  ...
       256                          0.6864273              18.6786
      -------------------------------------------------------------
                  HL-Gap            0.0428470 Eh            1.1659 eV

     #   Z          covCN         q      C6AA      α(0)
     1   6 C        3.761    -0.104    22.533     6.767
     2   6 C        3.909     0.021    20.162     6.382
     3   6 C        3.760    -0.106    22.573     6.773
     4   6 C        2.979    -0.012    28.302     8.726
     5   6 C        2.928    -0.038    28.936     8.822
     6   6 C        2.917    -0.045    29.129     8.850
     7   6 C        2.920    -0.035    28.877     8.812
     8   6 C        2.924    -0.061    29.509     8.908
     9   6 C        2.925     0.061    26.640     8.464
    10   7 N        2.753    -0.067    22.535     7.050
    11   6 C        2.927     0.055    26.761     8.484
    12   6 C        2.917    -0.051    29.278     8.873
    13   6 C        2.917    -0.051    29.278     8.873
    14   6 C        2.927     0.055    26.761     8.484
    15   7 N        2.753    -0.067    22.535     7.050
    16   6 C        2.925     0.061    26.640     8.464
    17   6 C        2.924    -0.061    29.509     8.908
    18   6 C        2.920    -0.035    28.877     8.812
    19   6 C        2.917    -0.045    29.129     8.850
    20   6 C        2.928    -0.038    28.936     8.822
    21   6 C        2.979    -0.012    28.302     8.726
    22   6 C        3.909     0.021    20.162     6.382
    23   6 C        3.760    -0.106    22.572     6.773
    24   6 C        3.761    -0.104    22.533     6.767
    25   6 C        2.980    -0.011    28.281     8.723
    26   6 C        2.928    -0.038    28.943     8.823
    27   6 C        2.917    -0.046    29.133     8.851
    28   6 C        2.919    -0.036    28.905     8.816
    29   6 C        2.925    -0.054    29.344     8.884
    30   6 C        2.933     0.067    26.493     8.441
    31   6 C        2.965     0.080    26.213     8.398
    32   7 N        1.853    -0.254    27.471     7.768
    33   6 C        2.949     0.092    25.965     8.358
    34   6 C        2.983     0.002    27.974     8.676
    35   6 C        2.925    -0.025    28.633     8.775
    36   6 C        2.918    -0.027    28.675     8.781
    37   6 C        2.920    -0.026    28.655     8.778
    38   6 C        2.919    -0.028    28.692     8.784
    39   6 C        2.922    -0.030    28.753     8.793
    40   6 C        2.949     0.092    25.965     8.358
    41   6 C        2.983     0.002    27.974     8.676
    42   6 C        2.922    -0.030    28.752     8.793
    43   6 C        2.919    -0.028    28.692     8.784
    44   6 C        2.920    -0.026    28.655     8.778
    45   6 C        2.918    -0.027    28.675     8.781
    46   6 C        2.925    -0.025    28.633     8.775
    47   7 N        1.853    -0.254    27.471     7.768
    48   6 C        2.965     0.080    26.213     8.398
    49   6 C        2.933     0.067    26.493     8.441
    50   6 C        2.925    -0.054    29.344     8.884
    51   6 C        2.919    -0.036    28.904     8.816
    52   6 C        2.917    -0.046    29.133     8.851
    53   6 C        2.928    -0.038    28.943     8.823
    54   6 C        2.980    -0.011    28.281     8.723
    55   1 H        0.925     0.032     2.560     2.502
    56   1 H        0.925     0.043     2.403     2.424
    57   1 H        0.925     0.044     2.392     2.419
    58   1 H        0.925     0.045     2.389     2.417
    59   1 H        0.925     0.031     2.572     2.508
    60   1 H        0.925     0.044     2.390     2.417
    61   1 H        0.926     0.037     2.483     2.464
    62   1 H        0.926     0.030     2.589     2.516
    63   1 H        0.926     0.028     2.609     2.526
    64   1 H        0.926     0.020     2.735     2.586
    65   1 H        0.926     0.057     2.237     2.339
    66   1 H        0.926     0.057     2.237     2.339
    67   1 H        0.926     0.020     2.735     2.586
    68   1 H        0.926     0.028     2.609     2.526
    69   1 H        0.926     0.030     2.589     2.516
    70   1 H        0.926     0.037     2.482     2.464
    71   1 H        0.925     0.045     2.389     2.417
    72   1 H        0.925     0.044     2.390     2.417
    73   1 H        0.925     0.031     2.572     2.508
    74   1 H        0.925     0.044     2.392     2.419
    75   1 H        0.925     0.032     2.560     2.502
    76   1 H        0.925     0.043     2.403     2.424
    77   1 H        0.926     0.038     2.475     2.460
    78   1 H        0.926     0.030     2.586     2.515
    79   1 H        0.926     0.025     2.660     2.551
    80   1 H        0.926     0.009     2.913     2.669
    81   1 H        0.926     0.043     2.415     2.430
    82   1 H        0.926     0.045     2.388     2.417
    83   1 H        0.926     0.045     2.383     2.414
    84   1 H        0.926     0.042     2.420     2.433
    85   1 H        0.926     0.028     2.608     2.525
    86   1 H        0.926     0.028     2.608     2.525
    87   1 H        0.926     0.042     2.420     2.433
    88   1 H        0.926     0.045     2.383     2.414
    89   1 H        0.926     0.045     2.388     2.417
    90   1 H        0.926     0.043     2.415     2.430
    91   1 H        0.926     0.009     2.913     2.669
    92   1 H        0.926     0.025     2.660     2.550
    93   1 H        0.926     0.030     2.586     2.515
    94   1 H        0.926     0.038     2.475     2.460

molecular dipole:
                 x           y           z       tot (Debye)
 q only:       -0.003       1.070      -0.001
   full:       -0.003       0.987      -0.001       2.509

 projected vibrational frequencies (cm⁻¹)
eigval :       -0.00    -0.00    -0.00    -0.00     0.00     0.00
eigval :        8.03    10.89    15.58    17.66    20.99    22.36
eigval :       37.14    41.80    47.38    57.56    64.63    66.28
eigval :       79.14    79.52    98.20    99.34   105.85   108.42
eigval :      114.91   137.96   139.09   150.29   154.08   158.45
eigval :      163.15   195.10   206.18   206.67   214.07   221.17
eigval :      229.97   233.94   234.20   239.08   272.19   272.65
eigval :      281.42   291.55   306.27   307.62   333.30   333.36
eigval :      343.54   344.41   349.50   350.93   371.91   373.46
eigval :      375.92   377.44   379.20   395.21   401.56   410.45
eigval :      416.70   425.63   448.55   455.02   457.00   459.43
eigval :      493.09   498.39   514.94   515.31   516.12   538.18
eigval :      539.88   540.00   547.31   548.55   548.75   562.10
eigval :      566.64   584.75   585.85   587.48   588.87   604.88
eigval :      606.57   617.93   651.82   653.32   659.92   668.33
eigval :      671.01   679.28   684.92   685.49   697.33   697.41
eigval :      704.05   707.55   719.97   740.07   753.64   763.82
eigval :      773.95   774.36   775.63   775.83   776.50   824.13
eigval :      824.46   846.14   847.58   853.28   864.18   864.24
eigval :      866.82   873.09   878.56   880.65   905.79   907.40
eigval :      907.48   908.74   909.74   911.68   912.13   914.25
eigval :      917.48   918.36   918.40   920.26   927.94   928.40
eigval :      928.88   931.09   933.78   934.06   938.41   938.54
eigval :      957.97   958.13   972.37  1002.91  1014.24  1014.30
eigval :     1051.28  1056.46  1076.17  1076.40  1079.31  1081.33
eigval :     1094.94  1107.15  1112.93  1114.14  1114.45  1118.66
eigval :     1118.76  1119.49  1125.35  1139.08  1139.35  1159.11
eigval :     1159.19  1168.08  1176.05  1176.97  1177.85  1183.69
eigval :     1184.95  1185.43  1186.15  1191.97  1193.99  1194.31
eigval :     1208.11  1238.64  1241.19  1247.03  1248.74  1253.97
eigval :     1262.94  1266.06  1267.17  1272.09  1276.93  1280.18
eigval :     1284.00  1293.35  1293.43  1314.90  1319.17  1319.75
eigval :     1320.54  1324.23  1329.29  1330.55  1331.36  1334.03
eigval :     1336.19  1359.11  1394.53  1399.16  1399.25  1417.54
eigval :     1417.63  1425.58  1425.90  1432.75  1434.33  1436.06
eigval :     1436.71  1440.53  1464.13  1475.07  1475.32  1475.61
eigval :     1475.76  1486.30  1486.39  1488.12  1488.20  1491.35
eigval :     1494.08  1496.20  1496.31  1503.44  1503.55  1516.04
eigval :     1531.17  1569.62  1573.70  1574.96  1577.79  1579.06
eigval :     1589.31  1589.40  1590.13  1590.39  1592.13  1594.83
eigval :     1599.41  1600.32  3022.35  3022.39  3025.69  3025.71
eigval :     3039.50  3039.51  3043.83  3043.87  3047.44  3047.46
eigval :     3054.77  3054.82  3066.06  3066.23  3073.26  3073.36
eigval :     3074.54  3075.39  3076.07  3076.11  3078.14  3078.55
eigval :     3081.60  3081.68  3082.55  3082.60  3083.55  3083.91
eigval :     3086.11  3089.08  3089.93  3092.65  3092.78  3094.34
eigval :     3094.46  3096.05  3096.32  3096.67  3100.12  3100.20

   temp. (K)  partition function   enthalpy   heat capacity  entropy
                                   cal/mol     cal/K/mol   cal/K/mol   J/K/mol
 298.15  VIB  0.549E+21            26606.291    168.072    165.335
         ROT  0.405E+08              888.752      2.981     37.793
         INT  0.222E+29            27495.043    171.053    203.128
         TR   0.178E+29             1481.254      4.968     45.484
         TOT                       28976.2970   176.0214   248.6124  1040.1945

       T/K    H(0)-H(T)+PV         H(T)/Eh          T*S/Eh         G(T)/Eh
   ------------------------------------------------------------------------
    298.15    0.461767E-01    0.790824E+00    0.118124E+00    0.672701E+00
   ------------------------------------------------------------------------

         :::::::::::::::::::::::::::::::::::::::::::::::::::::
         ::                  THERMODYNAMIC                  ::
         :::::::::::::::::::::::::::::::::::::::::::::::::::::
         :: total free energy        -138.613783105070 Eh   ::
         ::.................................................::
         :: total energy             -139.286483779283 Eh   ::
         :: zero point energy           0.744647798684 Eh   ::
         :: G(RRHO) w/o ZPVE           -0.071947124471 Eh   ::
         :: G(RRHO) contrib.            0.672700674213 Eh   ::
         :::::::::::::::::::::::::::::::::::::::::::::::::::::

           -------------------------------------------------
          | TOTAL ENERGY             -139.286483779283 Eh   |
          | TOTAL ENTHALPY           -138.495659311984 Eh   |
          | TOTAL FREE ENERGY        -138.613783105070 Eh   |
          | GRADIENT NORM               0.000063146616 Eh/α |
          | HOMO-LUMO GAP               1.165924924835 eV   |
           -------------------------------------------------

 * finished run on 2025/07/21 at 04:35:28.340
