   * xtb version 6.7.1 (edcfbbe) compiled by 'albert@albert-system' on 2024-07-22

   ID    Z sym.   atoms
    1    6 C      1-9, 11-14, 16-31, 33-46, 48-54
    2    7 N      10, 15, 32, 47
    3    1 H      55-94

          program call               : xtb data2507/toluene/BDQDMAC/BDQDMAC_toluene_T1_crest.xyz --gfn 2 --uhf 2 --gbsa toluene --ohess vtight --parallel 40 --molden --ceasefiles --namespace data2507/toluene/BDQDMAC/BDQDMAC_toluene_T1_finalOpt
      * Solvation model:               GBSA
        Solvent                        toluene
        Solvent mass                       9.2140E+01 g/mol
          :  Hamiltonian                  GFN2-xTB          :
 * total energy  :  -139.2353643 Eh     change       -0.1021192E-08 Eh
 * total energy  :  -139.2354713 Eh     change       -0.1069723E-03 Eh
 * total energy  :  -139.2355576 Eh     change       -0.8631952E-04 Eh
 * total energy  :  -139.2356189 Eh     change       -0.6127714E-04 Eh
 * total energy  :  -139.2356779 Eh     change       -0.5905416E-04 Eh
 * total energy  :  -139.2357782 Eh     change       -0.1003239E-03 Eh
 * total energy  :  -139.2358555 Eh     change       -0.7721569E-04 Eh
 * total energy  :  -139.2359037 Eh     change       -0.4827662E-04 Eh
 * total energy  :  -139.2359494 Eh     change       -0.4564289E-04 Eh
 * total energy  :  -139.2359825 Eh     change       -0.3310039E-04 Eh
 * total energy  :  -139.2367169 Eh     change       -0.6988193E-06 Eh
 * total energy  :  -139.2367174 Eh     change       -0.5653700E-06 Eh
 * total energy  :  -139.2367180 Eh     change       -0.5410683E-06 Eh
 * total energy  :  -139.2367185 Eh     change       -0.5277799E-06 Eh
 * total energy  :  -139.2367190 Eh     change       -0.5161558E-06 Eh
 * total energy  :  -139.2367195 Eh     change       -0.4857169E-06 Eh
 * total energy  :  -139.2367200 Eh     change       -0.4589872E-06 Eh
 * total energy  :  -139.2367204 Eh     change       -0.4525605E-06 Eh
 * total energy  :  -139.2367204 Eh     change       -0.6945982E-08 Eh
   *** GEOMETRY OPTIMIZATION CONVERGED AFTER 152 ITERATIONS ***

 final structure:
================
94
 xtb: 6.7.1 (edcfbbe)
C            6.21829015073658        0.26828888841295       -0.51260499299781
C            5.65392151283905       -1.04497118384575        0.06332313131297
C            6.79823064421004       -1.94054726428554        0.57619886803498
C            4.91481869578609       -1.76815136059624       -1.04369597465150
C            5.61110030660582       -2.15543567986979       -2.18165074270027
C            4.98848892174608       -2.76997856833789       -3.25171702066986
C            3.62181279912866       -2.98657354016949       -3.20405354715973
C            2.90726760866447       -2.61464065837511       -2.08597433015096
C            3.53855709787366       -2.02591421070775       -0.98338244062386
N            2.80134487101251       -1.70758954875814        0.14927109647698
C            1.38722192696633       -1.73157199750798        0.09382699123433
C            0.67347380079386       -2.93092575990516        0.03201577197449
C           -0.70063370797976       -2.92379199627666       -0.08074223447676
C           -1.40334702803569       -1.71714146048140       -0.12408113795278
N           -2.81728416863420       -1.67936880018689       -0.17826552580056
C           -3.55639164767487       -2.00638978076222        0.95066802637629
C           -2.92936980949082       -2.61524284108551        2.04472995812542
C           -3.64615835689214       -2.99579939962773        3.15846686001478
C           -5.01088541847294       -2.76814903475549        3.21021586580725
C           -5.62900338821729       -2.13402898191404        2.14900485795206
C           -4.93031606437239       -1.73749471013623        1.01571519279850
C           -5.66395651698942       -0.99324275577488       -0.08094401308494
C           -6.81655962857376       -1.87174246209459       -0.60464829340874
C           -6.21635881096308        0.31718284768936        0.51282396922946
C           -4.75058485071727       -0.65770982299618       -1.24034328435481
C           -5.26152165947505        0.01434548213829       -2.34309972309992
C           -4.48411370510257        0.30984118110276       -3.44758168048093
C           -3.16097977074343       -0.10025861411677       -3.47526563242229
C           -2.62931265550026       -0.76588550727435       -2.39311766536280
C           -3.39883737950946       -1.02381689712776       -1.25078202269436
C           -0.71702186761870       -0.48996719613609       -0.06264704660123
N           -1.35884138555916        0.67704043802304       -0.07657697919055
C           -0.69385099123986        1.83449256262434        0.00525052246137
C           -1.51430747002596        3.04255005910923        0.08986890557634
C           -2.68032138552221        3.12001775655283       -0.67308406969565
C           -3.49214803908913        4.23523252614056       -0.59908277637947
C           -3.16008182531086        5.28378816802250        0.24432424504361
C           -2.01676135467910        5.20315764819502        1.02464503409297
C           -1.19966904552832        4.09123819635392        0.95408162821813
C            0.70971902258577        1.82808884021136        0.02453277791895
C            1.54065201084448        3.03034311475980       -0.03746271715089
C            1.23554982543313        4.09764325554940       -0.88208346660786
C            2.06209563529237        5.20369986397895       -0.93148115463691
C            3.20537929587182        5.26014416575726       -0.14899451473899
C            3.52794779473918        4.19323129208057        0.67484599345066
C            2.70671397999077        3.08371345295311        0.72747624397656
N            1.36435025043451        0.66345732473687        0.08555136095473
C            0.71210105226963       -0.49736039533677        0.05189993710258
C            3.38791781603504       -1.07242270608407        1.23126397751859
C            2.62002035275878       -0.82465721890873        2.37695937657943
C            3.15631793694359       -0.17784588414507        3.46818499993484
C            4.48241306816041        0.22298124267211        3.44621355650229
C            5.25809059211352       -0.06366442247653        2.33818399837094
C            4.74254802882512       -0.71711533546337        1.22644288868192
H            5.40458636199614        0.88632529119528       -0.88837691033631
H            6.90399178865825        0.06785749981698       -1.33085742721552
H            6.75066510249000        0.82787836227234        0.25099284046541
H            7.48490447837969       -2.18951174729413       -0.22733552903647
H            6.39137429058363       -2.86554945783459        0.98112437098680
H            7.35905180404393       -1.43984653161542        1.35985236494672
H            6.67177275683619       -1.96729155735222       -2.24276853523748
H            5.56081183485403       -3.06132988422610       -4.11923279208639
H            3.10863300922490       -3.44250717778836       -4.03776340142858
H            1.84078109771565       -2.77276581977502       -2.06689139456226
H            1.21368792274849       -3.86449873430335        0.07761911666099
H           -1.24933759125539       -3.85160876688922       -0.14017610459732
H           -1.86433079869307       -2.78243461850987        2.02247582847496
H           -3.13621449336557       -3.46716201735843        3.98555897065995
H           -5.58503693914088       -3.06605730219119        4.07429043368997
H           -6.68795613097239       -1.93752185773592        2.21360189448641
H           -7.50428718879388       -2.12608180049575        0.19630028302276
H           -7.37414108486841       -1.35529717892423       -1.38034851147434
H           -6.41818830210831       -2.79442065815044       -1.02306330386460
H           -6.74456371489045        0.89132357833141       -0.24282839940515
H           -5.39699609534080        0.92318316717959        0.89581121553800
H           -6.90300505510944        0.11200861947452        1.32911200784259
H           -6.29635834012933        0.32018769786198       -2.34527272161785
H           -4.90957503116104        0.84278564549476       -4.28435897184814
H           -2.54349100972455        0.09628911069161       -4.33947401564242
H           -1.60221409963950       -1.09693927507400       -2.42567686013752
H           -2.93124763035206        2.29466946255633       -1.32335386062921
H           -4.38792239244421        4.28560660147211       -1.20106101186060
H           -3.79323516871952        6.15694994752607        0.30075643149864
H           -1.76308764153278        6.00958421536628        1.69745759971422
H           -0.31925694941069        4.02601032650824        1.57728136919615
H            0.35508420226685        4.05158482087073       -1.50689398024360
H            1.81576971973287        6.02446520904125       -1.58950754397147
H            3.84591551091766        6.12883117079753       -0.18872362281943
H            4.42364184803549        4.22484109511427        1.27820804841414
H            2.95021954765942        2.24421293983307        1.36223349902067
H            1.59051854486077       -1.14864869961174        2.40465571619850
H            2.54008806296652        0.01147091190141        4.33490505749917
H            4.91141270295978        0.74155438045357        4.29018248132017
H            6.29517523457415        0.23439362471276        2.34477551116209

          :  Hamiltonian                  GFN2-xTB          :
         :: gradient norm              0.000057882122 Eh/a0 ::
         :: HOMO-LUMO gap              0.902065893143 eV    ::
         :: SCC energy              -141.750183202720 Eh    ::
         :: -> dispersion             -0.142718392788 Eh    ::
         :: -> Gsolv                  -0.054498302986 Eh    ::
         :: repulsion energy           2.513462781427 Eh    ::

    * Orbital Energies and Occupations

         #    Occupation            Energy/Eh            Energy/eV
      -------------------------------------------------------------
         1        2.0000           -0.6729546             -18.3120
       ...           ...                  ...                  ...
       119        2.0000           -0.4074564             -11.0875
       120        2.0000           -0.4058724             -11.0444
       121        2.0000           -0.4045163             -11.0074
       122        2.0000           -0.4043466             -11.0028
       123        2.0000           -0.4034625             -10.9788
       124        2.0000           -0.3989442             -10.8558
       125        2.0000           -0.3988136             -10.8523
       126        2.0000           -0.3889943             -10.5851
       127        2.0000           -0.3857025             -10.4955
       128        1.9999           -0.3590530              -9.7703
       129        1.9977           -0.3558682              -9.6837
       130        1.0024           -0.3443710              -9.3708
       131        1.0000           -0.2915022              -7.9322 (HOMO)
       132                         -0.2583519              -7.0301 (LUMO)
       133                         -0.2317876              -6.3073
       134                         -0.2315725              -6.3014
       135                         -0.2264466              -6.1619
       136                         -0.2258305              -6.1452
       137                         -0.2256061              -6.1391
       138                         -0.2251194              -6.1258
       139                         -0.2249012              -6.1199
       140                         -0.2228152              -6.0631
       141                         -0.2202829              -5.9942
       142                         -0.2139123              -5.8209
       ...                                ...                  ...
       256                          0.6953136              18.9204
      -------------------------------------------------------------
                  HL-Gap            0.0331503 Eh            0.9021 eV

     #   Z          covCN         q      C6AA      α(0)
     1   6 C        3.761    -0.104    22.539     6.768
     2   6 C        3.909     0.022    20.144     6.379
     3   6 C        3.761    -0.107    22.591     6.776
     4   6 C        2.979    -0.008    28.205     8.712
     5   6 C        2.927    -0.036    28.907     8.817
     6   6 C        2.917    -0.040    28.995     8.830
     7   6 C        2.919    -0.033    28.824     8.804
     8   6 C        2.924    -0.055    29.363     8.886
     9   6 C        2.926     0.061    26.625     8.462
    10   7 N        2.753    -0.044    22.083     6.979
    11   6 C        2.929     0.024    27.477     8.597
    12   6 C        2.914    -0.060    29.502     8.907
    13   6 C        2.914    -0.060    29.502     8.907
    14   6 C        2.929     0.024    27.477     8.596
    15   7 N        2.753    -0.044    22.084     6.980
    16   6 C        2.927     0.061    26.625     8.462
    17   6 C        2.924    -0.055    29.363     8.886
    18   6 C        2.919    -0.033    28.824     8.804
    19   6 C        2.917    -0.040    28.995     8.830
    20   6 C        2.927    -0.036    28.907     8.817
    21   6 C        2.979    -0.008    28.205     8.712
    22   6 C        3.909     0.022    20.144     6.379
    23   6 C        3.761    -0.107    22.591     6.776
    24   6 C        3.761    -0.104    22.539     6.768
    25   6 C        2.979    -0.006    28.163     8.705
    26   6 C        2.926    -0.036    28.901     8.816
    27   6 C        2.917    -0.039    28.967     8.826
    28   6 C        2.918    -0.033    28.831     8.805
    29   6 C        2.924    -0.045    29.124     8.850
    30   6 C        2.933     0.070    26.437     8.432
    31   6 C        2.943     0.087    26.053     8.371
    32   7 N        1.853    -0.273    27.930     7.833
    33   6 C        2.933     0.074    26.348     8.418
    34   6 C        2.980     0.004    27.932     8.669
    35   6 C        2.926    -0.030    28.748     8.793
    36   6 C        2.918    -0.030    28.758     8.794
    37   6 C        2.919    -0.033    28.813     8.802
    38   6 C        2.918    -0.030    28.756     8.794
    39   6 C        2.922    -0.035    28.859     8.810
    40   6 C        2.933     0.074    26.349     8.418
    41   6 C        2.980     0.004    27.932     8.669
    42   6 C        2.922    -0.035    28.859     8.810
    43   6 C        2.918    -0.030    28.756     8.794
    44   6 C        2.919    -0.033    28.813     8.802
    45   6 C        2.918    -0.030    28.757     8.794
    46   6 C        2.926    -0.030    28.748     8.793
    47   7 N        1.853    -0.273    27.929     7.833
    48   6 C        2.943     0.087    26.054     8.371
    49   6 C        2.933     0.070    26.437     8.432
    50   6 C        2.924    -0.045    29.123     8.850
    51   6 C        2.918    -0.033    28.831     8.805
    52   6 C        2.917    -0.039    28.966     8.826
    53   6 C        2.926    -0.036    28.901     8.816
    54   6 C        2.979    -0.006    28.162     8.705
    55   1 H        0.925     0.032     2.558     2.501
    56   1 H        0.925     0.047     2.356     2.400
    57   1 H        0.925     0.048     2.351     2.398
    58   1 H        0.925     0.048     2.343     2.394
    59   1 H        0.925     0.034     2.533     2.489
    60   1 H        0.925     0.048     2.348     2.396
    61   1 H        0.926     0.043     2.415     2.430
    62   1 H        0.926     0.036     2.503     2.474
    63   1 H        0.926     0.034     2.530     2.488
    64   1 H        0.926     0.030     2.588     2.515
    65   1 H        0.926     0.041     2.438     2.442
    66   1 H        0.926     0.041     2.438     2.442
    67   1 H        0.926     0.030     2.589     2.516
    68   1 H        0.926     0.034     2.531     2.488
    69   1 H        0.926     0.036     2.504     2.474
    70   1 H        0.926     0.043     2.415     2.430
    71   1 H        0.925     0.048     2.343     2.394
    72   1 H        0.925     0.048     2.348     2.396
    73   1 H        0.925     0.034     2.533     2.489
    74   1 H        0.925     0.048     2.351     2.398
    75   1 H        0.925     0.032     2.558     2.501
    76   1 H        0.925     0.047     2.356     2.400
    77   1 H        0.926     0.043     2.407     2.426
    78   1 H        0.926     0.036     2.498     2.472
    79   1 H        0.926     0.031     2.570     2.507
    80   1 H        0.926     0.021     2.715     2.577
    81   1 H        0.926     0.034     2.531     2.488
    82   1 H        0.926     0.037     2.493     2.469
    83   1 H        0.926     0.037     2.495     2.470
    84   1 H        0.926     0.034     2.530     2.487
    85   1 H        0.926     0.023     2.694     2.567
    86   1 H        0.926     0.023     2.695     2.567
    87   1 H        0.926     0.034     2.530     2.487
    88   1 H        0.926     0.037     2.495     2.470
    89   1 H        0.926     0.037     2.493     2.469
    90   1 H        0.926     0.034     2.531     2.488
    91   1 H        0.926     0.021     2.715     2.577
    92   1 H        0.926     0.031     2.570     2.507
    93   1 H        0.926     0.036     2.498     2.472
    94   1 H        0.926     0.043     2.407     2.426

molecular dipole:
                 x           y           z       tot (Debye)
 q only:        0.001      -0.369      -0.002
   full:        0.001      -0.349      -0.002       0.888

 projected vibrational frequencies (cm⁻¹)
eigval :       -0.00    -0.00    -0.00     0.00     0.00     0.00
eigval :       10.02    15.82    16.77    18.45    18.78    22.28
eigval :       39.27    41.74    44.12    50.25    63.91    66.99
eigval :       79.26    79.82    98.01    99.10   102.78   106.36
eigval :      116.01   140.15   145.61   149.59   151.37   159.08
eigval :      169.53   196.08   203.46   207.48   212.76   220.78
eigval :      225.44   233.59   234.68   237.26   270.04   273.89
eigval :      287.84   294.28   305.10   305.98   330.32   330.50
eigval :      341.70   342.59   349.76   351.52   373.22   376.06
eigval :      379.20   379.96   381.23   388.70   389.29   410.54
eigval :      415.97   420.16   448.39   454.84   457.59   462.22
eigval :      510.41   510.54   511.22   512.87   513.93   531.97
eigval :      533.97   536.42   541.84   546.92   547.43   556.96
eigval :      565.25   583.03   584.83   585.97   586.67   598.15
eigval :      600.10   611.79   627.48   640.35   651.69   661.64
eigval :      666.93   670.59   674.80   687.31   688.26   692.49
eigval :      701.13   701.29   704.33   719.36   739.44   760.24
eigval :      761.17   774.96   776.60   778.23   780.42   817.48
eigval :      825.19   826.52   842.71   846.45   867.67   868.53
eigval :      873.13   874.67   877.44   878.59   898.22   900.57
eigval :      901.62   909.15   910.34   914.49   915.19   917.20
eigval :      919.21   920.07   922.01   922.96   924.87   926.31
eigval :      927.90   929.59   930.15   931.73   937.74   937.80
eigval :      958.94   959.00   972.22   998.40  1013.37  1013.50
eigval :     1037.04  1047.34  1075.52  1075.66  1079.87  1081.49
eigval :     1097.08  1097.68  1109.93  1110.27  1115.86  1116.17
eigval :     1118.38  1120.14  1132.65  1137.94  1138.10  1153.88
eigval :     1153.94  1169.59  1173.51  1178.98  1179.22  1181.90
eigval :     1182.94  1184.21  1185.58  1192.13  1194.88  1197.46
eigval :     1203.69  1231.97  1233.50  1240.14  1242.67  1244.05
eigval :     1250.47  1254.53  1258.91  1263.45  1280.65  1282.57
eigval :     1286.59  1287.34  1293.96  1294.08  1310.21  1311.83
eigval :     1316.63  1318.69  1323.94  1327.00  1327.79  1333.88
eigval :     1333.94  1335.41  1343.07  1387.56  1398.27  1398.58
eigval :     1404.54  1416.67  1416.74  1425.86  1426.50  1426.75
eigval :     1429.30  1431.47  1431.89  1446.83  1462.02  1462.33
eigval :     1471.81  1474.27  1480.32  1482.65  1484.39  1484.73
eigval :     1486.15  1486.70  1493.64  1494.83  1495.01  1500.48
eigval :     1501.11  1523.29  1562.63  1562.67  1571.16  1571.27
eigval :     1576.00  1577.19  1583.39  1583.47  1588.69  1589.02
eigval :     1593.39  1593.56  3024.35  3024.59  3027.10  3027.29
eigval :     3043.50  3043.67  3046.60  3046.68  3051.01  3051.12
eigval :     3055.93  3056.23  3069.15  3069.92  3071.73  3072.16
eigval :     3074.23  3074.26  3078.38  3078.43  3079.04  3079.38
eigval :     3082.94  3083.17  3085.00  3085.45  3085.73  3085.94
eigval :     3086.44  3089.43  3090.18  3091.73  3092.10  3096.42
eigval :     3096.59  3096.73  3096.82  3098.06  3107.51  3107.95

   temp. (K)  partition function   enthalpy   heat capacity  entropy
                                   cal/mol     cal/K/mol   cal/K/mol   J/K/mol
 298.15  VIB  0.368E+21            26689.240    168.657    165.174
         ROT  0.407E+08              888.752      2.981     37.801
         INT  0.150E+29            27577.993    171.638    202.975
         TR   0.178E+29             1481.254      4.968     45.484
         TOT                       29059.2466   176.6062   248.4597  1039.5554

       T/K    H(0)-H(T)+PV         H(T)/Eh          T*S/Eh         G(T)/Eh
   ------------------------------------------------------------------------
    298.15    0.463089E-01    0.788918E+00    0.118051E+00    0.670867E+00
   ------------------------------------------------------------------------

         :::::::::::::::::::::::::::::::::::::::::::::::::::::
         ::                  THERMODYNAMIC                  ::
         :::::::::::::::::::::::::::::::::::::::::::::::::::::
         :: total free energy        -138.565853450260 Eh   ::
         ::.................................................::
         :: total energy             -139.236720419334 Eh   ::
         :: zero point energy           0.742609339159 Eh   ::
         :: G(RRHO) w/o ZPVE           -0.071742370084 Eh   ::
         :: G(RRHO) contrib.            0.670866969075 Eh   ::
         :::::::::::::::::::::::::::::::::::::::::::::::::::::

           -------------------------------------------------
          | TOTAL ENERGY             -139.236720419334 Eh   |
          | TOTAL ENTHALPY           -138.447802223015 Eh   |
          | TOTAL FREE ENERGY        -138.565853450260 Eh   |
          | GRADIENT NORM               0.000057018009 Eh/α |
          | HOMO-LUMO GAP               0.902064379483 eV   |
           -------------------------------------------------

 * finished run on 2025/07/21 at 04:42:12.461
