   * xtb version 6.7.1 (edcfbbe) compiled by 'albert@albert-system' on 2024-07-22

   ID    Z sym.   atoms
    1    6 C      1-9, 11-14, 16-31, 33-46, 48-54
    2    7 N      10, 15, 32, 47
    3    1 H      55-94

          program call               : xtb data2507/toluene/BDQDMAC/BDQDMAC.xyz --gfn 2 --gbsa toluene --ohess vtight --parallel 40 --molden --ceasefiles --namespace data2507/toluene/BDQDMAC/BDQDMAC_toluene_S0_preOpt
      * Solvation model:               GBSA
        Solvent                        toluene
        Solvent mass                       9.2140E+01 g/mol
          :  Hamiltonian                  GFN2-xTB          :
 * total energy  :  -139.2488210 Eh     change       -0.2507818E-08 Eh
 * total energy  :  -139.2724498 Eh     change       -0.2362878E-01 Eh
 * total energy  :  -139.2808389 Eh     change       -0.8389119E-02 Eh
 * total energy  :  -139.2823882 Eh     change       -0.1549344E-02 Eh
 * total energy  :  -139.2833538 Eh     change       -0.9655523E-03 Eh
 * total energy  :  -139.2837957 Eh     change       -0.4419301E-03 Eh
 * total energy  :  -139.2840390 Eh     change       -0.2433515E-03 Eh
 * total energy  :  -139.2842030 Eh     change       -0.1639260E-03 Eh
 * total energy  :  -139.2842967 Eh     change       -0.9367988E-04 Eh
 * total energy  :  -139.2843794 Eh     change       -0.8272361E-04 Eh
 * total energy  :  -139.2864164 Eh     change       -0.3091213E-05 Eh
 * total energy  :  -139.2864193 Eh     change       -0.2818443E-05 Eh
 * total energy  :  -139.2864220 Eh     change       -0.2706296E-05 Eh
 * total energy  :  -139.2864245 Eh     change       -0.2576031E-05 Eh
 * total energy  :  -139.2864266 Eh     change       -0.2072498E-05 Eh
 * total energy  :  -139.2864279 Eh     change       -0.1309139E-05 Eh
 * total energy  :  -139.2864287 Eh     change       -0.7631908E-06 Eh
 * total energy  :  -139.2864292 Eh     change       -0.5251063E-06 Eh
 * total energy  :  -139.2864292 Eh     change       -0.4202803E-08 Eh
   *** GEOMETRY OPTIMIZATION CONVERGED AFTER 94 ITERATIONS ***

 final structure:
================
94
 xtb: 6.7.1 (edcfbbe)
C            6.46368893161142       -0.02319873656438       -0.42062579501489
C            5.72936580108484       -1.30362016735578        0.01960823799006
C            6.74431807533317       -2.38202625060314        0.44408546308700
C            4.92295859746578       -1.82239244147285       -1.15606214280105
C            5.57889923273885       -2.16008444229605       -2.33275180558250
C            4.90105548892913       -2.60139086234654       -3.45398309492073
C            3.52176986525592       -2.69449877640997       -3.41372138690990
C            2.84596773643374       -2.36875495696475       -2.25619769852730
C            3.53025176094884       -1.94881805553568       -1.11192168407818
N            2.82562211218014       -1.65243862573769        0.04837226972439
C            1.41216536732593       -1.66406235098314        0.02646425669413
C            0.69959603797408       -2.84045522410437        0.02314223455449
C           -0.69989256163085       -2.84030994080236       -0.01855335581080
C           -1.41228750824356       -1.66379798644264       -0.02397662479352
N           -2.82576568999285       -1.65245292527225       -0.04459087838486
C           -3.52905524786415       -1.94775505297389        1.11678535764909
C           -2.84316676871653       -2.36315402477437        2.26176748992646
C           -3.51757685581068       -2.68802994162696        3.42034614760318
C           -4.89708166067618       -2.59848759386266        3.46101572786346
C           -5.57657992907418       -2.16151413467925        2.33909058567433
C           -4.92205507983730       -1.82470988561134        1.16135761282361
C           -5.73033820232121       -1.31087977260333       -0.01518231868061
C           -6.74168720455291       -2.39359673257418       -0.43729294099299
C           -6.46892696154629       -0.03204432549528        0.42250999416431
C           -4.84912391454622       -0.98648878273153       -1.20611398058739
C           -5.42842232047760       -0.50894209236549       -2.37444060103660
C           -4.68284372110818       -0.22964958642299       -3.50505102295714
C           -3.31770436634097       -0.45273898631292       -3.48520079660092
C           -2.71819777057592       -0.92756450369651       -2.33740060696540
C           -3.46365250299521       -1.17424277452320       -1.18052762948263
C           -0.70954703708349       -0.43279356062297        0.00639332575749
N           -1.38084960105360        0.72780301229727        0.10698331166440
C           -0.70893028878631        1.85410183158567        0.10499660353325
C           -1.47620761421152        3.07801847260015        0.35776612580324
C           -2.74247118201246        3.21815957311717       -0.20665118856730
C           -3.48731226002044        4.35839479853459        0.02900442812846
C           -2.98351650193689        5.36162894985381        0.84160440785294
C           -1.73452043668064        5.21727664450387        1.42494079822776
C           -0.98087233055194        4.08337912915354        1.18615038913278
C            0.70976606048483        1.85361887776957       -0.11088062061871
C            1.47751142214844        3.07663852767327       -0.36664749337812
C            0.98294387933428        4.07971985081031       -1.19824164444602
C            1.73707889650576        5.21267953164557       -1.43993712086226
C            2.98578131816672        5.35836631193435       -0.85630014128342
C            3.48877994682336        4.35740017772225       -0.04041764761232
C            2.74345682797250        3.21807817052601        0.19814249097458
N            1.38131939196041        0.72711762262350       -0.11015285116144
C            0.70963542583320       -0.43301718516635       -0.00690349653706
C            3.46189433178641       -1.17071798831513        1.18374893677845
C            2.71526347545435       -0.92383742156427        2.33982722176014
C            3.31303573127060       -0.44560395774497        3.48711098044102
C            4.67764461368051       -0.21931600058630        3.50728071943134
C            5.42445754735370       -0.49874078863633        2.37751792190323
C            4.84688802860887       -0.97964888727894        1.20971140633165
H            5.74201764621029        0.72034083406502       -0.75440948340200
H            7.14605943566724       -0.23068127040893       -1.24002413888073
H            7.03660843344009        0.39659977983022        0.40134818983846
H            7.39728024581139       -2.64600139991844       -0.38290918155492
H            6.21877046652742       -3.27923103136646        0.76691828319438
H            7.36116590121490       -2.03109323601812        1.26648329916066
H            6.65348764099014       -2.07367973637832       -2.38313979642874
H            5.44347933572926       -2.85835774737753       -4.35124100845452
H            2.96651223327998       -3.01807565720900       -4.28198457629410
H            1.76872578895369       -2.43437368275565       -2.24107543023125
H            1.23062263890820       -3.78077025407303        0.03846033023120
H           -1.23114701961376       -3.78053216581879       -0.03173531688979
H           -1.76576463477900       -2.42597036935560        2.24633009288665
H           -2.96106282357514       -3.00816931263963        4.28907552386474
H           -5.43843440132569       -2.85495933660997        4.35906121857482
H           -6.65138358519748       -2.07798736740168        2.38971091983553
H           -7.39433586357116       -2.65726732546522        0.39005188884854
H           -7.35907771986036       -2.04686438290113       -1.26106115589231
H           -6.21314539963085       -3.29006207343245       -0.75729515451226
H           -7.04436816960202        0.38343100279721       -0.39989386947284
H           -5.74966482352622        0.71506982902460        0.75350567139452
H           -7.14962715465596       -0.23987432931773        1.24320285974981
H           -6.49532070926173       -0.34946895166272       -2.41014954752824
H           -5.16452805146057        0.14548027140712       -4.39537639925173
H           -2.71638059638571       -0.26369281346796       -4.36276272467112
H           -1.65413835183605       -1.11479511233215       -2.33777734866021
H           -3.12068901246613        2.42796239750225       -0.83775241684072
H           -4.46349246237708        4.46347445660621       -0.42086228453338
H           -3.56529906375989        6.25263139477018        1.02512693032932
H           -1.34533126849283        5.99069219398681        2.07040981358312
H           -0.01448122554867        3.96616075669957        1.65499979782371
H            0.01677641994569        3.96139109481752       -1.66728466005747
H            1.34852649945813        5.98427066852967       -2.08796752584699
H            3.56797351472304        6.24861767452652       -1.04215594308910
H            4.46471373195268        4.46352087132453        0.40974233976299
H            3.12106384565096        2.42964660125489        0.83181423658736
H            1.65164762445632       -1.11356700235839        2.33995230123891
H            2.71080959673278       -0.25642759688609        4.36402644417095
H            5.15796244292085        0.15856739687955        4.39717877385499
H            6.49093950832485       -0.33656082814241        2.41346117070887

          :  Hamiltonian                  GFN2-xTB          :
         :: gradient norm              0.000051077978 Eh/a0 ::
         :: HOMO-LUMO gap              1.130689099399 eV    ::
         :: SCC energy              -141.805739555420 Eh    ::
         :: -> dispersion             -0.139933217289 Eh    ::
         :: -> Gsolv                  -0.055274139834 Eh    ::
         :: repulsion energy           2.519310339467 Eh    ::

    * Orbital Energies and Occupations

         #    Occupation            Energy/Eh            Energy/eV
      -------------------------------------------------------------
         1        2.0000           -0.6898558             -18.7719
       ...           ...                  ...                  ...
       118        2.0000           -0.4093744             -11.1396
       119        2.0000           -0.4089625             -11.1284
       120        2.0000           -0.4052754             -11.0281
       121        2.0000           -0.4050986             -11.0233
       122        2.0000           -0.4037402             -10.9863
       123        2.0000           -0.3999044             -10.8820
       124        2.0000           -0.3997843             -10.8787
       125        2.0000           -0.3977439             -10.8232
       126        2.0000           -0.3943297             -10.7303
       127        2.0000           -0.3942656             -10.7285
       128        2.0000           -0.3666417              -9.9768
       129        2.0000           -0.3505983              -9.5403
       130        2.0000           -0.3467745              -9.4362 (HOMO)
       131                         -0.3052224              -8.3055 (LUMO)
       132                         -0.2735332              -7.4432
       133                         -0.2366632              -6.4399
       134                         -0.2348564              -6.3908
       135                         -0.2293197              -6.2401
       136                         -0.2289428              -6.2299
       137                         -0.2260219              -6.1504
       138                         -0.2260076              -6.1500
       139                         -0.2213241              -6.0225
       140                         -0.2212986              -6.0218
       141                         -0.2209259              -6.0117
       ...                                ...                  ...
       256                          0.6828449              18.5812
      -------------------------------------------------------------
                  HL-Gap            0.0415521 Eh            1.1307 eV

     #   Z          covCN         q      C6AA      α(0)
     1   6 C        3.761    -0.105    22.549     6.769
     2   6 C        3.909     0.021    20.166     6.383
     3   6 C        3.761    -0.105    22.563     6.771
     4   6 C        2.979    -0.012    28.312     8.728
     5   6 C        2.928    -0.037    28.932     8.821
     6   6 C        2.917    -0.046    29.137     8.852
     7   6 C        2.919    -0.035    28.875     8.812
     8   6 C        2.924    -0.060    29.480     8.904
     9   6 C        2.926     0.061    26.636     8.464
    10   7 N        2.753    -0.065    22.507     7.046
    11   6 C        2.925     0.057    26.715     8.476
    12   6 C        2.918    -0.049    29.221     8.864
    13   6 C        2.918    -0.049    29.221     8.864
    14   6 C        2.925     0.057    26.715     8.476
    15   7 N        2.753    -0.065    22.506     7.046
    16   6 C        2.926     0.061    26.637     8.464
    17   6 C        2.924    -0.060    29.479     8.904
    18   6 C        2.919    -0.035    28.875     8.812
    19   6 C        2.917    -0.046    29.137     8.852
    20   6 C        2.928    -0.037    28.932     8.821
    21   6 C        2.979    -0.012    28.312     8.728
    22   6 C        3.909     0.021    20.166     6.383
    23   6 C        3.761    -0.105    22.563     6.771
    24   6 C        3.761    -0.105    22.549     6.769
    25   6 C        2.979    -0.012    28.309     8.728
    26   6 C        2.928    -0.038    28.937     8.822
    27   6 C        2.917    -0.046    29.144     8.853
    28   6 C        2.919    -0.036    28.896     8.815
    29   6 C        2.925    -0.055    29.377     8.888
    30   6 C        2.930     0.065    26.536     8.448
    31   6 C        2.964     0.080    26.218     8.399
    32   7 N        1.852    -0.252    27.425     7.762
    33   6 C        2.950     0.092    25.946     8.354
    34   6 C        2.982     0.002    27.967     8.675
    35   6 C        2.925    -0.025    28.625     8.774
    36   6 C        2.918    -0.027    28.673     8.781
    37   6 C        2.920    -0.026    28.648     8.777
    38   6 C        2.919    -0.027    28.685     8.783
    39   6 C        2.922    -0.030    28.748     8.793
    40   6 C        2.950     0.092    25.945     8.354
    41   6 C        2.982     0.002    27.967     8.675
    42   6 C        2.922    -0.030    28.748     8.793
    43   6 C        2.919    -0.027    28.685     8.783
    44   6 C        2.920    -0.026    28.648     8.777
    45   6 C        2.918    -0.027    28.673     8.781
    46   6 C        2.925    -0.025    28.625     8.774
    47   7 N        1.852    -0.252    27.425     7.762
    48   6 C        2.964     0.080    26.218     8.399
    49   6 C        2.930     0.065    26.535     8.448
    50   6 C        2.925    -0.055    29.377     8.889
    51   6 C        2.919    -0.036    28.896     8.815
    52   6 C        2.917    -0.046    29.144     8.853
    53   6 C        2.928    -0.038    28.937     8.822
    54   6 C        2.979    -0.012    28.308     8.727
    55   1 H        0.925     0.032     2.561     2.503
    56   1 H        0.925     0.044     2.399     2.422
    57   1 H        0.925     0.044     2.393     2.419
    58   1 H        0.925     0.044     2.392     2.419
    59   1 H        0.925     0.031     2.577     2.510
    60   1 H        0.925     0.044     2.391     2.418
    61   1 H        0.926     0.037     2.482     2.464
    62   1 H        0.926     0.030     2.590     2.516
    63   1 H        0.926     0.028     2.618     2.530
    64   1 H        0.926     0.015     2.812     2.622
    65   1 H        0.926     0.058     2.228     2.334
    66   1 H        0.926     0.058     2.228     2.334
    67   1 H        0.926     0.015     2.812     2.622
    68   1 H        0.926     0.028     2.618     2.530
    69   1 H        0.926     0.030     2.590     2.516
    70   1 H        0.926     0.037     2.482     2.464
    71   1 H        0.925     0.044     2.392     2.418
    72   1 H        0.925     0.044     2.391     2.418
    73   1 H        0.925     0.031     2.577     2.510
    74   1 H        0.925     0.044     2.392     2.419
    75   1 H        0.925     0.032     2.561     2.503
    76   1 H        0.925     0.044     2.399     2.422
    77   1 H        0.926     0.038     2.478     2.462
    78   1 H        0.926     0.030     2.590     2.516
    79   1 H        0.926     0.025     2.656     2.548
    80   1 H        0.926     0.008     2.930     2.677
    81   1 H        0.926     0.042     2.427     2.436
    82   1 H        0.926     0.045     2.387     2.416
    83   1 H        0.926     0.045     2.377     2.411
    84   1 H        0.926     0.043     2.412     2.428
    85   1 H        0.926     0.029     2.604     2.523
    86   1 H        0.926     0.029     2.604     2.524
    87   1 H        0.926     0.043     2.412     2.428
    88   1 H        0.926     0.045     2.377     2.411
    89   1 H        0.926     0.045     2.387     2.416
    90   1 H        0.926     0.042     2.427     2.436
    91   1 H        0.926     0.008     2.930     2.677
    92   1 H        0.926     0.025     2.656     2.548
    93   1 H        0.926     0.030     2.590     2.516
    94   1 H        0.926     0.038     2.478     2.462

molecular dipole:
                 x           y           z       tot (Debye)
 q only:        0.000       0.994      -0.001
   full:        0.000       0.922      -0.001       2.343

 projected vibrational frequencies (cm⁻¹)
eigval :       -0.00    -0.00    -0.00    -0.00     0.00     0.00
eigval :       12.49    14.38    16.09    18.71    19.51    21.11
eigval :       35.64    37.98    46.80    53.48    62.32    64.34
eigval :       76.69    79.59    96.86   100.69   104.86   107.77
eigval :      113.02   146.74   148.77   152.56   153.58   154.08
eigval :      160.05   192.38   211.12   212.17   215.46   222.78
eigval :      225.36   233.49   235.69   237.82   265.15   268.91
eigval :      281.68   292.76   306.96   307.39   332.37   332.58
eigval :      343.45   344.67   347.84   349.32   371.13   371.73
eigval :      376.17   376.57   379.88   390.92   399.34   410.94
eigval :      416.25   421.56   450.64   451.94   452.45   460.57
eigval :      490.44   493.58   514.23   516.69   517.37   537.54
eigval :      539.43   540.24   545.62   548.46   548.76   562.14
eigval :      567.70   584.96   585.95   587.40   588.72   605.18
eigval :      606.21   618.03   653.56   654.04   660.26   668.16
eigval :      669.82   678.64   683.24   684.79   695.21   696.19
eigval :      705.89   708.47   720.29   739.91   754.71   762.75
eigval :      775.26   775.50   777.21   777.71   778.36   824.16
eigval :      824.89   843.39   846.47   854.12   864.71   864.84
eigval :      865.42   867.45   876.76   878.20   905.53   907.90
eigval :      910.28   912.62   912.65   913.73   913.84   915.15
eigval :      918.65   919.68   919.75   923.90   924.93   927.59
eigval :      928.35   929.97   931.26   931.63   937.90   937.95
eigval :      958.16   958.23   972.56  1002.87  1015.41  1015.54
eigval :     1051.22  1056.45  1076.68  1076.93  1078.89  1080.70
eigval :     1095.30  1107.30  1112.51  1113.90  1114.63  1118.55
eigval :     1118.63  1118.76  1124.41  1139.77  1140.05  1158.62
eigval :     1158.66  1169.05  1176.15  1178.33  1178.44  1184.14
eigval :     1185.04  1186.39  1187.45  1190.74  1192.94  1194.21
eigval :     1207.89  1238.46  1241.05  1245.89  1248.76  1251.53
eigval :     1263.69  1266.78  1266.85  1272.19  1276.77  1279.84
eigval :     1285.26  1293.33  1293.47  1315.70  1319.37  1322.62
eigval :     1322.79  1325.66  1330.74  1332.02  1332.87  1334.45
eigval :     1336.73  1355.55  1392.17  1398.90  1398.92  1417.71
eigval :     1417.74  1426.27  1426.33  1433.93  1435.14  1437.75
eigval :     1438.52  1442.48  1463.97  1475.31  1476.18  1476.50
eigval :     1476.71  1487.19  1487.38  1488.82  1488.93  1492.36
eigval :     1495.05  1498.47  1498.77  1503.42  1503.62  1515.75
eigval :     1531.96  1569.64  1574.05  1574.80  1578.18  1579.13
eigval :     1589.29  1589.45  1590.24  1590.51  1592.28  1594.85
eigval :     1599.62  1600.66  3022.78  3022.85  3026.39  3026.53
eigval :     3040.74  3040.78  3042.80  3042.88  3049.03  3049.08
eigval :     3053.19  3053.23  3067.84  3067.98  3073.44  3073.51
eigval :     3073.99  3074.78  3077.54  3077.60  3077.79  3077.94
eigval :     3081.95  3082.03  3082.85  3082.87  3083.92  3084.00
eigval :     3087.22  3090.72  3090.96  3091.05  3091.67  3094.34
eigval :     3094.45  3096.89  3096.98  3097.12  3097.19  3097.72

   temp. (K)  partition function   enthalpy   heat capacity  entropy
                                   cal/mol     cal/K/mol   cal/K/mol   J/K/mol
 298.15  VIB  0.367E+21            26625.565    167.865    164.793
         ROT  0.423E+08              888.752      2.981     37.876
         INT  0.155E+29            27514.317    170.846    202.669
         TR   0.178E+29             1481.254      4.968     45.484
         TOT                       28995.5708   175.8142   248.1531  1038.2728

       T/K    H(0)-H(T)+PV         H(T)/Eh          T*S/Eh         G(T)/Eh
   ------------------------------------------------------------------------
    298.15    0.462074E-01    0.790880E+00    0.117906E+00    0.672974E+00
   ------------------------------------------------------------------------

         :::::::::::::::::::::::::::::::::::::::::::::::::::::
         ::                  THERMODYNAMIC                  ::
         :::::::::::::::::::::::::::::::::::::::::::::::::::::
         :: total free energy        -138.613455270001 Eh   ::
         ::.................................................::
         :: total energy             -139.286429218042 Eh   ::
         :: zero point energy           0.744672132996 Eh   ::
         :: G(RRHO) w/o ZPVE           -0.071698184956 Eh   ::
         :: G(RRHO) contrib.            0.672973948041 Eh   ::
         :::::::::::::::::::::::::::::::::::::::::::::::::::::

           -------------------------------------------------
          | TOTAL ENERGY             -139.286429218042 Eh   |
          | TOTAL ENTHALPY           -138.495549701692 Eh   |
          | TOTAL FREE ENERGY        -138.613455270001 Eh   |
          | GRADIENT NORM               0.000051076883 Eh/α |
          | HOMO-LUMO GAP               1.130688890376 eV   |
           -------------------------------------------------

 * finished run on 2025/07/21 at 04:29:51.767
