   * xtb version 6.7.1 (edcfbbe) compiled by 'albert@albert-system' on 2024-07-22

   ID    Z sym.   atoms
    1    8 O      1
    2    6 C      2-6, 8-38, 40-66
    3    7 N      7, 39
    4    1 H      67-106

          program call               : xtb data2507/gas/SFAC-BP-SFAC/SFAC-BP-SFAC_gas_T1_crest.xyz --gfn 2 --spinpol --tblite --uhf 2 --ohess vtight --parallel 40 --molden --ceasefiles --namespace data2507/gas/SFAC-BP-SFAC/SFAC-BP-SFAC_gas_T1_finalOpt
 * total energy  :  -165.2092452 Eh     change       -0.3147912E-07 Eh
 * total energy  :  -165.2092846 Eh     change       -0.3934459E-04 Eh
 * total energy  :  -165.2092973 Eh     change       -0.1270717E-04 Eh
 * total energy  :  -165.2092983 Eh     change       -0.9969434E-06 Eh
 * total energy  :  -165.2092991 Eh     change       -0.8097549E-06 Eh
 * total energy  :  -165.2093004 Eh     change       -0.1273172E-05 Eh
 * total energy  :  -165.2093019 Eh     change       -0.1493206E-05 Eh
 * total energy  :  -165.2093035 Eh     change       -0.1584281E-05 Eh
 * total energy  :  -165.2093050 Eh     change       -0.1595069E-05 Eh
 * total energy  :  -165.2093069 Eh     change       -0.1838653E-05 Eh
 * total energy  :  -165.2093320 Eh     change       -0.2417520E-06 Eh
 * total energy  :  -165.2093319 Eh     change        0.1082858E-06 Eh
 * total energy  :  -165.2093321 Eh     change       -0.1817060E-06 Eh
 * total energy  :  -165.2093323 Eh     change       -0.1797111E-06 Eh
 * total energy  :  -165.2093325 Eh     change       -0.2362025E-06 Eh
 * total energy  :  -165.2093328 Eh     change       -0.3414709E-06 Eh
 * total energy  :  -165.2093332 Eh     change       -0.3735113E-06 Eh
 * total energy  :  -165.2093334 Eh     change       -0.2099360E-06 Eh
 * total energy  :  -165.2093335 Eh     change       -0.9718335E-07 Eh
   *** GEOMETRY OPTIMIZATION CONVERGED AFTER 44 ITERATIONS ***

 final structure:
================
106
 xtb: 6.7.1 (edcfbbe)
O            0.00354091287470        4.52402647255939       -0.05088182630064
C           -0.00158168146470        3.25495683611287       -0.04011032635484
C           -1.26711907062973        2.54853706567184       -0.04051339069231
C           -1.43925306933522        1.25617507442037        0.48668463720287
C           -2.67805001680564        0.65869680364955        0.48982442257791
C           -3.78780891047655        1.33406235819162       -0.01697998563523
N           -5.06434853109665        0.70118744988129       -0.01694530828431
C           -5.97112388776494        1.01907018175228        0.97441107896989
C           -5.62536970668028        1.93545073407156        1.97597823259848
C           -6.52365203090545        2.26751071335366        2.96629332999412
C           -7.78580616208305        1.69297382666360        2.98745348775367
C           -8.13055367298105        0.77688992721191        2.01138080986208
C           -7.24091247457552        0.42845131573843        1.00637109808918
C           -7.66653070587092       -0.58881437302998       -0.02013323545221
C           -8.95465568055215       -0.15892887940910       -0.69945411102104
C           -9.17326992758726        0.95590886857716       -1.47726681635913
C          -10.44233390046230        1.15547868975456       -2.00462395330898
C          -11.46492051949957        0.25339950474634       -1.75381981184001
C          -11.24781563754338       -0.86989348272342       -0.97174726532304
C           -9.98424314211106       -1.07476889951667       -0.44307028865742
C           -9.45777692004068       -2.13900362429408        0.39828234063015
C          -10.06104782486189       -3.26882359303642        0.92520593369665
C           -9.30018401882828       -4.12266942727306        1.70789201122102
C           -7.96341766996207       -3.85580057231649        1.96106050731292
C           -7.35262522945265       -2.72478736532557        1.43550295582038
C           -8.10580879695206       -1.87484714833744        0.65709361239066
C           -6.59742376555463       -0.86495732980926       -1.04482363965798
C           -6.85742362894133       -1.78095411009860       -2.05293475629567
C           -5.91868366400517       -2.05811732347024       -3.02898424292057
C           -4.69783408585262       -1.40056139657596       -3.00508183669422
C           -4.41978955528146       -0.48752439541600       -2.01164945951541
C           -5.35913408425339       -0.21114653974232       -1.00982526042676
C           -3.64419018522098        2.63638872509611       -0.49870658360976
C           -2.41076751516542        3.23618645471409       -0.49797311182578
C            1.25807515039424        2.53811962486064       -0.02770996812009
C            1.41949641511297        1.23561745236174       -0.53296122830112
C            2.65367073758098        0.62857276359370       -0.52773579290811
C            3.76926851408799        1.30380743101040       -0.03362790665539
N            5.04290791939253        0.66496507183913       -0.02662430707104
C            5.94307910751536        0.95562386126871       -1.03222061435438
C            5.58476895369312        1.83264332894403       -2.06415254193398
C            6.47478901076101        2.13483347353927       -3.07132439807319
C            7.74094980782700        1.56880703060574       -3.07927049901419
C            8.09896001343715        0.69304062487779       -2.07145602547532
C            7.21776279067142        0.37504346434357       -1.04909294291633
C            7.66260446509726       -0.58691227730034        0.02151534983448
C            8.91051143939792       -0.06834979029770        0.71543887522172
C            9.05483222856278        1.08556299009849        1.45245344907005
C           10.29843688141244        1.36728884322063        2.00242822688590
C           11.36905188078410        0.50672388558018        1.81393615135942
C           11.22661527358875       -0.65561905337036        1.07287279816836
C            9.98887262945243       -0.94224612426947        0.52157072903596
C            9.53655578431225       -2.06240592157182       -0.28975760909147
C           10.20692936287003       -3.18122465286491       -0.75549897872954
C            9.50905424569228       -4.10064510601258       -1.52248180570483
C            8.16856634259750       -3.90878463891192       -1.82007317430299
C            7.49066670797437       -2.78915928371173       -1.35591771242847
C            8.18104549989843       -1.87404486598359       -0.59323250637829
C            6.58348351463872       -0.87179660743619        1.03335301119107
C            6.84425334250951       -1.77326990307253        2.05424130921033
C            5.89983775902172       -2.04936060304418        3.02512731195408
C            4.67289228678766       -1.40414411029259        2.98382939116478
C            4.39417372054354       -0.50509731838047        1.97789491403308
C            5.33890510080615       -0.23100889387330        0.98055043440894
C            3.63624082188249        2.61490895281182        0.42654991481997
C            2.40746212054762        3.22416621001471        0.41739509372015
H           -0.60379617454065        0.74028239462083        0.93434722802818
H           -2.80636765085602       -0.33403232790609        0.89832919274920
H           -4.64319413979816        2.38119825996714        1.96917109007099
H           -6.23696203904188        2.97750816154494        3.72714978293813
H           -8.49219124277811        1.95266062595918        3.76051916300050
H           -9.10797150752118        0.31686749624100        2.02351373185708
H           -8.37674903497080        1.65895257424857       -1.67335232318504
H          -10.63467743323427        2.02366963971392       -2.61736976875850
H          -12.44421868854720        0.42928558734067       -2.17445120181793
H          -12.04735489249038       -1.56981954095850       -0.77939782134181
H          -11.10200054543150       -3.48071022183628        0.73116901228180
H           -9.75424659047847       -5.00859584368457        2.12726639534098
H           -7.39026704527707       -4.53520174909201        2.57444034081298
H           -6.31110557464557       -2.51683718183113        1.63367733642948
H           -7.81534464199221       -2.28019553534084       -2.06781612488824
H           -6.13873543234001       -2.77514432475125       -3.80455496043361
H           -3.95901068512701       -1.59900994197413       -3.76680702041123
H           -3.47159447103699        0.02672685738271       -2.00264818463582
H           -4.51294909059265        3.16094129917910       -0.86968803423368
H           -2.28212271377985        4.24427166144619       -0.86105639832983
H            0.57952715937437        0.71873032086679       -0.97098511483751
H            2.77389637658730       -0.37159797590422       -0.92026654269062
H            4.59942424533761        2.27142664349359       -2.06727754301610
H            6.17852429904690        2.81471203502253       -3.85566021972958
H            8.44084757756875        1.80515936366912       -3.86561382330678
H            9.08071284191789        0.24218256434825       -2.07120748305628
H            8.22091364550465        1.75637343857744        1.60004754115467
H           10.43287801740263        2.26739163613143        2.58376122101784
H           12.32727575607097        0.74641439542194        2.25124626243377
H           12.06344906161817       -1.32280358595525        0.92888825786018
H           11.25102183305584       -3.33479773515072       -0.52655609160214
H           10.01587345642514       -4.97918473784090       -1.89425975103348
H            7.64522446951407       -4.63847399992092       -2.42005798045343
H            6.44622174277259       -2.63979681300301       -1.58844624296074
H            7.80751394361367       -2.26145354334367        2.08378736911966
H            6.12052532698459       -2.75533517012939        3.81059951205508
H            3.92974386725588       -1.60142456255706        3.74164412193680
H            3.44102410304142       -0.00053682336801        1.95516425899740
H            4.50955336943841        3.13907461863859        0.78721348616979
H            2.28720772491761        4.23916507765792        0.76370647980715

 projected vibrational frequencies (cm⁻¹)
eigval :       -0.00    -0.00    -0.00     0.00     0.00     0.00
eigval :        2.70     3.75     4.16     5.16    11.43    25.87
eigval :       27.87    36.89    43.23    43.53    44.98    46.17
eigval :       51.73    55.55    69.21    70.30    84.08    84.26
eigval :       87.24   108.98   109.42   111.13   121.30   138.82
eigval :      139.58   139.59   152.54   156.01   164.10   182.56
eigval :      196.01   211.30   236.86   237.58   238.18   241.09
eigval :      243.01   244.65   261.17   266.86   281.10   293.16
eigval :      293.19   308.68   334.24   342.02   373.21   381.97
eigval :      385.95   387.04   387.42   394.96   396.02   396.29
eigval :      401.52   404.48   412.43   412.73   424.03   424.66
eigval :      430.84   433.72   440.83   446.79   459.05   459.47
eigval :      460.22   460.27   478.14   491.18   502.33   502.43
eigval :      507.18   507.21   515.42   517.31   539.33   539.33
eigval :      542.74   561.51   587.24   587.26   589.92   591.39
eigval :      595.63   601.25   601.48   602.18   602.25   608.37
eigval :      609.13   618.08   629.95   658.52   669.35   670.83
eigval :      675.65   677.03   677.05   689.26   689.31   691.48
eigval :      693.55   698.51   719.38   729.82   729.84   751.02
eigval :      754.05   758.49   768.76   768.86   771.43   771.47
eigval :      776.66   776.70   785.94   785.95   796.86   810.77
eigval :      844.24   860.46   867.47   867.62   869.11   869.18
eigval :      877.97   877.98   878.63   878.64   881.53   891.33
eigval :      891.37   894.50   896.63   900.45   905.37   909.62
eigval :      909.75   910.06   910.10   910.21   911.68   911.71
eigval :      913.39   914.50   914.51   919.39   919.40   922.07
eigval :      922.11   922.80   922.84   927.18   927.19   927.81
eigval :      927.82   936.47   942.07   946.71   946.75  1002.51
eigval :     1004.24  1004.25  1008.93  1073.54  1073.55  1077.85
eigval :     1078.22  1087.21  1087.37  1101.42  1101.99  1103.25
eigval :     1103.35  1124.47  1125.97  1126.13  1130.77  1139.21
eigval :     1139.56  1142.16  1142.20  1159.47  1167.19  1175.78
eigval :     1175.82  1177.96  1178.05  1181.82  1181.91  1181.97
eigval :     1182.51  1185.69  1185.83  1187.83  1201.65  1202.61
eigval :     1202.72  1214.12  1228.34  1232.44  1232.53  1233.31
eigval :     1241.44  1244.28  1248.14  1253.88  1258.07  1258.15
eigval :     1259.86  1260.10  1263.22  1274.38  1274.40  1284.60
eigval :     1284.61  1309.47  1313.47  1317.73  1318.09  1326.17
eigval :     1326.18  1326.43  1328.00  1333.14  1333.19  1335.92
eigval :     1336.01  1367.67  1367.70  1404.58  1405.84  1424.73
eigval :     1425.66  1426.85  1428.76  1429.28  1429.70  1429.72
eigval :     1434.28  1437.70  1442.99  1456.08  1460.24  1460.33
eigval :     1460.89  1460.90  1472.05  1472.14  1476.94  1480.00
eigval :     1490.82  1493.81  1549.87  1558.37  1558.42  1571.31
eigval :     1572.35  1579.86  1579.88  1586.21  1586.22  1587.49
eigval :     1592.03  1592.45  1597.30  1597.40  1601.95  1602.04
eigval :     1604.06  1604.06  3068.94  3069.58  3074.72  3074.81
eigval :     3075.42  3075.45  3076.32  3076.38  3077.74  3077.77
eigval :     3078.96  3078.98  3082.93  3082.95  3083.15  3083.24
eigval :     3085.72  3085.74  3087.12  3087.17  3087.97  3088.00
eigval :     3088.71  3088.80  3091.09  3093.46  3093.52  3093.61
eigval :     3094.47  3094.84  3099.94  3100.00  3100.25  3100.43
eigval :     3100.48  3100.65  3106.80  3107.45  3108.71  3108.98

   temp. (K)  partition function   enthalpy   heat capacity  entropy
                                   cal/mol     cal/K/mol   cal/K/mol   J/K/mol
 298.15  VIB  0.152E+27            30438.474    193.132    194.005
         ROT  0.263E+09              888.752      2.981     41.511
         INT  0.400E+35            31327.227    196.113    235.516
         TR   0.236E+29             1481.254      4.968     46.044
         TOT                       32808.4805   201.0814   281.5607  1178.0499

       T/K    H(0)-H(T)+PV         H(T)/Eh          T*S/Eh         G(T)/Eh
   ------------------------------------------------------------------------
    298.15    0.522836E-01    0.863373E+00    0.133779E+00    0.729595E+00
   ------------------------------------------------------------------------

         :::::::::::::::::::::::::::::::::::::::::::::::::::::
         ::                  THERMODYNAMIC                  ::
         :::::::::::::::::::::::::::::::::::::::::::::::::::::
         :: total free energy        -164.479738727852 Eh   ::
         ::.................................................::
         :: total energy             -165.209333535664 Eh   ::
         :: zero point energy           0.811089731988 Eh   ::
         :: G(RRHO) w/o ZPVE           -0.081494924176 Eh   ::
         :: G(RRHO) contrib.            0.729594807812 Eh   ::
         :::::::::::::::::::::::::::::::::::::::::::::::::::::

           -------------------------------------------------
          | TOTAL ENERGY             -165.209333535664 Eh   |
          | TOTAL ENTHALPY           -164.345960162053 Eh   |
          | TOTAL FREE ENERGY        -164.479738727852 Eh   |
          | GRADIENT NORM               0.000089218557 Eh/α |
           -------------------------------------------------

 * finished run on 2025/07/18 at 20:58:37.902
