   * xtb version 6.7.1 (edcfbbe) compiled by 'albert@albert-system' on 2024-07-22

   ID    Z sym.   atoms
    1    8 O      1
    2    6 C      2-6, 8-38, 40-66
    3    7 N      7, 39
    4    1 H      67-106

          program call               : xtb data2507/gas/SFAC-BP-SFAC/SFAC-BP-SFAC_gas_S0_finalOpt.xtbopt.xyz --gfn 2 --spinpol --tblite --uhf 2 --ohess vtight --parallel 40 --molden --ceasefiles --namespace data2507/gas/SFAC-BP-SFAC/SFAC-BP-SFAC_gas_T1_preOpt
 * total energy  :  -165.2023865 Eh     change        0.1066070E-08 Eh
 * total energy  :  -165.2063121 Eh     change       -0.3925637E-02 Eh
 * total energy  :  -165.2073747 Eh     change       -0.1062532E-02 Eh
 * total energy  :  -165.2075912 Eh     change       -0.2165250E-03 Eh
 * total energy  :  -165.2078179 Eh     change       -0.2266933E-03 Eh
 * total energy  :  -165.2080318 Eh     change       -0.2139488E-03 Eh
 * total energy  :  -165.2082781 Eh     change       -0.2462351E-03 Eh
 * total energy  :  -165.2084685 Eh     change       -0.1904390E-03 Eh
 * total energy  :  -165.2085686 Eh     change       -0.1001180E-03 Eh
 * total energy  :  -165.2086413 Eh     change       -0.7263215E-04 Eh
 * total energy  :  -165.2092952 Eh     change       -0.1282761E-05 Eh
 * total energy  :  -165.2092968 Eh     change       -0.1528654E-05 Eh
 * total energy  :  -165.2092980 Eh     change       -0.1291231E-05 Eh
 * total energy  :  -165.2092986 Eh     change       -0.5864882E-06 Eh
 * total energy  :  -165.2092994 Eh     change       -0.7774038E-06 Eh
 * total energy  :  -165.2092999 Eh     change       -0.5392623E-06 Eh
 * total energy  :  -165.2093004 Eh     change       -0.4022890E-06 Eh
 * total energy  :  -165.2093011 Eh     change       -0.7267695E-06 Eh
 * total energy  :  -165.2093011 Eh     change       -0.5947851E-07 Eh
   *** GEOMETRY OPTIMIZATION CONVERGED AFTER 94 ITERATIONS ***

 final structure:
================
106
 xtb: 6.7.1 (edcfbbe)
O            0.04481295893742        4.54402015582547        0.75975564807521
C            0.02976516460297        3.29695555874910        0.52466093111842
C           -1.23787131828503        2.61139559858122        0.37948968264240
C           -1.41578126937689        1.23733063232905        0.62092643596257
C           -2.65978418761821        0.66075723320993        0.51210303152039
C           -3.76875833289254        1.43526767484153        0.17515464829241
N           -5.05187117904276        0.82245685117670        0.06895433934494
C           -5.87777348640406        0.80261270673155        1.17429504977197
C           -5.46450273618948        1.40319418505262        2.37038469679691
C           -6.28133737509969        1.39540616167635        3.47968130254373
C           -7.52731031105535        0.78839131213698        3.42662500002220
C           -7.94060937945817        0.18778401369240        2.25209776598731
C           -7.13417300044687        0.18513590755028        1.12408868427101
C           -7.62760631672072       -0.50210076361609       -0.12270575443121
C           -9.00992349624847       -0.00468057350117       -0.50296041254265
C           -9.38329750625538        1.26977402498701       -0.86650747832076
C          -10.71644594273777        1.50522723323807       -1.17601822514231
C          -11.64947272630345        0.48114640247876       -1.12045432715472
C          -11.27692577606680       -0.80267110738017       -0.75484509717803
C           -9.94887560491653       -1.04391185016928       -0.44470149337544
C           -9.26612079742562       -2.26147148420498       -0.03360307896691
C           -9.73744619780948       -3.54749268766820        0.17158075452307
C           -8.84101431507130       -4.52657664120112        0.56944876438177
C           -7.50002738900678       -4.23010742107286        0.75941068843383
C           -7.02118451008040       -2.94267402648404        0.55541735833691
C           -7.90950012448734       -1.96794165396040        0.16012192109800
C           -6.67158402759313       -0.36710302378823       -1.27925320111437
C           -7.02457319037130       -0.90341942131495       -2.50823355407106
C           -6.17856719448615       -0.81500417458180       -3.59801585336323
C           -4.95436431523011       -0.17773836152417       -3.46038326681273
C           -4.58450666455337        0.36128065250376       -2.24774076369437
C           -5.43442832126748        0.27453139238051       -1.13771710577854
C           -3.61899764385140        2.80836771978382       -0.02549802812920
C           -2.37995383383729        3.38607205057578        0.08488948209660
C            1.28716857157207        2.58248021732300        0.41287509653529
C            1.45420943186418        1.41053257754126       -0.34582944306858
C            2.68296422062561        0.79790177584685       -0.42897164720153
C            3.78756703380597        1.34148446381250        0.22569601830497
N            5.05004196952867        0.68584842971319        0.14706856104137
C            6.00165811340911        1.16010774880838       -0.73359681745743
C            5.72012078577310        2.26762041586166       -1.54380647451283
C            6.66453664457404        2.75703351283333       -2.41933355493625
C            7.90987822878682        2.15397553448863       -2.51411538769209
C            8.19085388581663        1.05086244566547       -1.72988621552760
C            7.25423369819098        0.54243231488432       -0.84268958796912
C            7.60856992091506       -0.67691056175100       -0.03201498753066
C            8.90175564779806       -0.46011707227938        0.73289883355731
C            9.16043207298584        0.46629281397715        1.71807251760846
C           10.42582660910725        0.48755612480203        2.28975993665063
C           11.40544481448885       -0.40324249210208        1.87844937849441
C           11.14813004409549       -1.33698670712146        0.88723317428825
C            9.88809692507677       -1.36321172763818        0.31302084400400
C            9.32648746216151       -2.21015106521672       -0.72856148227478
C            9.88231762024580       -3.24557582781921       -1.46137936830393
C            9.09631060039757       -3.88520715526921       -2.40667855106067
C            7.78123562368669       -3.50033662545983       -2.61810146763036
C            7.21797746582188       -2.46308660396601       -1.88645015942861
C            7.99628989735174       -1.82601115175681       -0.94627836377602
C            6.50453462885439       -1.09527797426132        0.90366307020904
C            6.70737352611177       -2.18925335801950        1.73133845588266
C            5.73249488428490       -2.60825375481877        2.61718406295670
C            4.53271089886021       -1.91604249308125        2.68576076745719
C            4.31129477601147       -0.82716837977315        1.87139295386353
C            5.28769612151355       -0.40394740544921        0.96037110695089
C            3.65133744106108        2.53460026679395        0.93745330041292
C            2.42809853921188        3.15008744201503        1.01723515284217
H           -0.58113262548603        0.63219262834704        0.93957873624130
H           -2.79258785270216       -0.39499011000566        0.70323801883334
H           -4.49570033173937        1.87517573327217        2.41756093524982
H           -5.94411739107926        1.86514205795794        4.39118529186119
H           -8.16927261421305        0.78095284209559        4.29374976934645
H           -8.90714656246351       -0.29224026703002        2.20214177717611
H           -8.65662327078453        2.06800979690318       -0.90979503458547
H          -11.02990202740927        2.49794055364481       -1.46319147974105
H          -12.68105481717562        0.68771996237958       -1.36551812819246
H          -12.00726957584243       -1.59701539400976       -0.71277528684195
H          -10.78100990027631       -3.78337796593103        0.02509001320997
H           -9.19108357713959       -5.53514090813641        0.73426323203642
H           -6.81972966496963       -5.00933383358947        1.06981119019113
H           -5.97615581909880       -2.71210102860475        0.70393496060494
H           -7.98026889493736       -1.39769690031851       -2.60536425611554
H           -6.47094891057921       -1.23841739911744       -4.54634989281024
H           -4.28500823942699       -0.09955398936274       -4.30375793342214
H           -3.63305686619952        0.85946399875685       -2.14524890561215
H           -4.48727604341145        3.40489639317731       -0.26575243946804
H           -2.24606664659032        4.44722113631402       -0.05913149943194
H            0.62438105341715        1.00642438311494       -0.90494265036979
H            2.80724103908242       -0.10320817168192       -1.01326377922476
H            4.75122777162323        2.73729290971042       -1.47994529547907
H            6.42719147086186        3.61298613825919       -3.03269130772617
H            8.65225504981746        2.53630042767076       -3.19731112875530
H            9.15408557101989        0.56720788654319       -1.80329068948934
H            8.39729058128623        1.16021998370615        2.03937319896704
H           10.64912897977877        1.20645548269136        3.06405433982607
H           12.38259009967475       -0.36839209635672        2.33765511424569
H           11.91425437249545       -2.02892532136200        0.57032048155680
H           10.90623510327470       -3.54866988808865       -1.30056623678596
H            9.51333715380207       -4.69487515772335       -2.98757956131819
H            7.18775932592844       -4.01296378042867       -3.36061518067785
H            6.19332528792824       -2.16318460185878       -2.05210284310792
H            7.64897669253780       -2.71592619368388        1.67610371057760
H            5.90825433818669       -3.46259186254320        3.25221600719245
H            3.76601040998326       -2.22531679922475        3.38001047956309
H            3.37932821954118       -0.28777943551435        1.93527733933607
H            4.51695592090443        2.96190418833046        1.42287440421346
H            2.30517732612932        4.07488965611733        1.55966368051780

 projected vibrational frequencies (cm⁻¹)
eigval :       -0.00    -0.00    -0.00     0.00     0.00     0.00
eigval :        2.37     3.17     4.08     5.81    11.77    23.86
eigval :       26.97    36.62    43.09    43.56    44.79    45.54
eigval :       51.56    54.89    69.19    70.65    84.13    84.32
eigval :       87.06   108.65   109.44   110.21   120.75   139.57
eigval :      139.63   139.97   151.96   156.91   162.59   181.52
eigval :      195.34   211.36   236.83   237.05   238.69   241.22
eigval :      242.30   244.74   262.16   266.81   280.96   293.14
eigval :      293.23   307.95   334.94   342.22   372.92   381.45
eigval :      385.92   387.07   388.52   394.42   395.30   397.28
eigval :      401.53   404.31   412.39   412.77   423.97   424.42
eigval :      430.82   435.30   440.49   445.43   458.51   459.84
eigval :      460.10   460.36   478.62   491.37   502.35   502.42
eigval :      507.15   507.22   515.52   517.02   539.36   539.37
eigval :      543.11   561.45   587.20   587.24   590.25   591.49
eigval :      595.75   600.93   601.46   602.10   602.59   608.01
eigval :      609.05   618.04   629.63   658.82   669.49   671.06
eigval :      675.59   676.88   677.02   689.28   689.36   691.66
eigval :      693.71   698.49   719.88   729.83   729.84   751.33
eigval :      754.32   758.51   768.84   768.94   771.43   771.51
eigval :      776.68   776.75   786.02   786.03   796.47   810.76
eigval :      844.14   859.88   867.58   867.65   869.01   869.27
eigval :      877.94   878.01   878.73   878.80   881.58   891.44
eigval :      891.47   894.17   896.66   900.01   905.44   909.52
eigval :      909.71   910.13   910.24   910.31   911.69   911.74
eigval :      913.48   914.54   914.60   919.48   919.51   922.13
eigval :      922.20   922.69   922.86   927.22   927.26   927.93
eigval :      927.95   936.54   942.34   946.70   946.75  1002.44
eigval :     1004.29  1004.34  1008.88  1073.83  1073.91  1078.57
eigval :     1078.81  1087.67  1087.73  1100.78  1101.59  1102.60
eigval :     1103.37  1124.46  1126.06  1126.11  1130.80  1139.78
eigval :     1140.31  1142.40  1142.44  1159.08  1166.84  1175.83
eigval :     1175.88  1178.03  1178.08  1181.42  1181.68  1181.94
eigval :     1182.23  1185.32  1185.82  1188.11  1201.03  1202.60
eigval :     1202.81  1214.18  1228.23  1231.93  1232.62  1233.18
eigval :     1241.54  1244.49  1247.79  1253.70  1258.01  1258.16
eigval :     1260.50  1260.96  1263.18  1273.97  1274.35  1284.48
eigval :     1284.64  1310.01  1313.85  1317.52  1319.58  1325.42
eigval :     1326.16  1326.16  1327.49  1333.08  1333.42  1335.93
eigval :     1336.09  1367.60  1367.73  1404.04  1405.44  1424.34
eigval :     1425.76  1427.96  1428.62  1429.19  1429.24  1429.28
eigval :     1434.46  1437.12  1443.20  1456.88  1460.04  1460.41
eigval :     1460.62  1460.75  1472.21  1472.41  1476.34  1479.13
eigval :     1491.26  1493.95  1550.92  1558.36  1558.50  1571.73
eigval :     1572.64  1579.71  1579.82  1585.98  1585.99  1587.32
eigval :     1592.09  1592.49  1597.14  1597.14  1601.85  1601.94
eigval :     1603.83  1603.85  3069.13  3069.76  3074.41  3074.51
eigval :     3075.31  3075.39  3076.42  3076.54  3077.63  3077.65
eigval :     3078.84  3078.94  3082.79  3082.87  3082.99  3083.17
eigval :     3085.40  3085.45  3087.07  3087.10  3087.69  3087.75
eigval :     3088.47  3088.53  3091.32  3093.28  3093.30  3094.02
eigval :     3094.63  3094.95  3099.59  3099.87  3099.99  3100.27
eigval :     3100.49  3100.69  3105.60  3107.18  3108.21  3108.74

   temp. (K)  partition function   enthalpy   heat capacity  entropy
                                   cal/mol     cal/K/mol   cal/K/mol   J/K/mol
 298.15  VIB  0.210E+27            30447.685    193.065    194.282
         ROT  0.263E+09              888.752      2.981     41.511
         INT  0.553E+35            31336.438    196.046    235.793
         TR   0.236E+29             1481.254      4.968     46.044
         TOT                       32817.6916   201.0144   281.8379  1179.2098

       T/K    H(0)-H(T)+PV         H(T)/Eh          T*S/Eh         G(T)/Eh
   ------------------------------------------------------------------------
    298.15    0.522983E-01    0.863365E+00    0.133910E+00    0.729454E+00
   ------------------------------------------------------------------------

         :::::::::::::::::::::::::::::::::::::::::::::::::::::
         ::                  THERMODYNAMIC                  ::
         :::::::::::::::::::::::::::::::::::::::::::::::::::::
         :: total free energy        -164.479846870999 Eh   ::
         ::.................................................::
         :: total energy             -165.209301149595 Eh   ::
         :: zero point energy           0.811066236905 Eh   ::
         :: G(RRHO) w/o ZPVE           -0.081611958309 Eh   ::
         :: G(RRHO) contrib.            0.729454278597 Eh   ::
         :::::::::::::::::::::::::::::::::::::::::::::::::::::

           -------------------------------------------------
          | TOTAL ENERGY             -165.209301149595 Eh   |
          | TOTAL ENTHALPY           -164.345936592156 Eh   |
          | TOTAL FREE ENERGY        -164.479846870999 Eh   |
          | GRADIENT NORM               0.000081517806 Eh/α |
           -------------------------------------------------

 * finished run on 2025/07/18 at 20:40:37.772
