   * xtb version 6.7.1 (edcfbbe) compiled by 'albert@albert-system' on 2024-07-22

   ID    Z sym.   atoms
    1    8 O      1
    2    6 C      2-6, 8-38, 40-66
    3    7 N      7, 39
    4    1 H      67-106

          program call               : xtb data2507/gas/SFAC-BP-SFAC/SFAC-BP-SFAC_gas_S0_crest.xyz --gfn 2 --ohess vtight --parallel 40 --molden --ceasefiles --namespace data2507/gas/SFAC-BP-SFAC/SFAC-BP-SFAC_gas_S0_finalOpt
          :  Hamiltonian                  GFN2-xTB          :
 * total energy  :  -165.2832829 Eh     change       -0.4838284E-08 Eh
 * total energy  :  -165.2832849 Eh     change       -0.1903967E-05 Eh
 * total energy  :  -165.2832871 Eh     change       -0.2238193E-05 Eh
 * total energy  :  -165.2832884 Eh     change       -0.1302479E-05 Eh
 * total energy  :  -165.2832911 Eh     change       -0.2673372E-05 Eh
 * total energy  :  -165.2832935 Eh     change       -0.2415818E-05 Eh
 * total energy  :  -165.2832951 Eh     change       -0.1623558E-05 Eh
 * total energy  :  -165.2832971 Eh     change       -0.2019024E-05 Eh
 * total energy  :  -165.2832996 Eh     change       -0.2501092E-05 Eh
 * total energy  :  -165.2833018 Eh     change       -0.2175112E-05 Eh
 * total energy  :  -165.2833298 Eh     change       -0.3511364E-06 Eh
 * total energy  :  -165.2833304 Eh     change       -0.6042464E-06 Eh
 * total energy  :  -165.2833312 Eh     change       -0.7866768E-06 Eh
 * total energy  :  -165.2833320 Eh     change       -0.7591215E-06 Eh
 * total energy  :  -165.2833327 Eh     change       -0.7463163E-06 Eh
 * total energy  :  -165.2833336 Eh     change       -0.9229467E-06 Eh
 * total energy  :  -165.2833348 Eh     change       -0.1147705E-05 Eh
 * total energy  :  -165.2833358 Eh     change       -0.1049812E-05 Eh
 * total energy  :  -165.2833358 Eh     change       -0.6814673E-08 Eh
   *** GEOMETRY OPTIMIZATION CONVERGED AFTER 44 ITERATIONS ***

 final structure:
================
106
 xtb: 6.7.1 (edcfbbe)
O            0.00059904248935        4.85490844868281       -0.05876997688178
C            0.00774790929189        3.64064122627000       -0.02283430129945
C           -1.25326090867447        2.85614040560287       -0.01330561787291
C           -1.37416400114770        1.66110197583657        0.69375116416285
C           -2.57463347500961        0.97889103558418        0.70459429598296
C           -3.66949632780109        1.47714436324031        0.00391661684708
N           -4.89637895982502        0.76982853629298        0.00457017868281
C           -5.65376542531409        0.72495879953366        1.16933596892745
C           -5.22735629033397        1.39675088857381        2.31815705720867
C           -5.96811930609392        1.35087890862872        3.48154368057937
C           -7.15627688275549        0.64236625529487        3.52550832713890
C           -7.59993022072361        0.00138222513102        2.38446935143834
C           -6.86924548693151        0.03765574266145        1.20603427728012
C           -7.43815138761782       -0.64395707440155       -0.01412110416156
C           -8.80931808931496       -0.08136719106231       -0.33794259221639
C           -9.13863518446879        1.20855626618196       -0.68960753732029
C          -10.47085334285865        1.50625492732600       -0.94359024686244
C          -11.44772758054194        0.52726542517057       -0.84503288996239
C          -11.12040489732021       -0.77193583966613       -0.49083776456382
C           -9.79316143263734       -1.07468757015003       -0.23650833482705
C           -9.15138811872308       -2.32263260750144        0.14918661054533
C           -9.67414900503517       -3.58458301919275        0.37748659171652
C           -8.80880936770211       -4.60515660063029        0.73836012552947
C           -7.44824883941612       -4.37238095080870        0.86885615475059
C           -6.91854781039096       -3.10911569645913        0.64151300784817
C           -7.77503508581119       -2.09208290487517        0.28342036993407
C           -6.52711549819491       -0.54659962272506       -1.21267716962283
C           -6.91474395602601       -1.16716679792437       -2.39096575795711
C           -6.11441068298191       -1.13596225358673       -3.51717698202124
C           -4.89402020194228       -0.48572483199000       -3.45875299331063
C           -4.49256837466486        0.13772376182095       -2.29495391541834
C           -5.30913909594366        0.13525052787907       -1.16070666331306
C           -3.55672390325955        2.67694944415944       -0.69280921373241
C           -2.36077035632343        3.36452938426125       -0.69006173269302
C            1.27738256456281        2.87235438515080        0.00999276885045
C            1.39901228134376        1.61664335406231       -0.58344148761658
C            2.61036000189545        0.95500223803608       -0.56567104679827
C            3.71680058100860        1.53275757633718        0.05118732075166
N            4.95191388987478        0.84193225137556        0.07198822464560
C            6.01235406448031        1.31814593387673       -0.69148564273254
C            5.86193275398869        2.46127161872877       -1.48101214783551
C            6.91210161574143        2.94546236240486       -2.23404984033252
C            8.13453647388411        2.29653511395276       -2.22658158045347
C            8.28090227209939        1.14663280797257       -1.47437972482439
C            7.23622555854713        0.64503074376211       -0.71207552753514
C            7.44911806653654       -0.64739701106742        0.03729345920889
C            8.70854566015466       -0.58658593922777        0.87853174359708
C            8.98603314364922        0.25013345823377        1.93645115614809
C           10.21706763063789        0.13359530416651        2.56822892215074
C           11.14637009842551       -0.80394786830757        2.14414021680862
C           10.87097036894405       -1.64832535576214        1.08026012599927
C            9.64478781992401       -1.53657172869190        0.44630388914654
C            9.07669439263892       -2.26680466921307       -0.67705602116190
C            9.58997800700952       -3.29471064770911       -1.45026275342365
C            8.80929930637323       -3.80756814814736       -2.47397676489096
C            7.54120844843322       -3.30516997853519       -2.72269387532000
C            7.02158319173283       -2.27446951735214       -1.95094671607559
C            7.79406211438703       -1.76260473548563       -0.93249859102301
C            6.25887609495008       -1.03297738530141        0.87999309118472
C            6.35287798530588       -2.15833874414728        1.68523662587547
C            5.30206986170484       -2.55685601589125        2.48950692921411
C            4.13982966619649       -1.80544329689936        2.50135793748720
C            4.02890443409565       -0.68282352799413        1.70658329735930
C            5.07642654730800       -0.28957173977552        0.86910774941672
C            3.60201641229852        2.79049416345560        0.63768822990448
C            2.39491253267142        3.45695457093642        0.60475654192390
H           -0.53351918776971        1.27639560761994        1.25211247466145
H           -2.67548516077489        0.05563515496245        1.25596321521431
H           -4.31202539801276        1.96802388950563        2.29720552983164
H           -5.61397970750153        1.87683348537158        4.35558906395025
H           -7.73720934300117        0.60012780321469        4.43368202685946
H           -8.53590168040153       -0.53801794859364        2.39821298491013
H           -8.37765771351180        1.97191337706657       -0.76508321119794
H          -10.74974756853078        2.51224450258743       -1.22082618958803
H          -12.47809642682838        0.78179469283924       -1.04690206612648
H          -11.88513764220575       -1.53077397040381       -0.41478188032743
H          -10.73314450234629       -3.77096635543727        0.27652921468662
H           -9.19881050537361       -5.59612971036729        0.92026871307305
H           -6.79285935512385       -5.18347569360560        1.15049819432668
H           -5.85810277451001       -2.92806891234640        0.74248840785199
H           -7.86262863796655       -1.68484169949278       -2.41714720939814
H           -6.43485810910280       -1.62165439005378       -4.42571994123108
H           -4.24535139346036       -0.46476948038044       -4.32185811221825
H           -3.53159898224708        0.62807267383199       -2.26229594688941
H           -4.41236688831746        3.06152443773559       -1.22765682691569
H           -2.26216789035498        4.30341798336683       -1.21385853332533
H            0.55269538883754        1.17145699352993       -1.08527598463863
H            2.71169766539248       -0.01509240590374       -1.02949266540898
H            4.91164369962387        2.97142418361435       -1.51270206516414
H            6.76915883106335        3.83305375681416       -2.83205576536818
H            8.96000365694574        2.67328117307440       -2.81025967227254
H            9.22231596976482        0.61664758307865       -1.47709456031938
H            8.26184756121655        0.98055145085480        2.26729215602795
H           10.45387008591519        0.78103376674668        3.39972322611668
H           12.09795931095053       -0.87654942281333        2.65050308067471
H           11.59794628762214       -2.37715112728686        0.75354459940056
H           10.57735664385152       -3.68916615507391       -1.26084410916536
H            9.19331776932547       -4.60970012198267       -3.08742475494629
H            6.95094417544599       -3.72050352282646       -3.52633483431532
H            6.03379774515599       -1.88220525761031       -2.14596682267137
H            7.27137966416430       -2.72700918760840        1.67695862444006
H            5.39288345052830       -3.43743669708220        3.10625218785367
H            3.31356148209311       -2.08921699166438        3.13614209541940
H            3.12227659848615       -0.09811863604995        1.74038835046349
H            4.46474249391954        3.23601013820261        1.11023303049838
H            2.29158588943705        4.43574491615049        1.04858758767626

          :  Hamiltonian                  GFN2-xTB          :
         :: gradient norm              0.000060762593 Eh/a0 ::
         :: HOMO-LUMO gap              1.514431622943 eV    ::
         :: SCC energy              -168.390590595103 Eh    ::
         :: -> dispersion             -0.165506823935 Eh    ::
         :: repulsion energy           3.107254745980 Eh    ::

    * Orbital Energies and Occupations

         #    Occupation            Energy/Eh            Energy/eV
      -------------------------------------------------------------
         1        2.0000           -0.7105992             -19.3364
       ...           ...                  ...                  ...
       142        2.0000           -0.4084072             -11.1133
       143        2.0000           -0.4081048             -11.1051
       144        2.0000           -0.3983784             -10.8404
       145        2.0000           -0.3980530             -10.8316
       146        2.0000           -0.3973608             -10.8127
       147        2.0000           -0.3959786             -10.7751
       148        2.0000           -0.3956419             -10.7660
       149        2.0000           -0.3938654             -10.7176
       150        2.0000           -0.3935835             -10.7100
       151        2.0000           -0.3793214             -10.3219
       152        2.0000           -0.3790165             -10.3136
       153        2.0000           -0.3521191              -9.5816
       154        2.0000           -0.3515270              -9.5655 (HOMO)
       155                         -0.2958727              -8.0511 (LUMO)
       156                         -0.2517349              -6.8501
       157                         -0.2514958              -6.8436
       158                         -0.2513968              -6.8409
       159                         -0.2479578              -6.7473
       160                         -0.2450771              -6.6689
       161                         -0.2327051              -6.3322
       162                         -0.2323537              -6.3227
       163                         -0.2250669              -6.1244
       164                         -0.2248144              -6.1175
       165                         -0.2245545              -6.1104
       ...                                ...                  ...
       304                          0.7301672              19.8689
      -------------------------------------------------------------
                  HL-Gap            0.0556543 Eh            1.5144 eV

     #   Z          covCN         q      C6AA      α(0)
     1   8 O        0.858    -0.366    21.019     6.147
     2   6 C        2.828     0.226    23.256     7.902
     3   6 C        2.972    -0.014    28.350     8.734
     4   6 C        2.920    -0.027    28.670     8.781
     5   6 C        2.920    -0.038    28.942     8.822
     6   6 C        2.928     0.075    26.316     8.413
     7   7 N        2.753    -0.069    22.575     7.057
     8   6 C        2.925     0.058    26.689     8.472
     9   6 C        2.924    -0.058    29.439     8.898
    10   6 C        2.920    -0.032    28.795     8.800
    11   6 C        2.917    -0.042    29.035     8.836
    12   6 C        2.927    -0.034    28.855     8.809
    13   6 C        2.984    -0.007    28.185     8.709
    14   6 C        3.950     0.012    20.311     6.404
    15   6 C        3.059     0.003    27.907     8.663
    16   6 C        2.914    -0.032    28.799     8.800
    17   6 C        2.923    -0.031    28.785     8.798
    18   6 C        2.921    -0.032    28.805     8.801
    19   6 C        2.915    -0.034    28.847     8.807
    20   6 C        3.034     0.001    27.962     8.673
    21   6 C        3.035     0.002    27.960     8.673
    22   6 C        2.915    -0.034    28.850     8.808
    23   6 C        2.921    -0.032    28.806     8.802
    24   6 C        2.923    -0.032    28.790     8.799
    25   6 C        2.914    -0.032    28.800     8.800
    26   6 C        3.059     0.003    27.909     8.664
    27   6 C        2.983    -0.007    28.181     8.708
    28   6 C        2.927    -0.034    28.852     8.809
    29   6 C        2.917    -0.042    29.038     8.837
    30   6 C        2.920    -0.032    28.801     8.801
    31   6 C        2.924    -0.058    29.442     8.898
    32   6 C        2.925     0.059    26.688     8.472
    33   6 C        2.920    -0.037    28.909     8.817
    34   6 C        2.924    -0.018    28.456     8.748
    35   6 C        2.972    -0.014    28.363     8.736
    36   6 C        2.920    -0.027    28.672     8.781
    37   6 C        2.921    -0.038    28.935     8.821
    38   6 C        2.927     0.076    26.313     8.412
    39   7 N        2.752    -0.069    22.569     7.056
    40   6 C        2.924     0.058    26.692     8.473
    41   6 C        2.924    -0.058    29.439     8.898
    42   6 C        2.920    -0.032    28.791     8.799
    43   6 C        2.917    -0.041    29.030     8.835
    44   6 C        2.927    -0.034    28.856     8.809
    45   6 C        2.984    -0.007    28.184     8.708
    46   6 C        3.950     0.012    20.311     6.404
    47   6 C        3.058     0.003    27.909     8.664
    48   6 C        2.914    -0.032    28.795     8.799
    49   6 C        2.923    -0.031    28.785     8.798
    50   6 C        2.921    -0.032    28.805     8.801
    51   6 C        2.915    -0.034    28.851     8.808
    52   6 C        3.035     0.001    27.963     8.674
    53   6 C        3.034     0.002    27.958     8.673
    54   6 C        2.915    -0.034    28.845     8.807
    55   6 C        2.921    -0.032    28.806     8.801
    56   6 C        2.923    -0.032    28.789     8.799
    57   6 C        2.914    -0.032    28.804     8.801
    58   6 C        3.060     0.003    27.908     8.663
    59   6 C        2.984    -0.007    28.177     8.707
    60   6 C        2.926    -0.034    28.853     8.809
    61   6 C        2.917    -0.042    29.037     8.836
    62   6 C        2.920    -0.032    28.803     8.801
    63   6 C        2.924    -0.058    29.438     8.898
    64   6 C        2.925     0.059    26.688     8.472
    65   6 C        2.919    -0.037    28.922     8.819
    66   6 C        2.924    -0.018    28.454     8.748
    67   1 H        0.926     0.042     2.426     2.436
    68   1 H        0.926     0.047     2.359     2.402
    69   1 H        0.926     0.027     2.633     2.538
    70   1 H        0.926     0.031     2.573     2.509
    71   1 H        0.926     0.030     2.587     2.515
    72   1 H        0.926     0.030     2.581     2.512
    73   1 H        0.926     0.025     2.657     2.549
    74   1 H        0.926     0.030     2.580     2.512
    75   1 H        0.926     0.030     2.582     2.513
    76   1 H        0.926     0.031     2.575     2.509
    77   1 H        0.926     0.031     2.575     2.509
    78   1 H        0.926     0.030     2.585     2.514
    79   1 H        0.926     0.030     2.588     2.516
    80   1 H        0.926     0.025     2.665     2.553
    81   1 H        0.926     0.031     2.578     2.511
    82   1 H        0.926     0.030     2.588     2.516
    83   1 H        0.926     0.030     2.584     2.514
    84   1 H        0.926     0.024     2.670     2.555
    85   1 H        0.926     0.049     2.330     2.387
    86   1 H        0.926     0.061     2.189     2.314
    87   1 H        0.926     0.042     2.420     2.433
    88   1 H        0.926     0.046     2.365     2.405
    89   1 H        0.926     0.028     2.613     2.528
    90   1 H        0.926     0.032     2.562     2.503
    91   1 H        0.926     0.030     2.584     2.514
    92   1 H        0.926     0.030     2.580     2.512
    93   1 H        0.926     0.025     2.652     2.547
    94   1 H        0.926     0.030     2.581     2.512
    95   1 H        0.926     0.030     2.584     2.514
    96   1 H        0.926     0.031     2.577     2.510
    97   1 H        0.926     0.031     2.571     2.508
    98   1 H        0.926     0.030     2.582     2.513
    99   1 H        0.926     0.030     2.587     2.515
   100   1 H        0.926     0.024     2.672     2.556
   101   1 H        0.926     0.031     2.576     2.510
   102   1 H        0.926     0.030     2.587     2.515
   103   1 H        0.926     0.030     2.589     2.516
   104   1 H        0.926     0.024     2.677     2.559
   105   1 H        0.926     0.050     2.324     2.384
   106   1 H        0.926     0.062     2.179     2.308

molecular dipole:
                 x           y           z       tot (Debye)
 q only:        0.055      -0.774       0.021
   full:        0.052      -0.910       0.022       2.316

 projected vibrational frequencies (cm⁻¹)
eigval :       -0.00    -0.00     0.00     0.00     0.00     0.00
eigval :        2.75     3.48     6.09     6.69    10.40    28.43
eigval :       30.91    35.21    41.08    43.09    43.80    48.62
eigval :       51.66    56.11    68.86    69.64    79.99    84.31
eigval :       84.50   111.33   113.40   115.74   118.16   139.17
eigval :      140.52   140.54   151.64   155.87   162.99   184.20
eigval :      191.22   201.06   236.00   237.92   239.54   241.64
eigval :      245.96   246.93   262.07   267.42   284.16   292.46
eigval :      294.60   294.75   327.76   347.73   370.08   377.30
eigval :      384.98   386.12   388.48   388.86   396.54   397.90
eigval :      402.34   402.70   413.34   414.20   425.34   425.84
eigval :      432.67   436.39   444.33   450.15   461.56   462.57
eigval :      463.49   466.09   498.19   499.74   502.20   503.08
eigval :      505.78   506.48   512.90   512.97   540.19   540.22
eigval :      557.71   587.38   587.81   587.83   594.23   600.98
eigval :      601.66   603.20   603.41   605.18   609.40   612.23
eigval :      620.60   636.98   658.76   659.83   673.48   674.05
eigval :      677.59   684.51   684.82   685.04   689.82   695.84
eigval :      707.81   725.79   730.32   730.37   738.02   752.69
eigval :      754.72   762.27   768.81   768.98   772.48   772.67
eigval :      777.90   777.90   786.05   786.12   822.17   827.50
eigval :      866.11   866.46   867.55   867.90   874.54   877.74
eigval :      877.87   878.88   878.91   878.94   890.97   892.57
eigval :      892.57   899.21   899.39   909.03   909.20   909.82
eigval :      909.87   910.66   910.68   914.22   914.28   919.56
eigval :      920.18   920.66   920.91   921.24   921.50   922.12
eigval :      922.66   926.71   926.93   927.01   927.71   927.72
eigval :      930.47   935.89   949.46   949.59   957.08  1006.38
eigval :     1006.39  1015.11  1029.18  1074.21  1074.23  1079.09
eigval :     1079.17  1088.32  1088.39  1109.05  1109.27  1110.85
eigval :     1111.04  1126.38  1126.52  1129.49  1130.84  1141.07
eigval :     1141.70  1142.78  1142.95  1173.23  1177.10  1177.13
eigval :     1178.58  1178.75  1179.73  1182.40  1183.00  1185.41
eigval :     1185.46  1186.50  1189.51  1189.88  1203.74  1205.15
eigval :     1205.41  1211.91  1231.73  1234.36  1237.46  1237.52
eigval :     1245.33  1247.77  1259.12  1259.70  1259.99  1261.57
eigval :     1261.87  1269.68  1269.77  1274.86  1274.97  1284.80
eigval :     1284.87  1312.20  1315.23  1319.01  1321.43  1327.18
eigval :     1327.21  1327.42  1327.62  1335.15  1335.40  1337.85
eigval :     1338.40  1367.62  1367.68  1400.39  1402.39  1429.60
eigval :     1429.61  1430.14  1430.28  1437.94  1438.02  1438.10
eigval :     1438.22  1461.82  1461.85  1472.30  1472.34  1472.73
eigval :     1474.60  1481.97  1482.37  1494.59  1495.10  1557.54
eigval :     1559.44  1575.00  1575.03  1582.27  1585.40  1586.58
eigval :     1586.60  1588.97  1589.11  1590.45  1590.52  1597.22
eigval :     1597.25  1601.81  1601.96  1604.02  1604.10  1605.53
eigval :     1605.55  1692.65  3071.55  3071.82  3072.39  3072.55
eigval :     3075.16  3075.25  3076.19  3076.35  3079.48  3079.72
eigval :     3080.47  3081.04  3081.18  3082.70  3082.70  3082.88
eigval :     3083.00  3083.11  3083.37  3083.96  3084.77  3084.86
eigval :     3088.87  3089.03  3090.97  3091.00  3092.40  3092.46
eigval :     3093.20  3093.91  3094.69  3094.88  3096.24  3097.31
eigval :     3099.53  3099.85  3100.94  3100.98  3102.06  3103.10

   temp. (K)  partition function   enthalpy   heat capacity  entropy
                                   cal/mol     cal/K/mol   cal/K/mol   J/K/mol
 298.15  VIB  0.803E+26            30310.544    191.983    192.912
         ROT  0.259E+09              888.752      2.981     41.479
         INT  0.208E+35            31199.297    194.964    234.391
         TR   0.236E+29             1481.254      4.968     46.044
         TOT                       32680.5506   199.9320   280.4350  1173.3401

       T/K    H(0)-H(T)+PV         H(T)/Eh          T*S/Eh         G(T)/Eh
   ------------------------------------------------------------------------
    298.15    0.520798E-01    0.866138E+00    0.133244E+00    0.732895E+00
   ------------------------------------------------------------------------

         :::::::::::::::::::::::::::::::::::::::::::::::::::::
         ::                  THERMODYNAMIC                  ::
         :::::::::::::::::::::::::::::::::::::::::::::::::::::
         :: total free energy        -164.550441111372 Eh   ::
         ::.................................................::
         :: total energy             -165.283335849116 Eh   ::
         :: zero point energy           0.814058686699 Eh   ::
         :: G(RRHO) w/o ZPVE           -0.081163948956 Eh   ::
         :: G(RRHO) contrib.            0.732894737744 Eh   ::
         :::::::::::::::::::::::::::::::::::::::::::::::::::::

           -------------------------------------------------
          | TOTAL ENERGY             -165.283335849116 Eh   |
          | TOTAL ENTHALPY           -164.417197390060 Eh   |
          | TOTAL FREE ENERGY        -164.550441111372 Eh   |
          | GRADIENT NORM               0.000060761529 Eh/α |
          | HOMO-LUMO GAP               1.514430332214 eV   |
           -------------------------------------------------

 * finished run on 2025/07/18 at 20:40:05.573
