   * xtb version 6.7.1 (edcfbbe) compiled by 'albert@albert-system' on 2024-07-22

   ID    Z sym.   atoms
    1    8 O      1
    2    6 C      2-6, 8-38, 40-66
    3    7 N      7, 39
    4    1 H      67-106

          program call               : xtb data2507/gas/SFAC-BP-SFAC/SFAC-BP-SFAC.xyz --gfn 2 --ohess vtight --parallel 40 --molden --ceasefiles --namespace data2507/gas/SFAC-BP-SFAC/SFAC-BP-SFAC_gas_S0_preOpt
          :  Hamiltonian                  GFN2-xTB          :
 * total energy  :  -165.2495517 Eh     change       -0.2444864E-08 Eh
 * total energy  :  -165.2719232 Eh     change       -0.2237159E-01 Eh
 * total energy  :  -165.2795441 Eh     change       -0.7620841E-02 Eh
 * total energy  :  -165.2807865 Eh     change       -0.1242414E-02 Eh
 * total energy  :  -165.2815089 Eh     change       -0.7224251E-03 Eh
 * total energy  :  -165.2819312 Eh     change       -0.4222722E-03 Eh
 * total energy  :  -165.2822177 Eh     change       -0.2865363E-03 Eh
 * total energy  :  -165.2823559 Eh     change       -0.1381190E-03 Eh
 * total energy  :  -165.2824500 Eh     change       -0.9410822E-04 Eh
 * total energy  :  -165.2825685 Eh     change       -0.1185361E-03 Eh
 * total energy  :  -165.2833331 Eh     change       -0.1820107E-05 Eh
 * total energy  :  -165.2833348 Eh     change       -0.1689038E-05 Eh
 * total energy  :  -165.2833364 Eh     change       -0.1589760E-05 Eh
 * total energy  :  -165.2833378 Eh     change       -0.1332044E-05 Eh
 * total energy  :  -165.2833386 Eh     change       -0.8758934E-06 Eh
 * total energy  :  -165.2833393 Eh     change       -0.6435510E-06 Eh
 * total energy  :  -165.2833398 Eh     change       -0.5275003E-06 Eh
 * total energy  :  -165.2833404 Eh     change       -0.5543054E-06 Eh
 * total energy  :  -165.2833404 Eh     change       -0.3076593E-08 Eh
   *** GEOMETRY OPTIMIZATION CONVERGED AFTER 122 ITERATIONS ***

 final structure:
================
106
 xtb: 6.7.1 (edcfbbe)
O           -0.05457629576179        4.85221510338804       -1.00589453692482
C           -0.03563128947431        3.66701821192501       -0.74056727279955
C           -1.28895903005774        2.88773549615438       -0.57115733756266
C           -1.39525896443309        1.85569674433101        0.35947409840083
C           -2.58718571244388        1.17431623715586        0.50781929433090
C           -3.68653969406611        1.50892103703578       -0.27754101774640
N           -4.90350817866562        0.79656039852977       -0.14003564157467
C           -5.68104856616344        0.99104455864100        0.99513406890849
C           -5.27911202347162        1.89467700272599        1.98231485398414
C           -6.04084363293393        2.08902907862086        3.11651197110247
C           -7.22535052215349        1.39432664023139        3.28970540348449
C           -7.64339319055239        0.52022122292668        2.30426788465195
C           -6.89132868448369        0.31271931912480        1.15750786283500
C           -7.43020306542382       -0.62216109313698        0.10261313814461
C           -8.79514410883831       -0.15605339117833       -0.36788541278318
C           -9.12080190263466        1.02321787556685       -0.99978330270344
C          -10.44682069812273        1.24434117552629       -1.34722792693728
C          -11.42130666845280        0.29945251887275       -1.06444001591068
C          -11.09775333616227       -0.88820640236036       -0.42783488281374
C           -9.77674099324707       -1.11408741975570       -0.07883463164950
C           -9.14013751402746       -2.24168945661369        0.58537137927953
C           -9.66360939931456       -3.42834017098502        1.07092242888194
C           -8.80414200846146       -4.33644633803447        1.66863221253514
C           -7.44862924781829       -4.06705391702354        1.77982156971327
C           -6.91819365792317       -2.87904439906004        1.29465703304682
C           -7.76884962237850       -1.97368539723915        0.70060885484892
C           -6.49286207078615       -0.77905991961755       -1.06933432222037
C           -6.84754102808175       -1.64829475666734       -2.09021199181999
C           -6.02365858962622       -1.85036959580316       -3.18129544623966
C           -4.81354127091613       -1.18174081067876       -3.24536549895814
C           -4.44460129670862       -0.31265967650352       -2.23894981167278
C           -5.28431614940189       -0.08292914817506       -1.14565443379295
C           -3.58893658281277        2.54830869290764       -1.19798119610969
C           -2.40208694808130        3.23874680756862       -1.33290831291723
C            1.24035905693906        2.92734244146876       -0.57472882830063
C            1.36551071982155        1.58151274062620       -0.91685906188321
C            2.58095925222702        0.94130834635504       -0.78268728068988
C            3.68822512733623        1.63163602561417       -0.29644523936804
N            4.92660827545951        0.96350504684292       -0.14719145086736
C            5.98486191629212        1.29464662737583       -0.98683619847772
C            5.82142019361674        2.25401483127112       -1.98972996006504
C            6.86845012483077        2.59515839470461       -2.82138855703375
C            8.10079175212736        1.98093905886325       -2.68096344992086
C            8.26036786414376        1.00712628009403       -1.71371217988631
C            7.21886350913702        0.65077325883736       -0.86962739492942
C            7.45036085075012       -0.45701866910979        0.12823191425215
C            8.67486323961009       -0.17451975608699        0.97655965033388
C            8.88201234439737        0.86848104914026        1.85143060782290
C           10.09100610913261        0.93271482576224        2.53134954495481
C           11.06780916931801       -0.03141012729010        2.33453104310398
C           10.86313023170612       -1.08298158032497        1.45537752500102
C            9.65923186768425       -1.15209383596410        0.77438190836724
C            9.16024234330537       -2.11629414798767       -0.19478121449779
C            9.73857640529489       -3.25581066822484       -0.72856429566227
C            9.01638089920269       -3.99563351489601       -1.65137946587474
C            7.74210445784801       -3.60682765495220       -2.03527436655744
C            7.15719508527445       -2.46536335112548       -1.50334074607345
C            7.87127927123598       -1.72796795450728       -0.58554295495263
C            6.24755859419030       -0.71331785815545        1.00183698299094
C            6.34497826052146       -1.67535113614288        1.99627698702776
C            5.28845663117953       -1.94032799269844        2.84665925251701
C            4.11730569973746       -1.21524680621028        2.71194242123603
C            4.00262003983552       -0.25495417956275        1.72763888697444
C            5.05540080331174       -0.00288602845541        0.84354002445640
C            3.57035121235428        2.97882753912815        0.03592620704235
C            2.35914453867990        3.62109427467306       -0.11488096394804
H           -0.54977305470468        1.59991285766787        0.98094784103550
H           -2.67727900799230        0.37778765323447        1.23167973292573
H           -4.36619810909985        2.45622178061146        1.85578161083107
H           -5.70597316722780        2.79135573287381        3.86524760189769
H           -7.82286976681767        1.54024754273187        4.17612604130490
H           -8.57548614754412       -0.01423214781843        2.41730795108314
H           -8.36174684711441        1.76014319478737       -1.21948278754732
H          -10.72270931381836        2.16311979511397       -1.84360783566385
H          -12.44673555776750        0.49272192452873       -1.34434352223032
H          -11.86051153985241       -1.62093515156336       -0.20932163894551
H          -10.71872686912580       -3.64279940047322        0.98639354848287
H           -9.19484569408554       -5.26731156122492        2.05342926904901
H           -6.79785063906129       -4.78998453184019        2.24949566721404
H           -5.86170958633443       -2.66950666322960        1.38091105111728
H           -7.78848158688835       -2.17450498029049       -2.02031038385405
H           -6.31866727737825       -2.52805992533500       -3.96726521170039
H           -4.14773138905339       -1.33793222387416       -4.08111529479483
H           -3.49172553222791        0.19101619335253       -2.29747137307293
H           -4.44863072393680        2.80698678430334       -1.79802421441141
H           -2.31489995767440        4.05628714427816       -2.03263052693049
H            0.51806855342922        1.04399188234994       -1.31586379413778
H            2.68482242316697       -0.09928014055168       -1.05266913117913
H            4.86340056901005        2.73166237818888       -2.12547475559998
H            6.71539868579866        3.34284658818525       -3.58519103910347
H            8.92393255997937        2.24728899633752       -3.32556688914584
H            9.21006841559179        0.50328420920234       -1.60697614453773
H            8.12060973908115        1.61946758881677        2.00547548801392
H           10.27286356120371        1.74316086006824        3.22180903096700
H           12.00093594839499        0.03874835765707        2.87446694152044
H           11.62689085998318       -1.83175602413474        1.30565275574120
H           10.73112257326428       -3.56243806910523       -0.43322954473546
H            9.45166130068776       -4.88745629499625       -2.07843905479738
H            7.19840006928716       -4.19880408268995       -2.75685218822361
H            6.16460330059283       -2.16188637142691       -1.80375145883779
H            7.27144503829506       -2.22102295262921        2.10110828613486
H            5.38213336356849       -2.69511811772770        3.61185892997486
H            3.28669365297536       -1.39207447570728        3.37902736444740
H            3.08850796752825        0.31326806972805        1.64802637208711
H            4.43393856258524        3.51113021130386        0.40598594484436
H            2.25323972066946        4.66665266179599        0.13264995262754

          :  Hamiltonian                  GFN2-xTB          :
         :: gradient norm              0.000041768570 Eh/a0 ::
         :: HOMO-LUMO gap              1.507240690934 eV    ::
         :: SCC energy              -168.390678231605 Eh    ::
         :: -> dispersion             -0.165514330654 Eh    ::
         :: repulsion energy           3.107337868126 Eh    ::

    * Orbital Energies and Occupations

         #    Occupation            Energy/Eh            Energy/eV
      -------------------------------------------------------------
         1        2.0000           -0.7108163             -19.3423
       ...           ...                  ...                  ...
       142        2.0000           -0.4086163             -11.1190
       143        2.0000           -0.4078941             -11.0994
       144        2.0000           -0.3984900             -10.8435
       145        2.0000           -0.3979312             -10.8283
       146        2.0000           -0.3974661             -10.8156
       147        2.0000           -0.3960975             -10.7784
       148        2.0000           -0.3954923             -10.7619
       149        2.0000           -0.3940043             -10.7214
       150        2.0000           -0.3934299             -10.7058
       151        2.0000           -0.3794224             -10.3246
       152        2.0000           -0.3788769             -10.3098
       153        2.0000           -0.3523086              -9.5868
       154        2.0000           -0.3512926              -9.5592 (HOMO)
       155                         -0.2959025              -8.0519 (LUMO)
       156                         -0.2518139              -6.8522
       157                         -0.2516174              -6.8469
       158                         -0.2512704              -6.8374
       159                         -0.2481395              -6.7522
       160                         -0.2451792              -6.6717
       161                         -0.2328805              -6.3370
       162                         -0.2321376              -6.3168
       163                         -0.2252004              -6.1280
       164                         -0.2249444              -6.1210
       165                         -0.2244101              -6.1065
       ...                                ...                  ...
       304                          0.7303078              19.8727
      -------------------------------------------------------------
                  HL-Gap            0.0553900 Eh            1.5072 eV

     #   Z          covCN         q      C6AA      α(0)
     1   8 O        0.858    -0.366    21.012     6.146
     2   6 C        2.828     0.226    23.253     7.902
     3   6 C        2.972    -0.013    28.343     8.733
     4   6 C        2.920    -0.027    28.668     8.780
     5   6 C        2.920    -0.038    28.936     8.821
     6   6 C        2.928     0.076    26.312     8.412
     7   7 N        2.753    -0.069    22.585     7.058
     8   6 C        2.925     0.059    26.688     8.472
     9   6 C        2.924    -0.058    29.440     8.898
    10   6 C        2.920    -0.032    28.795     8.800
    11   6 C        2.917    -0.042    29.037     8.836
    12   6 C        2.926    -0.034    28.855     8.809
    13   6 C        2.983    -0.007    28.189     8.709
    14   6 C        3.950     0.012    20.311     6.404
    15   6 C        3.059     0.003    27.907     8.663
    16   6 C        2.914    -0.032    28.800     8.800
    17   6 C        2.923    -0.031    28.785     8.798
    18   6 C        2.921    -0.032    28.805     8.801
    19   6 C        2.915    -0.034    28.847     8.807
    20   6 C        3.035     0.001    27.961     8.673
    21   6 C        3.035     0.001    27.960     8.673
    22   6 C        2.915    -0.034    28.851     8.808
    23   6 C        2.921    -0.032    28.807     8.802
    24   6 C        2.923    -0.032    28.790     8.799
    25   6 C        2.914    -0.032    28.799     8.800
    26   6 C        3.059     0.003    27.909     8.663
    27   6 C        2.983    -0.007    28.182     8.708
    28   6 C        2.926    -0.034    28.853     8.809
    29   6 C        2.917    -0.042    29.040     8.837
    30   6 C        2.920    -0.032    28.801     8.801
    31   6 C        2.924    -0.058    29.443     8.898
    32   6 C        2.925     0.059    26.687     8.472
    33   6 C        2.920    -0.036    28.903     8.816
    34   6 C        2.924    -0.018    28.455     8.748
    35   6 C        2.972    -0.014    28.366     8.736
    36   6 C        2.920    -0.027    28.672     8.781
    37   6 C        2.920    -0.038    28.937     8.821
    38   6 C        2.927     0.075    26.315     8.413
    39   7 N        2.752    -0.068    22.563     7.055
    40   6 C        2.924     0.058    26.693     8.473
    41   6 C        2.924    -0.058    29.436     8.897
    42   6 C        2.920    -0.032    28.791     8.799
    43   6 C        2.917    -0.041    29.028     8.835
    44   6 C        2.927    -0.034    28.855     8.809
    45   6 C        2.984    -0.007    28.183     8.708
    46   6 C        3.950     0.012    20.311     6.404
    47   6 C        3.059     0.003    27.909     8.663
    48   6 C        2.914    -0.032    28.797     8.800
    49   6 C        2.923    -0.031    28.785     8.798
    50   6 C        2.921    -0.032    28.805     8.801
    51   6 C        2.915    -0.034    28.850     8.808
    52   6 C        3.035     0.001    27.962     8.673
    53   6 C        3.034     0.002    27.959     8.673
    54   6 C        2.915    -0.034    28.846     8.807
    55   6 C        2.921    -0.032    28.805     8.801
    56   6 C        2.923    -0.032    28.789     8.799
    57   6 C        2.914    -0.032    28.802     8.800
    58   6 C        3.059     0.003    27.909     8.663
    59   6 C        2.984    -0.006    28.175     8.707
    60   6 C        2.927    -0.034    28.852     8.809
    61   6 C        2.917    -0.042    29.036     8.836
    62   6 C        2.920    -0.032    28.803     8.801
    63   6 C        2.924    -0.058    29.440     8.898
    64   6 C        2.925     0.058    26.689     8.472
    65   6 C        2.919    -0.037    28.924     8.819
    66   6 C        2.924    -0.018    28.453     8.748
    67   1 H        0.926     0.042     2.426     2.436
    68   1 H        0.926     0.047     2.357     2.401
    69   1 H        0.926     0.026     2.638     2.540
    70   1 H        0.926     0.031     2.575     2.509
    71   1 H        0.926     0.030     2.589     2.516
    72   1 H        0.926     0.030     2.582     2.513
    73   1 H        0.926     0.025     2.658     2.550
    74   1 H        0.926     0.030     2.581     2.512
    75   1 H        0.926     0.030     2.583     2.513
    76   1 H        0.926     0.031     2.575     2.509
    77   1 H        0.926     0.031     2.576     2.510
    78   1 H        0.926     0.030     2.586     2.515
    79   1 H        0.926     0.030     2.589     2.516
    80   1 H        0.926     0.025     2.665     2.553
    81   1 H        0.926     0.030     2.579     2.511
    82   1 H        0.926     0.030     2.589     2.516
    83   1 H        0.926     0.030     2.587     2.515
    84   1 H        0.926     0.024     2.678     2.559
    85   1 H        0.926     0.049     2.330     2.387
    86   1 H        0.926     0.061     2.191     2.315
    87   1 H        0.926     0.042     2.422     2.434
    88   1 H        0.926     0.047     2.363     2.404
    89   1 H        0.926     0.028     2.614     2.528
    90   1 H        0.926     0.032     2.561     2.503
    91   1 H        0.926     0.030     2.582     2.513
    92   1 H        0.926     0.030     2.579     2.512
    93   1 H        0.926     0.025     2.655     2.548
    94   1 H        0.926     0.030     2.581     2.512
    95   1 H        0.926     0.030     2.583     2.513
    96   1 H        0.926     0.031     2.575     2.510
    97   1 H        0.926     0.031     2.572     2.508
    98   1 H        0.926     0.030     2.582     2.513
    99   1 H        0.926     0.030     2.586     2.515
   100   1 H        0.926     0.024     2.668     2.554
   101   1 H        0.926     0.031     2.575     2.509
   102   1 H        0.926     0.030     2.586     2.515
   103   1 H        0.926     0.030     2.588     2.516
   104   1 H        0.926     0.024     2.673     2.557
   105   1 H        0.926     0.050     2.325     2.384
   106   1 H        0.926     0.062     2.179     2.308

molecular dipole:
                 x           y           z       tot (Debye)
 q only:        0.102      -0.751       0.164
   full:        0.101      -0.883       0.192       2.310

 projected vibrational frequencies (cm⁻¹)
eigval :       -0.00    -0.00    -0.00     0.00     0.00     0.00
eigval :        2.70     3.32     5.60     6.81    10.23    28.52
eigval :       30.55    35.00    41.18    42.83    43.91    48.54
eigval :       51.41    55.29    68.59    69.59    79.05    84.26
eigval :       84.39   111.25   113.52   115.84   117.92   138.97
eigval :      140.45   140.53   151.71   155.37   163.30   183.95
eigval :      190.81   200.76   236.59   237.99   239.49   241.42
eigval :      245.75   246.80   261.33   267.21   283.96   292.50
eigval :      294.59   294.75   327.65   347.72   369.79   377.33
eigval :      385.01   386.10   388.34   389.02   396.26   397.89
eigval :      402.39   402.66   413.36   414.18   425.14   425.92
eigval :      432.54   436.43   444.50   449.77   461.57   462.42
eigval :      463.41   465.96   498.17   499.59   502.04   503.12
eigval :      505.59   506.61   512.91   512.98   540.19   540.21
eigval :      557.62   587.44   587.81   587.81   594.23   600.98
eigval :      601.61   603.18   603.43   605.20   609.42   612.11
eigval :      620.52   637.04   658.83   659.96   673.50   674.09
eigval :      677.64   684.45   684.76   684.96   689.77   695.91
eigval :      707.88   725.87   730.34   730.35   738.15   752.69
eigval :      754.70   762.33   768.80   768.95   772.36   772.63
eigval :      777.76   777.96   786.06   786.07   821.87   827.40
eigval :      865.97   866.17   867.26   868.16   874.39   877.76
eigval :      877.84   878.53   878.86   878.89   890.95   892.53
eigval :      892.58   899.25   899.46   909.13   909.14   909.79
eigval :      909.82   910.56   910.74   914.20   914.30   919.50
eigval :      920.17   920.62   920.87   921.27   921.49   921.88
eigval :      922.66   926.34   926.95   926.96   927.67   927.69
eigval :      930.24   935.42   949.48   949.65   957.01  1006.37
eigval :     1006.39  1015.20  1029.18  1074.22  1074.23  1079.11
eigval :     1079.15  1088.35  1088.40  1108.86  1109.44  1110.57
eigval :     1111.15  1126.47  1126.52  1129.22  1130.77  1141.13
eigval :     1141.77  1142.79  1142.86  1173.17  1177.13  1177.13
eigval :     1178.63  1178.73  1179.68  1182.35  1182.97  1185.33
eigval :     1185.52  1186.43  1189.32  1189.90  1203.80  1205.15
eigval :     1205.33  1211.76  1231.67  1234.32  1237.27  1237.71
eigval :     1245.27  1247.74  1259.06  1259.69  1259.96  1261.43
eigval :     1261.64  1269.59  1269.77  1274.77  1275.03  1284.84
eigval :     1284.85  1311.99  1315.11  1319.08  1321.53  1327.20
eigval :     1327.22  1327.41  1327.64  1335.12  1335.48  1337.53
eigval :     1339.11  1367.64  1367.68  1400.13  1402.44  1429.61
eigval :     1429.62  1430.19  1430.27  1437.80  1438.05  1438.15
eigval :     1438.37  1461.85  1461.85  1472.32  1472.33  1472.67
eigval :     1474.58  1482.00  1482.66  1494.58  1495.28  1557.43
eigval :     1559.67  1575.02  1575.05  1582.14  1585.58  1586.60
eigval :     1586.61  1588.98  1589.19  1590.48  1590.54  1597.24
eigval :     1597.25  1601.83  1602.02  1604.04  1604.14  1605.54
eigval :     1605.56  1693.56  3071.74  3071.81  3072.36  3072.53
eigval :     3075.24  3075.27  3076.18  3076.33  3079.54  3079.60
eigval :     3080.32  3080.96  3081.10  3082.69  3082.76  3082.82
eigval :     3082.94  3083.13  3083.21  3083.83  3084.78  3084.86
eigval :     3088.93  3089.09  3090.95  3091.05  3092.40  3092.51
eigval :     3093.18  3094.00  3094.28  3095.28  3095.83  3097.08
eigval :     3099.58  3099.87  3100.76  3101.16  3101.76  3102.90

   temp. (K)  partition function   enthalpy   heat capacity  entropy
                                   cal/mol     cal/K/mol   cal/K/mol   J/K/mol
 298.15  VIB  0.984E+26            30319.480    191.957    193.126
         ROT  0.259E+09              888.752      2.981     41.477
         INT  0.255E+35            31208.232    194.938    234.604
         TR   0.236E+29             1481.254      4.968     46.044
         TOT                       32689.4864   199.9065   280.6482  1174.2321

       T/K    H(0)-H(T)+PV         H(T)/Eh          T*S/Eh         G(T)/Eh
   ------------------------------------------------------------------------
    298.15    0.520940E-01    0.866126E+00    0.133345E+00    0.732781E+00
   ------------------------------------------------------------------------

         :::::::::::::::::::::::::::::::::::::::::::::::::::::
         ::                  THERMODYNAMIC                  ::
         :::::::::::::::::::::::::::::::::::::::::::::::::::::
         :: total free energy        -164.550559848581 Eh   ::
         ::.................................................::
         :: total energy             -165.283340363478 Eh   ::
         :: zero point energy           0.814031526676 Eh   ::
         :: G(RRHO) w/o ZPVE           -0.081251011779 Eh   ::
         :: G(RRHO) contrib.            0.732780514896 Eh   ::
         :::::::::::::::::::::::::::::::::::::::::::::::::::::

           -------------------------------------------------
          | TOTAL ENERGY             -165.283340363478 Eh   |
          | TOTAL ENTHALPY           -164.417214824323 Eh   |
          | TOTAL FREE ENERGY        -164.550559848581 Eh   |
          | GRADIENT NORM               0.000041770453 Eh/α |
          | HOMO-LUMO GAP               1.507239691629 eV   |
           -------------------------------------------------

 * finished run on 2025/07/18 at 20:29:20.042
