   * xtb version 6.7.1 (edcfbbe) compiled by 'albert@albert-system' on 2024-07-22

   ID    Z sym.   atoms
    1    8 O      1
    2    6 C      2-4, 6, 8-11, 13-26, 28-40
    3    7 N      5, 7, 12, 27
    4    1 H      41-62

          program call               : xtb data2507/gas/35CzBPym/35CzBPym_gas_T1_crest.xyz --gfn 2 --spinpol --tblite --uhf 2 --ohess vtight --parallel 40 --molden --ceasefiles --namespace data2507/gas/35CzBPym/35CzBPym_gas_T1_finalOpt
 * total energy  :  -101.9036786 Eh     change       -0.1430291E-07 Eh
 * total energy  :  -101.9036952 Eh     change       -0.1657284E-04 Eh
 * total energy  :  -101.9037020 Eh     change       -0.6822360E-05 Eh
 * total energy  :  -101.9037039 Eh     change       -0.1920313E-05 Eh
 * total energy  :  -101.9037063 Eh     change       -0.2402098E-05 Eh
 * total energy  :  -101.9037080 Eh     change       -0.1674089E-05 Eh
 * total energy  :  -101.9037094 Eh     change       -0.1438454E-05 Eh
 * total energy  :  -101.9037109 Eh     change       -0.1516352E-05 Eh
 * total energy  :  -101.9037122 Eh     change       -0.1285795E-05 Eh
 * total energy  :  -101.9037130 Eh     change       -0.7829923E-06 Eh
 * total energy  :  -101.9037159 Eh     change       -0.7273990E-06 Eh
 * total energy  :  -101.9037167 Eh     change       -0.7246982E-06 Eh
 * total energy  :  -101.9037174 Eh     change       -0.7359640E-06 Eh
 * total energy  :  -101.9037178 Eh     change       -0.4063364E-06 Eh
 * total energy  :  -101.9037180 Eh     change       -0.2251784E-06 Eh
 * total energy  :  -101.9037182 Eh     change       -0.1574029E-06 Eh
 * total energy  :  -101.9037183 Eh     change       -0.1408148E-06 Eh
 * total energy  :  -101.9037183 Eh     change        0.5643820E-07 Eh
 * total energy  :  -101.9037183 Eh     change       -0.4700478E-07 Eh
   *** GEOMETRY OPTIMIZATION CONVERGED AFTER 23 ITERATIONS ***

 final structure:
================
62
 xtb: 6.7.1 (edcfbbe)
O           -0.07976680844286       -4.01269637613563        1.32207696148908
C           -0.84673558224250       -3.27726467908420        0.65884385718602
C           -2.10726124686796       -3.71909984795669        0.16490036713567
C           -2.92720059105749       -3.10404888922722       -0.81829591340322
N           -4.06024625123467       -3.60142011060485       -1.22383170676119
C           -4.47933278651192       -4.75767707310040       -0.71502371110372
N           -3.74632568163486       -5.44531689459949        0.15668711262888
C           -2.61406110882558       -4.98940901832220        0.57901496842511
C           -0.41933765179809       -1.88674078372000        0.36220055773553
C           -1.30313377665423       -0.80746300637844        0.37986853892250
C           -0.82668306300270        0.48224650741767        0.16839476838157
N           -1.70815115953268        1.56876688420475        0.24083500065043
C           -2.90503876184703        1.69413866996927       -0.43556769704900
C           -3.46993244946659        0.86455804426259       -1.39302164573704
C           -4.68227954128350        1.23922079360092       -1.94033194919909
C           -5.31705628629207        2.41781855778386       -1.55689169416623
C           -4.74598894460949        3.26319504086254       -0.62400900448738
C           -3.53083736856854        2.90490343581496       -0.05882255624694
C           -2.66318831965535        3.53031235026496        0.90241961488404
C           -2.73934701207803        4.70729896028548        1.63266660248879
C           -1.71598519551350        5.00732077579314        2.51211749535451
C           -0.63623381337441        4.14373102032856        2.67714320811186
C           -0.53815483679633        2.96575922516557        1.96033102525032
C           -1.55107064704671        2.67122135600593        1.05881566164156
C            0.52957648454955        0.71035166309639       -0.04355512912624
C            1.41511334545741       -0.36438059907215       -0.03018898568183
N            2.78251670566336       -0.15106974917555       -0.22973776349867
C            3.34811222333746        0.58992514374741       -1.24818605146293
C            2.73886384860212        1.25305826616942       -2.30433005363826
C            3.55245874892327        1.91034535703827       -3.20851908521255
C            4.93842367500558        1.90418746681776       -3.07691185346575
C            5.55208925115735        1.22417993528874       -2.04101119787285
C            4.75649102994699        0.55728269442145       -1.12163905820873
C            5.04421961312814       -0.24766120508510        0.03538702239207
C            6.22086455745448       -0.62498065608737        0.66539799535918
C            6.13978772820650       -1.41086408629592        1.80020995716256
C            4.90676359296217       -1.80590071844038        2.31262138336084
C            3.72052344980804       -1.44059185342016        1.70372355458538
C            3.79776326506921       -0.67128405101696        0.55084352772053
C            0.94128844765057       -1.65422829567121        0.16674096572022
H           -2.60532841127010       -2.19367272593834       -1.30774461255616
H           -5.42606321884486       -5.15692732051848       -1.03348197179050
H           -2.02310143393754       -5.57808761114821        1.26911562149274
H           -2.34427842550445       -0.94765250230364        0.62731877162152
H           -2.97621653858819       -0.03981367394265       -1.71261729816028
H           -5.14410036174513        0.60455654799632       -2.68137048653841
H           -6.26499684318848        2.67607288431473       -2.00422276819549
H           -5.23017037113724        4.18538134819685       -0.34094258852192
H           -3.58367625371195        5.36955116211108        1.51676916336605
H           -1.75525228574639        5.91919475318516        3.08869532418416
H            0.14015781570925        4.39686427169033        3.38348771295553
H            0.29288691585913        2.29357771000425        2.11063128056723
H            0.89274398248590        1.71523094307340       -0.19164617168932
H            1.66676105294998        1.24606651783099       -2.42889231599723
H            3.10233255936521        2.43587634714656       -4.03740367927131
H            5.53986126949866        2.43071149458213       -3.80254357209859
H            6.62731922426533        1.20625974481440       -1.94930816642569
H            7.17646051847244       -0.30713712512218        0.27701928286117
H            7.04391231547039       -1.71855571651902        2.30365756898322
H            4.87449444233395       -2.40973806742218        3.20680287987292
H            2.77108327352228       -1.74358999574008        2.11685072876660
H            1.61811434185669       -2.49401957253842        0.15162556670817

 projected vibrational frequencies (cm⁻¹)
eigval :       -0.00    -0.00    -0.00    -0.00     0.00     0.00
eigval :       14.64    19.57    21.24    25.06    31.94    40.94
eigval :       56.53    70.51    80.58    97.65   102.50   127.40
eigval :      133.33   136.99   140.83   146.03   178.01   192.32
eigval :      209.41   241.26   250.69   261.47   270.35   271.21
eigval :      287.73   300.99   325.98   333.78   365.69   383.81
eigval :      392.53   394.66   418.35   421.64   422.27   434.49
eigval :      435.73   436.90   469.59   507.43   516.16   518.04
eigval :      532.95   538.30   538.73   542.92   544.85   580.96
eigval :      586.30   587.20   603.62   617.36   619.37   633.40
eigval :      637.49   650.38   662.87   666.66   673.75   675.03
eigval :      708.76   709.62   740.29   748.79   753.52   767.23
eigval :      769.16   769.68   777.78   778.52   779.81   807.77
eigval :      834.32   851.04   863.06   866.36   871.81   877.47
eigval :      883.36   887.35   894.08   898.13   900.23   904.04
eigval :      905.96   906.46   909.84   921.88   922.33   923.43
eigval :      924.65   949.38   986.48  1008.20  1011.61  1025.65
eigval :     1033.88  1067.48  1069.88  1071.92  1073.01  1096.06
eigval :     1119.20  1121.30  1129.62  1142.63  1147.09  1148.14
eigval :     1164.86  1176.69  1179.29  1179.50  1179.92  1200.82
eigval :     1204.21  1208.96  1224.49  1230.44  1232.17  1233.12
eigval :     1234.94  1249.07  1275.52  1290.33  1292.12  1294.22
eigval :     1296.22  1322.62  1326.77  1339.38  1348.39  1352.49
eigval :     1358.96  1359.53  1372.49  1410.55  1413.00  1418.29
eigval :     1419.70  1441.49  1445.55  1450.68  1466.19  1467.10
eigval :     1469.10  1483.93  1484.80  1518.17  1535.07  1565.07
eigval :     1569.90  1571.12  1584.06  1586.27  1586.55  1589.76
eigval :     1604.77  1608.81  3035.73  3042.89  3081.47  3081.59
eigval :     3083.30  3083.73  3086.28  3086.48  3088.73  3089.99
eigval :     3093.05  3093.44  3095.29  3096.74  3096.99  3099.90
eigval :     3100.16  3102.17  3103.52  3105.10  3110.44  3120.80

   temp. (K)  partition function   enthalpy   heat capacity  entropy
                                   cal/mol     cal/K/mol   cal/K/mol   J/K/mol
 298.15  VIB  0.174E+14            17631.578    113.716    107.893
         ROT  0.462E+08              888.752      2.981     38.053
         INT  0.803E+21            18520.331    116.697    145.946
         TR   0.113E+29             1481.254      4.968     44.581
         TOT                       20001.5848   121.6654   190.5270   797.1651

       T/K    H(0)-H(T)+PV         H(T)/Eh          T*S/Eh         G(T)/Eh
   ------------------------------------------------------------------------
    298.15    0.318746E-01    0.493048E+00    0.905255E-01    0.402523E+00
   ------------------------------------------------------------------------

         :::::::::::::::::::::::::::::::::::::::::::::::::::::
         ::                  THERMODYNAMIC                  ::
         :::::::::::::::::::::::::::::::::::::::::::::::::::::
         :: total free energy        -101.501195516575 Eh   ::
         ::.................................................::
         :: total energy             -101.903718284076 Eh   ::
         :: zero point energy           0.461173755981 Eh   ::
         :: G(RRHO) w/o ZPVE           -0.058650988480 Eh   ::
         :: G(RRHO) contrib.            0.402522767501 Eh   ::
         :::::::::::::::::::::::::::::::::::::::::::::::::::::

           -------------------------------------------------
          | TOTAL ENERGY             -101.903718284076 Eh   |
          | TOTAL ENTHALPY           -101.410669973891 Eh   |
          | TOTAL FREE ENERGY        -101.501195516575 Eh   |
          | GRADIENT NORM               0.000128276416 Eh/α |
           -------------------------------------------------

 * finished run on 2025/09/04 at 03:20:17.532
