   * xtb version 6.7.1 (edcfbbe) compiled by 'albert@albert-system' on 2024-07-22

   ID    Z sym.   atoms
    1    8 O      1
    2    6 C      2-4, 6, 8-11, 13-26, 28-40
    3    7 N      5, 7, 12, 27
    4    1 H      41-62

          program call               : xtb data2507/gas/35CzBPym/35CzBPym_gas_S0_crest.xyz --gfn 2 --ohess vtight --parallel 40 --molden --ceasefiles --namespace data2507/gas/35CzBPym/35CzBPym_gas_S0_finalOpt
          :  Hamiltonian                  GFN2-xTB          :
 * total energy  :  -101.9728402 Eh     change       -0.1154859E-08 Eh
 * total energy  :  -101.9728409 Eh     change       -0.6841110E-06 Eh
 * total energy  :  -101.9728415 Eh     change       -0.5483948E-06 Eh
 * total energy  :  -101.9728423 Eh     change       -0.8486552E-06 Eh
 * total energy  :  -101.9728425 Eh     change       -0.1845963E-06 Eh
 * total energy  :  -101.9728427 Eh     change       -0.1737913E-06 Eh
 * total energy  :  -101.9728427 Eh     change       -0.1691991E-07 Eh
   *** GEOMETRY OPTIMIZATION CONVERGED AFTER 7 ITERATIONS ***

 final structure:
================
62
 xtb: 6.7.1 (edcfbbe)
O           -0.15015244755418       -4.23844500383109        1.00113226248622
C           -0.84985318520720       -3.36570894092542        0.53551675545682
C           -2.24318646428996       -3.63385739424671        0.09628296637417
C           -2.76668544918199       -3.14876486669558       -1.10325695326772
N           -4.00970506839998       -3.38986855158788       -1.47540405457011
C           -4.73945313529575       -4.14561594724681       -0.67427250991697
N           -4.33810840949409       -4.69944262581065        0.45582948576929
C           -3.10246777339511       -4.44396444857918        0.84167511597750
C           -0.38010136056364       -1.97032626685791        0.35150320548526
C           -1.26420808467635       -0.89682896602033        0.39737747674692
C           -0.78648399925822        0.40018932212983        0.23084601772045
N           -1.66453418168481        1.48324294608207        0.29133507032985
C           -2.88821668851978        1.57287288525998       -0.35159420934474
C           -3.49508305608121        0.68958193338685       -1.23189505074588
C           -4.72413825316130        1.04087613514306       -1.75766036234346
C           -5.33589402604887        2.24826735589884       -1.43101303282785
C           -4.72343092156713        3.14530681934468       -0.57862552546128
C           -3.48991445404630        2.81146974116361       -0.03576690955291
C           -2.58598130550599        3.49391649466969        0.84836225366790
C           -2.63740802316016        4.71832392010485        1.50093649839944
C           -1.58831746304996        5.07268922874997        2.32533779120963
C           -0.50828702709400        4.21481443562993        2.51633061448698
C           -0.43534975443059        2.99128356683828        1.87718271936041
C           -1.47223767443635        2.64286233839293        1.02440546866019
C            0.57211882197100        0.61519657296419        0.01579280899621
C            1.45994628359394       -0.45731167707852       -0.01318132485327
N            2.82128189876255       -0.23189135667336       -0.21610983415442
C            3.37581312293929        0.57687363282789       -1.19340614567646
C            2.75811954124963        1.28377951954081       -2.21444419159269
C            3.56196067719545        1.99425448004917       -3.08622431444394
C            4.94844774010177        1.99837592019187       -2.95803317343946
C            5.57036247367615        1.27398348288525       -1.96066761469921
C            4.78337014166730        0.55261850184513       -1.07313636700619
C            5.08639226919282       -0.30883013018874        0.03638440703901
C            6.27357719818353       -0.70064016581679        0.64062158906270
C            6.21230765983628       -1.54286880725404        1.73275693110807
C            4.98766101202972       -1.97967589116026        2.23165424792759
C            3.79310139845056       -1.60253420047387        1.64732419231397
C            3.85041415090905       -0.77783489889215        0.53374059312734
C            0.97995548604085       -1.75170457409871        0.15965862706055
H           -2.16167120298340       -2.57055382212226       -1.79115923307784
H           -5.76004473897261       -4.33666177635119       -0.97838677661078
H           -2.77935989385146       -4.88282906816189        1.77666293865269
H           -2.31110438733455       -1.05374676374896        0.60723845086446
H           -3.02729596548454       -0.24104607172694       -1.51288827264631
H           -5.21598244246317        0.36240423979213       -2.43834302546468
H           -6.29752020860650        2.48623830210544       -1.86023878435367
H           -5.18776767212510        4.08961772851927       -0.33828864574710
H           -3.48519443677780        5.37285769811600        1.36717174946289
H           -1.60630824219574        6.02143146886880        2.84028974917402
H            0.28948321910583        4.50887204067503        3.18202645490107
H            0.39725392421151        2.32756710940735        2.05498852259729
H            0.94032055248762        1.62014922944236       -0.12015570091215
H            1.68592389367542        1.27211023536763       -2.34078839986122
H            3.10315779558731        2.55503005532218       -3.88699172634962
H            5.54145309072544        2.56832358980171       -3.65743879024620
H            6.64598581076780        1.26046785621100       -1.87190240067750
H            7.22110352057858       -0.34749503221226        0.26298339924424
H            7.12338224717594       -1.86267926888285        2.21588204732059
H            4.96919465666574       -2.62589767807825        3.09646305117991
H            2.85127920018872       -1.93576515829211        2.05562017700135
H            1.64744419852803       -2.59822602051309        0.11842012167872

          :  Hamiltonian                  GFN2-xTB          :
         :: gradient norm              0.000166025151 Eh/a0 ::
         :: HOMO-LUMO gap              1.630188530192 eV    ::
         :: SCC energy              -103.788523797782 Eh    ::
         :: -> dispersion             -0.086700622000 Eh    ::
         :: repulsion energy           1.815681101332 Eh    ::

    * Orbital Energies and Occupations

         #    Occupation            Energy/Eh            Energy/eV
      -------------------------------------------------------------
         1        2.0000           -0.7274028             -19.7936
       ...           ...                  ...                  ...
        82        2.0000           -0.4272570             -11.6263
        83        2.0000           -0.4255838             -11.5807
        84        2.0000           -0.4250335             -11.5658
        85        2.0000           -0.4235070             -11.5242
        86        2.0000           -0.4223633             -11.4931
        87        2.0000           -0.4125418             -11.2258
        88        2.0000           -0.4105609             -11.1719
        89        2.0000           -0.4068932             -11.0721
        90        2.0000           -0.3880613             -10.5597
        91        2.0000           -0.3858643             -10.4999
        92        2.0000           -0.3839298             -10.4473
        93        2.0000           -0.3730330             -10.1507
        94        2.0000           -0.3711376             -10.0992 (HOMO)
        95                         -0.3112292              -8.4690 (LUMO)
        96                         -0.2886784              -7.8553
        97                         -0.2717571              -7.3949
        98                         -0.2599146              -7.0726
        99                         -0.2512145              -6.8359
       100                         -0.2476523              -6.7390
       101                         -0.2291345              -6.2351
       102                         -0.2271572              -6.1813
       103                         -0.2235770              -6.0838
       104                         -0.1977848              -5.3820
       105                         -0.1954522              -5.3185
       ...                                ...                  ...
       182                          0.7402985              20.1445
      -------------------------------------------------------------
                  HL-Gap            0.0599084 Eh            1.6302 eV

     #   Z          covCN         q      C6AA      α(0)
     1   8 O        0.858    -0.352    20.744     6.107
     2   6 C        2.826     0.227    23.232     7.898
     3   6 C        2.960    -0.027    28.673     8.783
     4   6 C        2.935     0.083    26.140     8.385
     5   7 N        1.834    -0.218    26.596     7.642
     6   6 C        2.925     0.153    24.677     8.146
     7   7 N        1.834    -0.215    26.520     7.631
     8   6 C        2.936     0.089    26.012     8.365
     9   6 C        2.972    -0.013    28.344     8.733
    10   6 C        2.923    -0.050    29.233     8.867
    11   6 C        2.909     0.071    26.416     8.428
    12   7 N        2.802    -0.044    22.096     6.981
    13   6 C        3.069     0.046    26.910     8.506
    14   6 C        2.910    -0.051    29.268     8.871
    15   6 C        2.924    -0.032    28.800     8.801
    16   6 C        2.920    -0.039    28.965     8.826
    17   6 C        2.913    -0.032    28.794     8.799
    18   6 C        3.067    -0.015    28.317     8.726
    19   6 C        3.067    -0.015    28.312     8.725
    20   6 C        2.913    -0.032    28.793     8.799
    21   6 C        2.920    -0.039    28.969     8.826
    22   6 C        2.924    -0.032    28.801     8.801
    23   6 C        2.910    -0.051    29.258     8.870
    24   6 C        3.069     0.046    26.895     8.504
    25   6 C        2.926    -0.055    29.370     8.887
    26   6 C        2.909     0.071    26.408     8.426
    27   7 N        2.803    -0.043    22.066     6.977
    28   6 C        3.069     0.046    26.904     8.505
    29   6 C        2.910    -0.051    29.266     8.871
    30   6 C        2.924    -0.033    28.810     8.802
    31   6 C        2.920    -0.039    28.976     8.827
    32   6 C        2.913    -0.032    28.794     8.799
    33   6 C        3.067    -0.015    28.309     8.725
    34   6 C        3.067    -0.015    28.318     8.726
    35   6 C        2.913    -0.032    28.798     8.800
    36   6 C        2.920    -0.039    28.966     8.826
    37   6 C        2.924    -0.031    28.780     8.798
    38   6 C        2.910    -0.050    29.238     8.867
    39   6 C        3.070     0.046    26.892     8.503
    40   6 C        2.927    -0.040    28.994     8.830
    41   1 H        0.925     0.048     2.344     2.394
    42   1 H        0.925     0.060     2.193     2.316
    43   1 H        0.925     0.065     2.136     2.285
    44   1 H        0.926     0.043     2.404     2.425
    45   1 H        0.926     0.025     2.658     2.550
    46   1 H        0.926     0.036     2.507     2.476
    47   1 H        0.926     0.032     2.557     2.501
    48   1 H        0.926     0.034     2.528     2.486
    49   1 H        0.926     0.034     2.528     2.486
    50   1 H        0.926     0.032     2.564     2.504
    51   1 H        0.926     0.032     2.553     2.499
    52   1 H        0.926     0.028     2.621     2.532
    53   1 H        0.926     0.060     2.198     2.319
    54   1 H        0.926     0.026     2.647     2.544
    55   1 H        0.926     0.031     2.566     2.505
    56   1 H        0.926     0.031     2.573     2.508
    57   1 H        0.926     0.034     2.532     2.488
    58   1 H        0.926     0.033     2.540     2.492
    59   1 H        0.926     0.031     2.568     2.506
    60   1 H        0.926     0.034     2.530     2.487
    61   1 H        0.926     0.033     2.542     2.493
    62   1 H        0.926     0.068     2.104     2.268

molecular dipole:
                 x           y           z       tot (Debye)
 q only:       -0.125       0.921      -0.233
   full:        0.074       0.984      -0.180       2.548

 projected vibrational frequencies (cm⁻¹)
eigval :       -0.00    -0.00    -0.00     0.00     0.00     0.00
eigval :       15.13    20.72    21.87    23.38    28.72    41.67
eigval :       55.13    65.17    70.90    97.95   101.40   119.50
eigval :      131.51   139.01   142.27   148.28   178.07   187.76
eigval :      205.12   243.26   248.11   253.11   271.92   272.37
eigval :      287.69   303.16   309.03   338.90   355.78   360.73
eigval :      393.34   395.76   396.92   422.58   422.76   436.72
eigval :      438.45   444.33   469.24   511.93   517.90   520.41
eigval :      533.49   540.98   541.08   544.07   557.85   587.44
eigval :      588.46   609.84   611.91   620.66   638.51   645.53
eigval :      669.14   673.66   675.32   683.43   706.83   708.24
eigval :      709.28   722.81   749.92   754.89   769.20   770.27
eigval :      770.48   781.04   781.76   794.76   837.72   842.70
eigval :      866.60   868.62   873.95   879.25   890.12   897.31
eigval :      897.53   899.64   903.23   904.28   906.00   907.51
eigval :      915.05   923.30   924.33   924.94   925.77   929.09
eigval :      929.70   992.21  1007.99  1011.80  1018.07  1034.98
eigval :     1050.32  1071.82  1072.23  1075.13  1075.56  1121.68
eigval :     1124.76  1136.08  1151.99  1153.05  1157.97  1166.51
eigval :     1175.64  1179.65  1180.64  1181.10  1182.77  1208.16
eigval :     1223.56  1228.12  1235.07  1235.79  1237.28  1241.45
eigval :     1248.57  1262.40  1295.74  1297.72  1300.70  1302.04
eigval :     1323.25  1334.38  1357.27  1357.78  1359.47  1361.76
eigval :     1385.18  1392.08  1396.74  1417.39  1419.94  1427.22
eigval :     1428.13  1456.45  1460.68  1475.62  1476.97  1486.99
eigval :     1487.09  1543.78  1548.21  1560.47  1565.89  1576.27
eigval :     1576.83  1589.39  1589.95  1599.56  1599.88  1613.75
eigval :     1614.43  1707.36  3042.72  3062.60  3068.20  3078.15
eigval :     3079.41  3080.55  3082.00  3083.34  3084.27  3085.90
eigval :     3088.13  3090.37  3091.36  3093.31  3095.49  3098.19
eigval :     3098.59  3099.09  3099.90  3102.74  3108.15  3109.25

   temp. (K)  partition function   enthalpy   heat capacity  entropy
                                   cal/mol     cal/K/mol   cal/K/mol   J/K/mol
 298.15  VIB  0.223E+14            17535.978    112.044    107.781
         ROT  0.449E+08              888.752      2.981     37.995
         INT  0.100E+22            18424.731    115.025    145.776
         TR   0.113E+29             1481.254      4.968     44.581
         TOT                       19905.9846   119.9930   190.3569   796.4531

       T/K    H(0)-H(T)+PV         H(T)/Eh          T*S/Eh         G(T)/Eh
   ------------------------------------------------------------------------
    298.15    0.317222E-01    0.496573E+00    0.904447E-01    0.406128E+00
   ------------------------------------------------------------------------

         :::::::::::::::::::::::::::::::::::::::::::::::::::::
         ::                  THERMODYNAMIC                  ::
         :::::::::::::::::::::::::::::::::::::::::::::::::::::
         :: total free energy        -101.566714480293 Eh   ::
         ::.................................................::
         :: total energy             -101.972842696447 Eh   ::
         :: zero point energy           0.464850701976 Eh   ::
         :: G(RRHO) w/o ZPVE           -0.058722485822 Eh   ::
         :: G(RRHO) contrib.            0.406128216154 Eh   ::
         :::::::::::::::::::::::::::::::::::::::::::::::::::::

           -------------------------------------------------
          | TOTAL ENERGY             -101.972842696447 Eh   |
          | TOTAL ENTHALPY           -101.476269788866 Eh   |
          | TOTAL FREE ENERGY        -101.566714480293 Eh   |
          | GRADIENT NORM               0.000166124877 Eh/α |
          | HOMO-LUMO GAP               1.630190666149 eV   |
           -------------------------------------------------

 * finished run on 2025/09/04 at 03:15:54.129
