   * xtb version 6.7.1 (edcfbbe) compiled by 'albert@albert-system' on 2024-07-22

   ID    Z sym.   atoms
    1    8 O      1
    2    6 C      2-4, 6, 8-11, 13-26, 28-40
    3    7 N      5, 7, 12, 27
    4    1 H      41-62

          program call               : xtb data2507/gas/35CzBPym/35CzBPym.xyz --gfn 2 --ohess vtight --parallel 40 --molden --ceasefiles --namespace data2507/gas/35CzBPym/35CzBPym_gas_S0_preOpt
          :  Hamiltonian                  GFN2-xTB          :
 * total energy  :  -101.9534476 Eh     change       -0.1493063E-08 Eh
 * total energy  :  -101.9679220 Eh     change       -0.1447441E-01 Eh
 * total energy  :  -101.9708573 Eh     change       -0.2935263E-02 Eh
 * total energy  :  -101.9713297 Eh     change       -0.4723495E-03 Eh
 * total energy  :  -101.9716943 Eh     change       -0.3645962E-03 Eh
 * total energy  :  -101.9718322 Eh     change       -0.1378975E-03 Eh
 * total energy  :  -101.9719597 Eh     change       -0.1275586E-03 Eh
 * total energy  :  -101.9720621 Eh     change       -0.1023938E-03 Eh
 * total energy  :  -101.9721583 Eh     change       -0.9624262E-04 Eh
 * total energy  :  -101.9722617 Eh     change       -0.1033558E-03 Eh
 * total energy  :  -101.9728382 Eh     change       -0.7821254E-06 Eh
 * total energy  :  -101.9728390 Eh     change       -0.7806896E-06 Eh
 * total energy  :  -101.9728398 Eh     change       -0.8262646E-06 Eh
 * total energy  :  -101.9728407 Eh     change       -0.8635593E-06 Eh
 * total energy  :  -101.9728414 Eh     change       -0.7504557E-06 Eh
 * total energy  :  -101.9728419 Eh     change       -0.5004679E-06 Eh
 * total energy  :  -101.9728422 Eh     change       -0.2655844E-06 Eh
 * total energy  :  -101.9728423 Eh     change       -0.1418201E-06 Eh
 * total energy  :  -101.9728423 Eh     change       -0.1743288E-08 Eh
   *** GEOMETRY OPTIMIZATION CONVERGED AFTER 44 ITERATIONS ***

 final structure:
================
62
 xtb: 6.7.1 (edcfbbe)
O            0.16756870645128       -4.45673721631174        1.02398712155634
C           -0.61290527744844       -3.64721526636733        0.57290792339247
C           -1.98555403707936       -4.03368061547878        0.15738546930504
C           -2.57188731310093       -3.58858748609379       -1.02853982362900
N           -3.79547567611579       -3.93597707969554       -1.38054129078115
C           -4.44075112119036       -4.75874200740962       -0.57292213412751
N           -3.97153443299419       -5.28212812406706        0.54551065609648
C           -2.75637122463132       -4.92102255331366        0.91152965423214
C           -0.26864876502407       -2.21646100070970        0.38268263658414
C           -1.23960519563261       -1.22266841699156        0.45748005881959
C           -0.87940719035875        0.11076490496450        0.28308394638620
N           -1.84525115241449        1.11419741379978        0.37242855645828
C           -3.09046166787982        1.09808937060700       -0.23423086572750
C           -3.64422622466426        0.16662956818026       -1.09975251935929
C           -4.91448701687402        0.41007243095346       -1.58717818040922
C           -5.61918785597659        1.55888612777529       -1.23733786916946
C           -5.06182719598478        2.50469998183057       -0.39998597454259
C           -3.78809275852062        2.27900625172848        0.10437922103201
C           -2.92151120436922        3.03584831793431        0.96503726105143
C           -3.06034112887023        4.24955145323467        1.62480241797518
C           -2.02290728796536        4.69161645987136        2.42117253633800
C           -0.86753893966141        3.93033189764244        2.57746407686883
C           -0.70680468221088        2.71950735613918        1.93016273125022
C           -1.73338245055576        2.28448493198170        1.10517311065282
C            0.44921824728297        0.44165073778951        0.03071719839549
C            1.42413787908328       -0.55103966986441       -0.02767954968167
N            2.75493433169472       -0.21075485090663       -0.26936350478711
C            3.21058718851599        0.63980723781162       -1.26216105132414
C            2.50551068089092        1.29365761134410       -2.26167425566296
C            3.22104262050147        2.06632909633677       -3.15722989933583
C            4.60599992076001        2.18278322266998       -3.07324416635956
C            5.31595244245999        1.51201557832270       -2.09736614338110
C            4.61859701944040        0.73003592483491       -1.18655849406483
C            5.02569450471166       -0.10315899080663       -0.08882549971652
C            6.25929833946909       -0.39692865807194        0.47677392775767
C            6.30123859579208       -1.24062979155422        1.56872063919647
C            5.13253516570491       -1.77513188936007        2.10525686680247
C            3.89338398769034       -1.49673649184013        1.55963013989952
C            3.84828667738250       -0.67082442253166        0.44639253280228
C            1.06168380617980       -1.88203370331549        0.15386091738667
H           -2.03300491706009       -2.95461590335089       -1.72230985330736
H           -5.44588477300376       -5.03726316524529       -0.86053440821635
H           -2.37869611575537       -5.33576597977640        1.83703530144915
H           -2.26292609335812       -1.46906747155102        0.69569797767733
H           -3.10595353616917       -0.71932540692455       -1.39853030744203
H           -5.36552797962343       -0.30786651367728       -2.25552469417445
H           -6.61047459463455        1.71242407857519       -1.63649164544123
H           -5.59922761352799        3.40453235784344       -0.14195145114299
H           -3.96521874335930        4.82824567705824        1.51845671495540
H           -2.10867754550674        5.63385161871873        2.94120276406422
H           -0.07984702300393        4.29069750067631        3.22223752617588
H            0.18501796391903        2.13023144579372        2.08102297797289
H            0.72614883689669        1.47461162061928       -0.11174918780512
H            1.43430698889028        1.19519812840902       -2.35397228595994
H            2.69298963045310        2.58754897536324       -3.94188597802578
H            5.12835744147574        2.79827458497194       -3.79017504675842
H            6.39142762638735        1.58563539079846       -2.04292305849383
H            7.16263627999469        0.03168838102725        0.07006256833997
H            7.25015705114083       -1.48507648589904        2.02207762568673
H            5.19393275066908       -2.42013512301403        2.96899003416475
H            2.99510378130202       -1.90522024057593        1.99668712480902
H            1.79785126937702       -2.66810811089776        0.09062792329460

          :  Hamiltonian                  GFN2-xTB          :
         :: gradient norm              0.000034258189 Eh/a0 ::
         :: HOMO-LUMO gap              1.628545323459 eV    ::
         :: SCC energy              -103.788514149718 Eh    ::
         :: -> dispersion             -0.086711262053 Eh    ::
         :: repulsion energy           1.815671810016 Eh    ::

    * Orbital Energies and Occupations

         #    Occupation            Energy/Eh            Energy/eV
      -------------------------------------------------------------
         1        2.0000           -0.7274587             -19.7952
       ...           ...                  ...                  ...
        82        2.0000           -0.4272483             -11.6260
        83        2.0000           -0.4255808             -11.5806
        84        2.0000           -0.4250264             -11.5656
        85        2.0000           -0.4235010             -11.5240
        86        2.0000           -0.4223553             -11.4929
        87        2.0000           -0.4125366             -11.2257
        88        2.0000           -0.4105549             -11.1718
        89        2.0000           -0.4069230             -11.0729
        90        2.0000           -0.3880885             -10.5604
        91        2.0000           -0.3858578             -10.4997
        92        2.0000           -0.3839221             -10.4471
        93        2.0000           -0.3730282             -10.1506
        94        2.0000           -0.3711236             -10.0988 (HOMO)
        95                         -0.3112756              -8.4702 (LUMO)
        96                         -0.2887270              -7.8567
        97                         -0.2716819              -7.3928
        98                         -0.2599071              -7.0724
        99                         -0.2512075              -6.8357
       100                         -0.2476517              -6.7389
       101                         -0.2291307              -6.2350
       102                         -0.2271487              -6.1810
       103                         -0.2236607              -6.0861
       104                         -0.1978341              -5.3833
       105                         -0.1954430              -5.3183
       ...                                ...                  ...
       182                          0.7403317              20.1455
      -------------------------------------------------------------
                  HL-Gap            0.0598480 Eh            1.6285 eV

     #   Z          covCN         q      C6AA      α(0)
     1   8 O        0.858    -0.352    20.741     6.106
     2   6 C        2.826     0.227    23.231     7.898
     3   6 C        2.960    -0.027    28.675     8.783
     4   6 C        2.935     0.083    26.140     8.385
     5   7 N        1.834    -0.218    26.597     7.642
     6   6 C        2.925     0.153    24.676     8.146
     7   7 N        1.834    -0.215    26.520     7.631
     8   6 C        2.936     0.089    26.011     8.364
     9   6 C        2.972    -0.013    28.343     8.733
    10   6 C        2.923    -0.050    29.234     8.867
    11   6 C        2.909     0.071    26.416     8.428
    12   7 N        2.802    -0.044    22.095     6.981
    13   6 C        3.069     0.046    26.910     8.506
    14   6 C        2.910    -0.051    29.269     8.871
    15   6 C        2.924    -0.032    28.800     8.801
    16   6 C        2.920    -0.039    28.965     8.826
    17   6 C        2.913    -0.032    28.794     8.799
    18   6 C        3.067    -0.015    28.317     8.726
    19   6 C        3.067    -0.015    28.312     8.725
    20   6 C        2.913    -0.032    28.793     8.799
    21   6 C        2.920    -0.039    28.969     8.826
    22   6 C        2.924    -0.032    28.801     8.801
    23   6 C        2.910    -0.051    29.258     8.870
    24   6 C        3.069     0.046    26.895     8.504
    25   6 C        2.926    -0.055    29.371     8.888
    26   6 C        2.909     0.071    26.408     8.426
    27   7 N        2.803    -0.043    22.066     6.977
    28   6 C        3.069     0.046    26.904     8.505
    29   6 C        2.910    -0.051    29.266     8.871
    30   6 C        2.924    -0.033    28.810     8.802
    31   6 C        2.920    -0.039    28.976     8.827
    32   6 C        2.913    -0.032    28.794     8.799
    33   6 C        3.067    -0.015    28.309     8.724
    34   6 C        3.067    -0.015    28.318     8.726
    35   6 C        2.913    -0.032    28.798     8.800
    36   6 C        2.920    -0.039    28.966     8.826
    37   6 C        2.924    -0.031    28.780     8.798
    38   6 C        2.910    -0.050    29.238     8.866
    39   6 C        3.070     0.046    26.893     8.503
    40   6 C        2.927    -0.040    28.995     8.831
    41   1 H        0.925     0.048     2.344     2.394
    42   1 H        0.925     0.061     2.193     2.316
    43   1 H        0.925     0.066     2.135     2.285
    44   1 H        0.926     0.043     2.404     2.425
    45   1 H        0.926     0.025     2.658     2.550
    46   1 H        0.926     0.036     2.508     2.476
    47   1 H        0.926     0.032     2.557     2.501
    48   1 H        0.926     0.034     2.528     2.486
    49   1 H        0.926     0.034     2.528     2.486
    50   1 H        0.926     0.032     2.564     2.504
    51   1 H        0.926     0.032     2.553     2.499
    52   1 H        0.926     0.028     2.621     2.532
    53   1 H        0.926     0.060     2.199     2.319
    54   1 H        0.926     0.026     2.647     2.544
    55   1 H        0.926     0.031     2.566     2.505
    56   1 H        0.926     0.031     2.573     2.508
    57   1 H        0.926     0.034     2.532     2.488
    58   1 H        0.926     0.033     2.540     2.492
    59   1 H        0.926     0.031     2.568     2.506
    60   1 H        0.926     0.034     2.530     2.487
    61   1 H        0.926     0.033     2.543     2.493
    62   1 H        0.926     0.068     2.107     2.270

molecular dipole:
                 x           y           z       tot (Debye)
 q only:       -0.210       0.904      -0.229
   full:       -0.016       0.983      -0.179       2.540

 projected vibrational frequencies (cm⁻¹)
eigval :       -0.00    -0.00    -0.00     0.00     0.00     0.00
eigval :       15.27    20.74    21.89    23.39    28.68    41.73
eigval :       55.42    65.29    70.91    97.95   101.37   119.37
eigval :      131.72   138.92   142.28   148.16   178.24   187.80
eigval :      205.09   243.53   248.04   253.05   271.95   272.36
eigval :      287.73   303.18   308.90   338.69   355.68   360.83
eigval :      393.15   395.72   396.83   422.59   422.77   436.72
eigval :      438.45   444.18   468.89   511.93   517.90   520.42
eigval :      533.46   540.99   541.09   544.06   558.00   587.46
eigval :      588.47   609.84   612.02   620.67   638.56   645.67
eigval :      669.15   673.66   675.32   683.50   706.75   708.24
eigval :      709.27   722.75   749.91   754.88   769.20   770.27
eigval :      770.50   781.04   781.75   794.79   837.72   842.69
eigval :      866.66   868.61   873.88   879.30   890.15   897.32
eigval :      897.52   899.60   903.20   904.24   906.06   907.54
eigval :      914.97   923.28   924.39   924.96   925.79   929.02
eigval :      929.69   992.21  1007.99  1011.79  1018.11  1034.89
eigval :     1050.31  1071.83  1072.24  1075.13  1075.56  1121.66
eigval :     1124.70  1136.02  1151.99  1153.05  1158.05  1166.47
eigval :     1175.60  1179.65  1180.65  1181.11  1182.75  1208.16
eigval :     1223.61  1228.11  1235.06  1235.77  1237.26  1241.33
eigval :     1248.57  1262.35  1295.73  1297.72  1300.71  1302.05
eigval :     1323.12  1334.30  1357.26  1357.76  1359.46  1361.75
eigval :     1385.23  1392.10  1396.68  1417.36  1419.96  1427.18
eigval :     1428.12  1456.43  1460.72  1475.62  1476.93  1486.96
eigval :     1487.08  1543.75  1548.25  1560.56  1565.88  1576.26
eigval :     1576.82  1589.40  1589.97  1599.57  1599.88  1613.75
eigval :     1614.43  1707.68  3042.50  3062.56  3068.22  3078.16
eigval :     3079.46  3080.57  3082.12  3083.33  3084.39  3085.87
eigval :     3088.11  3090.39  3091.47  3093.28  3095.47  3098.17
eigval :     3098.64  3099.16  3099.90  3102.65  3108.09  3109.17

   temp. (K)  partition function   enthalpy   heat capacity  entropy
                                   cal/mol     cal/K/mol   cal/K/mol   J/K/mol
 298.15  VIB  0.219E+14            17535.478    112.053    107.768
         ROT  0.449E+08              888.752      2.981     37.996
         INT  0.984E+21            18424.231    115.034    145.764
         TR   0.113E+29             1481.254      4.968     44.581
         TOT                       19905.4846   120.0019   190.3451   796.4038

       T/K    H(0)-H(T)+PV         H(T)/Eh          T*S/Eh         G(T)/Eh
   ------------------------------------------------------------------------
    298.15    0.317214E-01    0.496572E+00    0.904391E-01    0.406133E+00
   ------------------------------------------------------------------------

         :::::::::::::::::::::::::::::::::::::::::::::::::::::
         ::                  THERMODYNAMIC                  ::
         :::::::::::::::::::::::::::::::::::::::::::::::::::::
         :: total free energy        -101.566709705581 Eh   ::
         ::.................................................::
         :: total energy             -101.972842339701 Eh   ::
         :: zero point energy           0.464850313445 Eh   ::
         :: G(RRHO) w/o ZPVE           -0.058717679325 Eh   ::
         :: G(RRHO) contrib.            0.406132634120 Eh   ::
         :::::::::::::::::::::::::::::::::::::::::::::::::::::

           -------------------------------------------------
          | TOTAL ENERGY             -101.972842339701 Eh   |
          | TOTAL ENTHALPY           -101.476270617374 Eh   |
          | TOTAL FREE ENERGY        -101.566709705581 Eh   |
          | GRADIENT NORM               0.000034256543 Eh/α |
          | HOMO-LUMO GAP               1.628545749777 eV   |
           -------------------------------------------------

 * finished run on 2025/09/04 at 03:13:19.470
