   * xtb version 6.7.1 (edcfbbe) compiled by 'albert@albert-system' on 2024-07-22

   ID    Z sym.   atoms
    1    8 O      1
    2    6 C      2-4, 6, 8-11, 13-26, 28-40
    3    7 N      5, 7, 12, 27
    4    1 H      41-62

          program call               : xtb data2507/gas/35CzBPym/35CzBPym_gas_S0_finalOpt.xtbopt.xyz --gfn 2 --spinpol --tblite --uhf 2 --ohess vtight --parallel 40 --molden --ceasefiles --namespace data2507/gas/35CzBPym/35CzBPym_gas_T1_preOpt
 * total energy  :  -101.8935509 Eh     change       -0.1527617E-07 Eh
 * total energy  :  -101.8977162 Eh     change       -0.4165249E-02 Eh
 * total energy  :  -101.8993563 Eh     change       -0.1640145E-02 Eh
 * total energy  :  -101.9000349 Eh     change       -0.6785545E-03 Eh
 * total energy  :  -101.9007981 Eh     change       -0.7631907E-03 Eh
 * total energy  :  -101.9014847 Eh     change       -0.6866365E-03 Eh
 * total energy  :  -101.9021101 Eh     change       -0.6253948E-03 Eh
 * total energy  :  -101.9024308 Eh     change       -0.3206904E-03 Eh
 * total energy  :  -101.9026223 Eh     change       -0.1915177E-03 Eh
 * total energy  :  -101.9027633 Eh     change       -0.1409885E-03 Eh
 * total energy  :  -101.9037163 Eh     change       -0.4411232E-06 Eh
 * total energy  :  -101.9037166 Eh     change       -0.3056586E-06 Eh
 * total energy  :  -101.9037168 Eh     change       -0.2388232E-06 Eh
 * total energy  :  -101.9037170 Eh     change       -0.1807974E-06 Eh
 * total energy  :  -101.9037172 Eh     change       -0.1928439E-06 Eh
 * total energy  :  -101.9037172 Eh     change        0.2954721E-09 Eh
 * total energy  :  -101.9037172 Eh     change        0.2010798E-07 Eh
 * total energy  :  -101.9037171 Eh     change        0.3547618E-07 Eh
 * total energy  :  -101.9037172 Eh     change       -0.4224539E-07 Eh
   *** GEOMETRY OPTIMIZATION CONVERGED AFTER 47 ITERATIONS ***

 final structure:
================
62
 xtb: 6.7.1 (edcfbbe)
O           -0.15558328186274       -4.00572274291141        1.34814491673363
C           -0.90860273594677       -3.25978536017134        0.68073504114155
C           -2.17527464412819       -3.68093170663980        0.18536260107424
C           -2.98300042168830       -3.05298272443423       -0.79990396294526
N           -4.12250727883280       -3.53230342820761       -1.20866422288342
C           -4.56130243177562       -4.68191075881432       -0.70121959356618
N           -3.84206702817254       -5.38036671424790        0.17338183155095
C           -2.70411191236574       -4.94244328249437        0.59917237397588
C           -0.45583231955040       -1.87810907211751        0.37830123547923
C           -1.31894341176901       -0.78238275189508        0.39675557289147
C           -0.81917583588697        0.49739710731433        0.17781562328970
N           -1.67878011485083        1.60114869244849        0.24960210481858
C           -2.87899551665983        1.74501490415849       -0.41757012157631
C           -3.46985377557696        0.91867707381632       -1.36203726475627
C           -4.67932047141450        1.31318692489205       -1.90177017881857
C           -5.28620416482231        2.50806934070023       -1.52373759877775
C           -4.68879816435821        3.35028098855546       -0.60461509031021
C           -3.47595218928443        2.97222864398937       -0.04738512735296
C           -2.58632138320873        3.58928557454234        0.89899910940596
C           -2.63065593614859        4.77591818480534        1.61616107092106
C           -1.59272311558084        5.06436061133736        2.48225554319768
C           -0.53031541211327        4.17960671218291        2.64761733955694
C           -0.46419443837993        2.99156396765784        1.94386507468115
C           -1.49112154759887        2.70860933481197        1.05455034576860
C            0.54023057848343        0.69841143395489       -0.04143945454553
C            1.40545997642265       -0.39271961335310       -0.02792891300824
N            2.77574034859576       -0.20573850385732       -0.23310529940379
C            3.35140908769580        0.52769138386950       -1.25150245864035
C            2.75122200967996        1.20270372311921       -2.30534054686594
C            3.57376750413904        1.84874844168638       -3.20954111333288
C            4.95965767766730        1.82006002202099       -3.08037036200469
C            5.56402052728451        1.12740858131006       -2.04739537272603
C            4.75931161125073        0.47128000921752       -1.12821485273132
C            5.03618270264346       -0.34131195043976        0.02609238962271
C            6.20802139529078       -0.74047598927579        0.65158643727304
C            6.11681306299910       -1.52802882369609        1.78444090985379
C            4.87864047219631       -1.90277894923390        2.29961839927282
C            3.69707057450469       -1.51523668425829        1.69537487740131
C            3.78404357173129       -0.74476377020445        0.54392115377417
C            0.90786478165199       -1.67270290266648        0.17529084064145
H           -2.64530554854362       -2.14755921344330       -1.28800206213285
H           -5.51289107389237       -5.06661346228221       -1.02307814421900
H           -2.12494896300735       -5.53990062075872        1.29173362747263
H           -2.36119669044820       -0.90228422935248        0.65015577297772
H           -2.99814800271379        0.00145896341388       -1.67798729905282
H           -5.16085843570827        0.68123323321175       -2.63250828831331
H           -6.23292613883411        2.78153414716422       -1.96453714341761
H           -5.15100326663287        4.28500590477876       -0.32601519344903
H           -3.46184829507518        5.45457997011061        1.50029127715790
H           -1.60683978017324        5.98368134285754        3.04805609870001
H            0.25797167454610        4.42410980742694        3.34375174278068
H            0.35352820136169        2.30348209094991        2.09516165741895
H            0.92176483989782        1.69553917139529       -0.19547799281286
H            1.67899136072983        1.21311745694137       -2.42841921409341
H            3.13069362734450        2.38326117901416       -4.03648463586709
H            5.56825196522590        2.33878177530504       -3.80565800517665
H            6.63897352997426        1.09173527750486       -1.95769320196234
H            7.16777042717030       -0.43804270040488        0.26114793077952
H            7.01697619553932       -1.85291760990244        2.28417487357549
H            4.83849982630142       -2.50836796419572        3.19229390522475
H            2.74395902597602       -1.80252085977703        2.11121083254166
H            1.56819810154733       -2.52546689157255        0.15899804254897

 projected vibrational frequencies (cm⁻¹)
eigval :       -0.00    -0.00    -0.00     0.00     0.00     0.00
eigval :       15.12    19.79    21.18    25.12    31.66    41.36
eigval :       56.77    70.80    80.45    97.59   102.67   127.15
eigval :      133.32   137.06   140.75   146.43   178.09   192.46
eigval :      209.70   241.71   250.46   261.65   270.44   271.36
eigval :      287.76   301.01   325.90   333.52   365.57   383.82
eigval :      392.56   394.60   418.37   421.81   422.24   434.58
eigval :      435.93   437.02   469.11   507.44   516.18   518.09
eigval :      532.71   538.30   538.71   543.11   545.01   581.30
eigval :      586.39   587.16   603.82   616.97   619.36   633.08
eigval :      637.52   650.37   663.46   666.80   673.78   675.10
eigval :      708.77   709.63   739.84   748.36   753.83   766.97
eigval :      769.26   769.68   777.96   778.56   779.81   807.57
eigval :      834.53   850.94   862.97   866.02   871.79   877.59
eigval :      883.17   887.86   894.07   898.22   900.11   904.01
eigval :      905.98   906.52   909.88   921.80   922.22   923.46
eigval :      924.64   948.92   986.43  1008.28  1011.70  1025.74
eigval :     1033.98  1067.66  1070.17  1072.26  1073.31  1096.25
eigval :     1119.51  1121.27  1130.01  1142.54  1147.16  1148.24
eigval :     1165.08  1176.44  1179.11  1179.25  1179.72  1200.39
eigval :     1204.23  1209.49  1224.11  1230.51  1231.94  1232.92
eigval :     1234.67  1248.77  1275.14  1289.91  1291.87  1294.01
eigval :     1296.25  1322.56  1326.78  1338.99  1348.40  1352.49
eigval :     1358.46  1359.49  1372.29  1410.37  1412.65  1417.86
eigval :     1419.24  1441.49  1445.77  1450.74  1466.47  1466.86
eigval :     1469.03  1483.63  1484.91  1518.50  1535.27  1565.52
eigval :     1569.82  1571.06  1583.72  1586.19  1586.46  1589.64
eigval :     1604.41  1608.99  3035.39  3042.96  3081.43  3081.72
eigval :     3083.39  3083.92  3086.40  3086.56  3089.20  3090.21
eigval :     3093.13  3093.67  3095.62  3096.92  3097.11  3099.88
eigval :     3100.10  3102.51  3103.36  3105.36  3110.72  3120.62

   temp. (K)  partition function   enthalpy   heat capacity  entropy
                                   cal/mol     cal/K/mol   cal/K/mol   J/K/mol
 298.15  VIB  0.165E+14            17628.672    113.728    107.841
         ROT  0.462E+08              888.752      2.981     38.053
         INT  0.762E+21            18517.424    116.709    145.894
         TR   0.113E+29             1481.254      4.968     44.581
         TOT                       19998.6780   121.6772   190.4744   796.9447

       T/K    H(0)-H(T)+PV         H(T)/Eh          T*S/Eh         G(T)/Eh
   ------------------------------------------------------------------------
    298.15    0.318699E-01    0.493046E+00    0.905005E-01    0.402546E+00
   ------------------------------------------------------------------------

         :::::::::::::::::::::::::::::::::::::::::::::::::::::
         ::                  THERMODYNAMIC                  ::
         :::::::::::::::::::::::::::::::::::::::::::::::::::::
         :: total free energy        -101.501171320734 Eh   ::
         ::.................................................::
         :: total energy             -101.903717198655 Eh   ::
         :: zero point energy           0.461176466979 Eh   ::
         :: G(RRHO) w/o ZPVE           -0.058630589057 Eh   ::
         :: G(RRHO) contrib.            0.402545877921 Eh   ::
         :::::::::::::::::::::::::::::::::::::::::::::::::::::

           -------------------------------------------------
          | TOTAL ENERGY             -101.903717198655 Eh   |
          | TOTAL ENTHALPY           -101.410670809733 Eh   |
          | TOTAL FREE ENERGY        -101.501171320734 Eh   |
          | GRADIENT NORM               0.000140446648 Eh/α |
           -------------------------------------------------

 * finished run on 2025/09/04 at 03:16:02.655
