   * xtb version 6.7.1 (edcfbbe) compiled by 'albert@albert-system' on 2024-07-22

   ID    Z sym.   atoms
    1    6 C      1-14, 16-21, 23-37, 39, 40
    2    7 N      15, 22, 38
    3    1 H      41-67

          program call               : xtb data2507/toluene/FlCz/FlCz_toluene_S0_finalOpt.xtbopt.xyz --gfn 2 --uhf 2 --gbsa toluene --ohess vtight --parallel 40 --molden --ceasefiles --namespace data2507/toluene/FlCz/FlCz_toluene_T1_preOpt
      * Solvation model:               GBSA
        Solvent                        toluene
        Solvent mass                       9.2140E+01 g/mol
          :  Hamiltonian                  GFN2-xTB          :
 * total energy  :  -101.7848160 Eh     change        0.4005756E-09 Eh
 * total energy  :  -101.7900522 Eh     change       -0.5236125E-02 Eh
 * total energy  :  -101.7919666 Eh     change       -0.1914429E-02 Eh
 * total energy  :  -101.7921126 Eh     change       -0.1459735E-03 Eh
 * total energy  :  -101.7923434 Eh     change       -0.2308629E-03 Eh
 * total energy  :  -101.7924262 Eh     change       -0.8273969E-04 Eh
 * total energy  :  -101.7924908 Eh     change       -0.6461597E-04 Eh
 * total energy  :  -101.7925204 Eh     change       -0.2957603E-04 Eh
 * total energy  :  -101.7925352 Eh     change       -0.1485365E-04 Eh
 * total energy  :  -101.7925471 Eh     change       -0.1189260E-04 Eh
 * total energy  :  -101.7929693 Eh     change       -0.9191247E-06 Eh
 * total energy  :  -101.7929702 Eh     change       -0.8790140E-06 Eh
 * total energy  :  -101.7929710 Eh     change       -0.8571449E-06 Eh
 * total energy  :  -101.7929718 Eh     change       -0.8203600E-06 Eh
 * total energy  :  -101.7929726 Eh     change       -0.8060678E-06 Eh
 * total energy  :  -101.7929734 Eh     change       -0.7816852E-06 Eh
 * total energy  :  -101.7929742 Eh     change       -0.7795036E-06 Eh
 * total energy  :  -101.7929750 Eh     change       -0.7650689E-06 Eh
 * total energy  :  -101.7929750 Eh     change       -0.5191140E-08 Eh
   *** GEOMETRY OPTIMIZATION CONVERGED AFTER 122 ITERATIONS ***

 final structure:
================
67
 xtb: 6.7.1 (edcfbbe)
C           -6.95445492541076        2.63275329826571        0.65417681079010
C           -7.09386693719539        1.48362167243335       -0.35099821184629
C           -7.00782859791007        2.01736637449122       -1.78492807804041
C           -8.37738094042171        0.71561236681890       -0.12481802943380
C           -9.67647835217313        1.15874042647966       -0.20966139189253
C          -10.71254800296471        0.26590345636499        0.04959741488707
C          -10.44383378437427       -1.05446453304291        0.39001510871156
C           -9.14311488042938       -1.51316332361987        0.47879709989809
C           -8.10005351410328       -0.62501729260805        0.22098765050472
C           -6.67810707713155       -0.81256134208153        0.23922988351745
C           -5.89867527131860       -1.94023295575654        0.52547291151618
C           -4.53437928313118       -1.84002910699816        0.47741752482121
C           -3.89499474225276       -0.61906705315997        0.13903968218979
C           -2.48561178421690       -0.53279198986879        0.09971396696011
N           -1.87529164473657        0.63677902187802       -0.23565101725462
C           -0.58890819709175        0.72414341464884       -0.27140308585246
C            0.29203341761258       -0.35231385283753        0.04343495202890
C            1.71500622112189       -0.25641332856442        0.02438778629502
C            2.37940609026194        0.72875065137454       -0.74139433321261
C            3.74685576045535        0.82764246724289       -0.75074918446501
C            4.53104586178875       -0.05679623929998        0.00106975512564
N            5.92237460088172        0.04585619700041       -0.00685638394113
C            6.81059199716125       -0.99876712242276       -0.17864456137602
C            6.56008025852649       -2.34024716908281       -0.43736515412311
C            7.64590622271750       -3.18102360620938       -0.59927474053375
C            8.95237321160531       -2.70447092473480       -0.52036399855173
C            9.20843180590746       -1.36395797663328       -0.29379303254774
C            8.13475630415287       -0.50195062752222       -0.12675525125244
C            8.03003996207933        0.91613759648042        0.09325679752161
C            8.96544924200246        1.92786697927119        0.25203273057705
C            8.51520703335384        3.21537672202955        0.48327798013954
C            7.15324496435434        3.49264089998070        0.57496748731796
C            6.20278545700855        2.50009542469917        0.42157708445972
C            6.64736861383662        1.21084497278460        0.15797176226391
C            3.89227656123641       -1.04465314450139        0.76162890178806
C            2.52458314740647       -1.13997641894106        0.77422803221516
C           -0.42889304723823       -1.53486878151595        0.38375131566956
N           -1.71616811737234       -1.61421241454914        0.40018228752034
C           -4.69375635329922        0.51658819303179       -0.15491952312216
C           -6.05168069263010        0.41432576435656       -0.09949490622779
H           -7.74099872873195        3.36764848336310        0.49943643788505
H           -7.02734144051225        2.25391883243643        1.67180570931800
H           -5.99005066157517        3.12043671223205        0.53396904978777
H           -7.79988593857118        2.74000855231727       -1.96704474387591
H           -7.10982329249269        1.20161257670121       -2.49794227339956
H           -6.04786190074913        2.50161274854099       -1.94692581211423
H           -9.89958896867134        2.18274075170945       -0.47259954395715
H          -11.73706375656577        0.60286812069666       -0.01395199714247
H          -11.26474611530245       -1.72952682002427        0.58702663156971
H           -8.93689736562494       -2.53984871565787        0.74318071817137
H           -6.37206558729283       -2.87772510612559        0.77931493457555
H           -3.90677628227163       -2.69223069776201        0.69061196757588
H           -0.19297297104598        1.70510177605314       -0.50446062771881
H            1.80106237488740        1.39981426187202       -1.35779819015354
H            4.23126361695382        1.56801620189787       -1.37003518204631
H            5.55227279518305       -2.71602863391663       -0.52386959146944
H            7.47632656397949       -4.22915024245373       -0.79690891261835
H            9.77442294592501       -3.39269206936956       -0.64960371216912
H           10.22116989017168       -0.99263053225743       -0.25312833742324
H           10.02167515783922        1.71091896860792        0.20219443154583
H            9.22711182351027        4.01803662754881        0.60611759349863
H            6.83180319963310        4.50388238735293        0.77596628998750
H            5.15123544721513        2.72215618550647        0.51795310490075
H            4.48611858934315       -1.70926680031446        1.37144880146879
H            2.05688512348792       -1.88635512536383        1.39787117632405
H            0.09940093734757       -2.45708122942609        0.59310059261919
H           -4.19450776766267        1.43966175769727       -0.40713049597500

          :  Hamiltonian                  GFN2-xTB          :
         :: gradient norm              0.000067396898 Eh/a0 ::
         :: HOMO-LUMO gap              0.798459582958 eV    ::
         :: SCC energy              -103.653882170616 Eh    ::
         :: -> dispersion             -0.087127347441 Eh    ::
         :: -> Gsolv                  -0.043754857162 Eh    ::
         :: repulsion energy           1.860907195579 Eh    ::

    * Orbital Energies and Occupations

         #    Occupation            Energy/Eh            Energy/eV
      -------------------------------------------------------------
         1        2.0000           -0.6864792             -18.6801
       ...           ...                  ...                  ...
        84        2.0000           -0.4168185             -11.3422
        85        2.0000           -0.4139640             -11.2645
        86        2.0000           -0.4103807             -11.1670
        87        2.0000           -0.4099494             -11.1553
        88        2.0000           -0.4061526             -11.0520
        89        2.0000           -0.3997767             -10.8785
        90        2.0000           -0.3967244             -10.7954
        91        2.0000           -0.3932544             -10.7010
        92        2.0000           -0.3876595             -10.5488
        93        2.0000           -0.3740815             -10.1793
        94        1.7521           -0.3656740              -9.9505
        95        1.2479           -0.3635650              -9.8931
        96        1.0000           -0.2865269              -7.7968 (HOMO)
        97        0.0000           -0.2571838              -6.9983 (LUMO)
        98                         -0.2543938              -6.9224
        99                         -0.2470129              -6.7216
       100                         -0.2315265              -6.3002
       101                         -0.2310130              -6.2862
       102                         -0.2201146              -5.9896
       103                         -0.2173566              -5.9146
       104                         -0.2101192              -5.7176
       105                         -0.1997364              -5.4351
       106                         -0.1947862              -5.3004
       107                         -0.1720237              -4.6810
       ...                                ...                  ...
       187                          0.7353788              20.0107
      -------------------------------------------------------------
                  HL-Gap            0.0293431 Eh            0.7985 eV

     #   Z          covCN         q      C6AA      α(0)
     1   6 C        3.758    -0.100    22.452     6.755
     2   6 C        3.933     0.018    20.214     6.389
     3   6 C        3.758    -0.100    22.456     6.756
     4   6 C        3.054    -0.000    27.981     8.675
     5   6 C        2.913    -0.035    28.870     8.811
     6   6 C        2.921    -0.034    28.859     8.810
     7   6 C        2.918    -0.034    28.835     8.806
     8   6 C        2.912    -0.037    28.930     8.820
     9   6 C        3.033     0.002    27.951     8.672
    10   6 C        3.035    -0.008    28.173     8.706
    11   6 C        2.908    -0.035    28.871     8.811
    12   6 C        2.921    -0.041    29.030     8.836
    13   6 C        2.977    -0.005    28.153     8.703
    14   6 C        2.918     0.140    24.954     8.192
    15   7 N        1.838    -0.229    26.849     7.679
    16   6 C        2.898     0.070    26.439     8.431
    17   6 C        2.963    -0.039    28.961     8.827
    18   6 C        2.967     0.003    27.955     8.673
    19   6 C        2.921    -0.039    28.981     8.828
    20   6 C        2.916    -0.041    29.028     8.835
    21   6 C        2.912     0.051    26.852     8.497
    22   7 N        2.800    -0.019    21.620     6.906
    23   6 C        3.072     0.046    26.890     8.502
    24   6 C        2.909    -0.045    29.122     8.849
    25   6 C        2.923    -0.032    28.807     8.802
    26   6 C        2.920    -0.036    28.895     8.815
    27   6 C        2.912    -0.031    28.772     8.796
    28   6 C        3.065    -0.013    28.281     8.720
    29   6 C        3.065    -0.013    28.281     8.720
    30   6 C        2.912    -0.031    28.772     8.796
    31   6 C        2.920    -0.036    28.895     8.815
    32   6 C        2.923    -0.032    28.808     8.802
    33   6 C        2.909    -0.045    29.122     8.849
    34   6 C        3.072     0.046    26.890     8.502
    35   6 C        2.916    -0.041    29.027     8.835
    36   6 C        2.921    -0.039    28.979     8.828
    37   6 C        2.898     0.070    26.434     8.430
    38   7 N        1.837    -0.230    26.867     7.681
    39   6 C        2.916    -0.044    29.094     8.845
    40   6 C        3.045     0.001    27.973     8.674
    41   1 H        0.925     0.045     2.387     2.416
    42   1 H        0.925     0.034     2.531     2.488
    43   1 H        0.925     0.044     2.396     2.420
    44   1 H        0.925     0.045     2.388     2.416
    45   1 H        0.925     0.034     2.528     2.487
    46   1 H        0.925     0.044     2.396     2.420
    47   1 H        0.926     0.031     2.573     2.508
    48   1 H        0.926     0.030     2.585     2.514
    49   1 H        0.926     0.029     2.603     2.523
    50   1 H        0.926     0.029     2.600     2.521
    51   1 H        0.926     0.031     2.569     2.507
    52   1 H        0.926     0.038     2.472     2.459
    53   1 H        0.925     0.045     2.388     2.417
    54   1 H        0.926     0.035     2.516     2.480
    55   1 H        0.926     0.043     2.409     2.427
    56   1 H        0.926     0.038     2.473     2.459
    57   1 H        0.926     0.037     2.483     2.464
    58   1 H        0.926     0.037     2.493     2.469
    59   1 H        0.926     0.039     2.461     2.453
    60   1 H        0.926     0.039     2.461     2.453
    61   1 H        0.926     0.037     2.493     2.469
    62   1 H        0.926     0.038     2.482     2.463
    63   1 H        0.926     0.038     2.471     2.458
    64   1 H        0.926     0.043     2.411     2.428
    65   1 H        0.926     0.035     2.520     2.482
    66   1 H        0.925     0.044     2.394     2.419
    67   1 H        0.926     0.039     2.459     2.452

molecular dipole:
                 x           y           z       tot (Debye)
 q only:        1.819       0.539      -0.124
   full:        2.173       0.496      -0.113       5.672

 projected vibrational frequencies (cm⁻¹)
eigval :       -0.00    -0.00    -0.00     0.00     0.00     0.00
eigval :        9.66    12.33    19.91    32.38    47.88    52.53
eigval :       60.11    81.17    87.72    97.66   107.37   109.70
eigval :      119.88   122.62   144.97   146.64   179.54   189.20
eigval :      203.79   208.96   220.05   243.61   244.76   257.08
eigval :      270.79   288.09   302.88   307.14   317.93   333.04
eigval :      367.88   374.97   375.90   391.90   402.76   405.71
eigval :      414.71   421.20   433.05   439.47   454.32   458.71
eigval :      492.51   495.48   515.67   519.70   529.24   538.00
eigval :      539.98   557.48   566.93   577.72   582.35   582.60
eigval :      589.99   610.52   618.54   651.57   666.27   673.39
eigval :      674.51   683.14   685.80   708.81   715.41   718.12
eigval :      738.12   756.33   764.36   768.43   773.53   777.86
eigval :      790.96   802.02   816.35   824.33   841.35   858.65
eigval :      860.09   862.18   871.04   871.72   895.11   901.31
eigval :      901.66   901.87   902.24   914.09   914.92   917.75
eigval :      918.89   923.96   927.17   935.13   955.49   964.05
eigval :      975.76   996.09  1010.00  1011.74  1043.14  1054.01
eigval :     1068.34  1071.10  1071.34  1072.83  1099.59  1104.00
eigval :     1113.44  1134.41  1141.96  1146.79  1149.35  1171.53
eigval :     1172.21  1178.12  1179.70  1180.68  1188.78  1206.17
eigval :     1215.26  1218.68  1229.89  1238.81  1242.50  1260.47
eigval :     1268.87  1272.05  1277.72  1279.45  1287.72  1292.98
eigval :     1322.42  1336.62  1345.04  1345.35  1347.60  1354.36
eigval :     1359.16  1381.59  1390.62  1407.26  1409.74  1414.12
eigval :     1420.81  1424.86  1437.94  1452.95  1460.75  1462.36
eigval :     1476.04  1478.32  1481.35  1481.40  1486.22  1488.99
eigval :     1492.19  1497.08  1500.46  1537.36  1562.52  1566.68
eigval :     1574.59  1578.62  1580.78  1589.81  1594.04  1603.22
eigval :     3025.32  3027.68  3028.95  3029.95  3031.18  3031.83
eigval :     3036.45  3038.91  3065.51  3069.54  3070.69  3078.11
eigval :     3078.17  3078.37  3082.05  3083.63  3083.93  3084.88
eigval :     3085.57  3088.34  3090.35  3091.85  3092.99  3094.20
eigval :     3096.33  3097.59  3098.63

   temp. (K)  partition function   enthalpy   heat capacity  entropy
                                   cal/mol     cal/K/mol   cal/K/mol   J/K/mol
 298.15  VIB  0.556E+14            18604.046    121.022    114.263
         ROT  0.673E+08              888.752      2.981     38.801
         INT  0.374E+22            19492.798    124.003    153.064
         TR   0.113E+29             1481.254      4.968     44.575
         TOT                       20974.0521   128.9709   197.6398   826.9248

       T/K    H(0)-H(T)+PV         H(T)/Eh          T*S/Eh         G(T)/Eh
   ------------------------------------------------------------------------
    298.15    0.334243E-01    0.551102E+00    0.939050E-01    0.457197E+00
   ------------------------------------------------------------------------

         :::::::::::::::::::::::::::::::::::::::::::::::::::::
         ::                  THERMODYNAMIC                  ::
         :::::::::::::::::::::::::::::::::::::::::::::::::::::
         :: total free energy        -101.335777599395 Eh   ::
         ::.................................................::
         :: total energy             -101.792974973954 Eh   ::
         :: zero point energy           0.517678130203 Eh   ::
         :: G(RRHO) w/o ZPVE           -0.060480755644 Eh   ::
         :: G(RRHO) contrib.            0.457197374559 Eh   ::
         :::::::::::::::::::::::::::::::::::::::::::::::::::::

           -------------------------------------------------
          | TOTAL ENERGY             -101.792974973954 Eh   |
          | TOTAL ENTHALPY           -101.241872564188 Eh   |
          | TOTAL FREE ENERGY        -101.335777599395 Eh   |
          | GRADIENT NORM               0.000067621818 Eh/α |
          | HOMO-LUMO GAP               0.798466187444 eV   |
           -------------------------------------------------

 * finished run on 2025/09/03 at 18:24:41.189
