   * xtb version 6.7.1 (edcfbbe) compiled by 'albert@albert-system' on 2024-07-22

   ID    Z sym.   atoms
    1    6 C      1-14, 16-21, 23-37, 39, 40
    2    7 N      15, 22, 38
    3    1 H      41-67

          program call               : xtb data2507/toluene/FlCz/FlCz_toluene_T1_crest.xyz --gfn 2 --uhf 2 --gbsa toluene --ohess vtight --parallel 40 --molden --ceasefiles --namespace data2507/toluene/FlCz/FlCz_toluene_T1_finalOpt
      * Solvation model:               GBSA
        Solvent                        toluene
        Solvent mass                       9.2140E+01 g/mol
          :  Hamiltonian                  GFN2-xTB          :
 * total energy  :  -101.7934102 Eh     change       -0.1441045E-07 Eh
 * total energy  :  -101.7934473 Eh     change       -0.3713472E-04 Eh
 * total energy  :  -101.7934600 Eh     change       -0.1269073E-04 Eh
 * total energy  :  -101.7934622 Eh     change       -0.2169135E-05 Eh
 * total energy  :  -101.7934635 Eh     change       -0.1291570E-05 Eh
 * total energy  :  -101.7934653 Eh     change       -0.1792328E-05 Eh
 * total energy  :  -101.7934673 Eh     change       -0.2048301E-05 Eh
 * total energy  :  -101.7934687 Eh     change       -0.1378582E-05 Eh
 * total energy  :  -101.7934694 Eh     change       -0.7605563E-06 Eh
 * total energy  :  -101.7934702 Eh     change       -0.7247150E-06 Eh
 * total energy  :  -101.7934749 Eh     change       -0.1285153E-05 Eh
 * total energy  :  -101.7934761 Eh     change       -0.1242047E-05 Eh
 * total energy  :  -101.7934773 Eh     change       -0.1205529E-05 Eh
 * total energy  :  -101.7934784 Eh     change       -0.1068560E-05 Eh
 * total energy  :  -101.7934793 Eh     change       -0.8725871E-06 Eh
 * total energy  :  -101.7934800 Eh     change       -0.7361531E-06 Eh
 * total energy  :  -101.7934807 Eh     change       -0.7263040E-06 Eh
 * total energy  :  -101.7934815 Eh     change       -0.7577299E-06 Eh
 * total energy  :  -101.7934815 Eh     change       -0.1731220E-07 Eh
   *** GEOMETRY OPTIMIZATION CONVERGED AFTER 22 ITERATIONS ***

 final structure:
================
67
 xtb: 6.7.1 (edcfbbe)
C           -6.99851908639880        2.55889058173838       -0.89060253648887
C           -7.10073982473946        1.04845988164810       -1.12954206357870
C           -6.97860870636846        0.73597921537027       -2.62508493636925
C           -8.38426498953854        0.48848115614806       -0.55672797779906
C           -9.68445477826518        0.79239108073496       -0.88745177486037
C          -10.71968568368930        0.14355957247941       -0.22080153373866
C          -10.44956691220189       -0.79822159134806        0.76426683923851
C           -9.14751615333508       -1.11321317128145        1.10586585824726
C           -8.10614528059653       -0.46688955687573        0.44365373840555
C           -6.68204854425140       -0.58603067117378        0.58570386709555
C           -5.90308441276020       -1.38511241707405        1.42956779687147
C           -4.53779046628794       -1.30113216490682        1.35773243162789
C           -3.89995310943734       -0.42223208561964        0.44641615027053
C           -2.48907738961040       -0.35017430032257        0.38714186625039
N           -1.87360776846177        0.46282727408939       -0.51301488788571
C           -0.58773480192447        0.53429298535238       -0.57176172508904
C            0.29404376550576       -0.21193634250937        0.26655594606276
C            1.71535193418211       -0.14605627800427        0.20099131931295
C            2.38107223228397        0.94125267985724       -0.41285922400796
C            3.74829321845117        1.00058904371052       -0.48241289493332
C            4.53574170529727       -0.02557839459857        0.05669907060550
N            5.92681734836397        0.02982253931474       -0.01984471340550
C            6.75399011119866       -0.99431422327219       -0.44009035114061
C            6.42571641694298       -2.25565838295492       -0.92003309839711
C            7.45969772910890       -3.08941794779743       -1.30496524802761
C            8.78902428915154       -2.68057574164400       -1.22972603878000
C            9.12055214306608       -1.41408393510861       -0.78184490305127
C            8.10028052973589       -0.56130255695362       -0.38794940552998
C            8.07420318131195        0.79431123920820        0.09476090232711
C            9.06216229348522        1.72725202960690        0.37207725208219
C            8.68521991069339        2.96376788376571        0.86542581568665
C            7.34557520526006        3.26423832470232        1.10002042749808
C            6.34340163927909        2.34983421359860        0.83173001356451
C            6.71295642809084        1.11806687365263        0.30714112886667
C            3.89743055642495       -1.11034158434910        0.67274096744461
C            2.53036947888827       -1.16747053517626        0.74375475733494
C           -0.43395412144762       -1.03736046382590        1.17543011718446
N           -1.72060846731359       -1.09340726250107        1.22750594769024
C           -4.69821271088764        0.38445004428101       -0.40369168368862
C           -6.05728064689538        0.29795963024628       -0.32889284261348
H           -6.03759865828288        2.92908854056311       -1.23972102046637
H           -7.78975403205618        3.08030638761397       -1.42422645177182
H           -7.09041010737758        2.77914802487402        0.17124048240244
H           -7.77257583916449        1.22993092762326       -3.18037716307928
H           -7.05161095272772       -0.33686363732353       -2.79287254883569
H           -6.01930472114860        1.08160076744920       -3.00269536548297
H           -9.90891440104212        1.52225465099801       -1.65199911312733
H          -11.74492981057547        0.37435853359227       -0.47200266182533
H          -11.26954186460535       -1.28976910391347        1.26873033048131
H           -8.93995646914599       -1.84566862555769        1.87206867674107
H           -6.37555973795957       -2.05640969295262        2.13211119749990
H           -3.91025538216610       -1.89982431680537        2.00080607501696
H           -0.19096602523386        1.16262511050168       -1.35996005306628
H            1.80050038187037        1.74519486394398       -0.83862967406349
H            4.22994575844043        1.82756442428423       -0.98295650568162
H            5.39797570158532       -2.57356413034726       -1.00448344401905
H            7.23023288713484       -4.07687405459887       -1.67733194127726
H            9.56934756310791       -3.36065511370755       -1.53743513229170
H           10.15014454489531       -1.09223162045842       -0.74375833536601
H           10.10247822376093        1.48919372015682        0.21038504898695
H            9.43913207121311        3.70518504239754        1.08459085364485
H            7.08339422294915        4.23045210578774        1.50497116530841
H            5.31044866634978        2.58414248957223        1.03818987263678
H            4.49584638249555       -1.89079242231691        1.11889287763531
H            2.06690773702944       -2.01532672891657        1.22443319584486
H            0.08877043180230       -1.61944073813773        1.92467250144790
H           -4.19985685405695        1.04576332636605       -1.09611147237654

          :  Hamiltonian                  GFN2-xTB          :
         :: gradient norm              0.000087876288 Eh/a0 ::
         :: HOMO-LUMO gap              0.799070791671 eV    ::
         :: SCC energy              -103.655160756149 Eh    ::
         :: -> dispersion             -0.087093192068 Eh    ::
         :: -> Gsolv                  -0.043800967160 Eh    ::
         :: repulsion energy           1.861679244934 Eh    ::

    * Orbital Energies and Occupations

         #    Occupation            Energy/Eh            Energy/eV
      -------------------------------------------------------------
         1        2.0000           -0.6869177             -18.6920
       ...           ...                  ...                  ...
        84        2.0000           -0.4170728             -11.3491
        85        2.0000           -0.4143049             -11.2738
        86        2.0000           -0.4107095             -11.1760
        87        2.0000           -0.4093810             -11.1398
        88        2.0000           -0.4057434             -11.0408
        89        2.0000           -0.3990461             -10.8586
        90        2.0000           -0.3960034             -10.7758
        91        2.0000           -0.3925755             -10.6825
        92        2.0000           -0.3880408             -10.5591
        93        2.0000           -0.3743895             -10.1877
        94        1.8677           -0.3662453              -9.9660
        95        1.1323           -0.3626715              -9.8688
        96        1.0000           -0.2866674              -7.8006 (HOMO)
        97        0.0000           -0.2573027              -7.0016 (LUMO)
        98                         -0.2545508              -6.9267
        99                         -0.2469990              -6.7212
       100                         -0.2317994              -6.3076
       101                         -0.2307418              -6.2788
       102                         -0.2195124              -5.9732
       103                         -0.2168260              -5.9001
       104                         -0.2097510              -5.7076
       105                         -0.2001564              -5.4465
       106                         -0.1951477              -5.3102
       107                         -0.1714945              -4.6666
       ...                                ...                  ...
       187                          0.7359865              20.0272
      -------------------------------------------------------------
                  HL-Gap            0.0293647 Eh            0.7991 eV

     #   Z          covCN         q      C6AA      α(0)
     1   6 C        3.758    -0.099    22.450     6.755
     2   6 C        3.933     0.018    20.215     6.389
     3   6 C        3.758    -0.099    22.449     6.755
     4   6 C        3.053    -0.001    27.995     8.677
     5   6 C        2.913    -0.035    28.875     8.811
     6   6 C        2.921    -0.035    28.873     8.812
     7   6 C        2.919    -0.034    28.845     8.807
     8   6 C        2.913    -0.038    28.937     8.821
     9   6 C        3.033     0.001    27.966     8.674
    10   6 C        3.035    -0.008    28.186     8.708
    11   6 C        2.908    -0.035    28.882     8.812
    12   6 C        2.922    -0.042    29.038     8.837
    13   6 C        2.977    -0.006    28.172     8.706
    14   6 C        2.917     0.139    24.963     8.193
    15   7 N        1.838    -0.227    26.796     7.671
    16   6 C        2.899     0.069    26.453     8.433
    17   6 C        2.962    -0.039    28.961     8.827
    18   6 C        2.967     0.003    27.961     8.673
    19   6 C        2.921    -0.040    28.989     8.829
    20   6 C        2.915    -0.041    29.022     8.834
    21   6 C        2.912     0.050    26.872     8.500
    22   7 N        2.800    -0.018    21.598     6.902
    23   6 C        3.072     0.046    26.891     8.503
    24   6 C        2.909    -0.045    29.114     8.848
    25   6 C        2.923    -0.032    28.803     8.801
    26   6 C        2.920    -0.036    28.890     8.814
    27   6 C        2.912    -0.031    28.768     8.795
    28   6 C        3.065    -0.013    28.275     8.720
    29   6 C        3.065    -0.013    28.276     8.720
    30   6 C        2.912    -0.031    28.768     8.795
    31   6 C        2.920    -0.036    28.890     8.814
    32   6 C        2.923    -0.032    28.803     8.801
    33   6 C        2.909    -0.045    29.114     8.848
    34   6 C        3.072     0.046    26.890     8.502
    35   6 C        2.915    -0.041    29.022     8.834
    36   6 C        2.921    -0.040    28.988     8.829
    37   6 C        2.899     0.069    26.448     8.432
    38   7 N        1.838    -0.227    26.812     7.674
    39   6 C        2.916    -0.044    29.095     8.845
    40   6 C        3.045    -0.000    27.987     8.677
    41   1 H        0.925     0.044     2.400     2.423
    42   1 H        0.925     0.044     2.391     2.418
    43   1 H        0.925     0.034     2.532     2.488
    44   1 H        0.925     0.044     2.392     2.419
    45   1 H        0.925     0.034     2.532     2.488
    46   1 H        0.925     0.044     2.398     2.421
    47   1 H        0.926     0.030     2.582     2.513
    48   1 H        0.926     0.029     2.596     2.519
    49   1 H        0.926     0.028     2.612     2.527
    50   1 H        0.926     0.028     2.610     2.526
    51   1 H        0.926     0.030     2.580     2.512
    52   1 H        0.926     0.038     2.481     2.463
    53   1 H        0.925     0.046     2.373     2.409
    54   1 H        0.926     0.036     2.506     2.476
    55   1 H        0.926     0.043     2.406     2.426
    56   1 H        0.926     0.039     2.468     2.457
    57   1 H        0.926     0.038     2.479     2.462
    58   1 H        0.926     0.037     2.489     2.467
    59   1 H        0.926     0.039     2.456     2.451
    60   1 H        0.926     0.039     2.457     2.451
    61   1 H        0.926     0.037     2.489     2.467
    62   1 H        0.926     0.038     2.478     2.462
    63   1 H        0.926     0.039     2.468     2.457
    64   1 H        0.926     0.043     2.407     2.426
    65   1 H        0.926     0.035     2.510     2.478
    66   1 H        0.925     0.045     2.377     2.411
    67   1 H        0.926     0.038     2.469     2.457

molecular dipole:
                 x           y           z       tot (Debye)
 q only:        2.054       0.376      -0.397
   full:        2.403       0.349      -0.364       6.240

 projected vibrational frequencies (cm⁻¹)
eigval :       -0.00    -0.00     0.00     0.00     0.00     0.00
eigval :       10.79    20.68    22.27    30.20    48.37    53.89
eigval :       62.87    87.42    93.52    96.57   104.04   105.60
eigval :      122.06   126.46   144.62   147.48   181.44   190.26
eigval :      201.60   212.65   224.58   237.43   249.58   257.53
eigval :      272.17   288.21   307.33   310.21   318.96   336.87
eigval :      350.00   381.99   387.86   396.93   403.46   407.79
eigval :      417.51   424.05   430.44   438.37   455.64   456.01
eigval :      493.70   496.87   515.45   520.23   530.11   537.22
eigval :      541.05   557.96   567.81   578.33   583.40   584.06
eigval :      589.81   610.77   619.97   652.05   666.45   673.49
eigval :      673.88   683.85   685.88   710.29   715.59   718.63
eigval :      737.71   755.99   768.01   768.85   774.46   777.67
eigval :      800.37   803.25   812.26   819.06   841.74   859.21
eigval :      860.98   867.44   870.38   870.58   894.61   901.56
eigval :      902.36   903.86   904.84   913.36   915.73   917.62
eigval :      921.82   923.12   927.13   934.37   956.77   965.66
eigval :      976.51   995.55  1009.93  1011.67  1042.11  1054.24
eigval :     1067.66  1070.43  1072.71  1074.13  1098.19  1104.45
eigval :     1112.26  1135.15  1141.31  1145.85  1149.72  1171.32
eigval :     1172.33  1176.91  1177.39  1179.87  1181.79  1206.93
eigval :     1214.94  1220.14  1228.87  1238.46  1243.22  1258.04
eigval :     1269.72  1273.34  1276.42  1279.70  1287.90  1291.04
eigval :     1321.08  1336.39  1340.90  1344.94  1346.62  1354.79
eigval :     1358.68  1382.42  1390.88  1407.73  1410.76  1413.68
eigval :     1422.08  1426.08  1438.30  1452.25  1459.31  1462.79
eigval :     1475.39  1477.98  1480.54  1482.14  1486.89  1489.60
eigval :     1493.23  1498.74  1504.64  1539.21  1563.82  1566.71
eigval :     1576.13  1578.66  1580.41  1590.77  1595.17  1603.41
eigval :     3025.22  3025.42  3028.61  3029.59  3030.47  3032.32
eigval :     3036.56  3039.04  3065.20  3069.03  3070.66  3077.83
eigval :     3078.05  3078.80  3080.86  3082.50  3084.18  3085.06
eigval :     3085.24  3087.25  3089.78  3091.63  3092.76  3093.14
eigval :     3095.42  3097.15  3098.33

   temp. (K)  partition function   enthalpy   heat capacity  entropy
                                   cal/mol     cal/K/mol   cal/K/mol   J/K/mol
 298.15  VIB  0.236E+14            18541.584    121.023    113.202
         ROT  0.675E+08              888.752      2.981     38.805
         INT  0.159E+22            19430.337    124.004    152.007
         TR   0.113E+29             1481.254      4.968     44.575
         TOT                       20911.5908   128.9723   196.5822   822.5001

       T/K    H(0)-H(T)+PV         H(T)/Eh          T*S/Eh         G(T)/Eh
   ------------------------------------------------------------------------
    298.15    0.333247E-01    0.551168E+00    0.934026E-01    0.457765E+00
   ------------------------------------------------------------------------

         :::::::::::::::::::::::::::::::::::::::::::::::::::::
         ::                  THERMODYNAMIC                  ::
         :::::::::::::::::::::::::::::::::::::::::::::::::::::
         :: total free energy        -101.335716302367 Eh   ::
         ::.................................................::
         :: total energy             -101.793481511667 Eh   ::
         :: zero point energy           0.517843031770 Eh   ::
         :: G(RRHO) w/o ZPVE           -0.060077822469 Eh   ::
         :: G(RRHO) contrib.            0.457765209301 Eh   ::
         :::::::::::::::::::::::::::::::::::::::::::::::::::::

           -------------------------------------------------
          | TOTAL ENERGY             -101.793481511667 Eh   |
          | TOTAL ENTHALPY           -101.242313738787 Eh   |
          | TOTAL FREE ENERGY        -101.335716302367 Eh   |
          | GRADIENT NORM               0.000086381016 Eh/α |
          | HOMO-LUMO GAP               0.799054560056 eV   |
           -------------------------------------------------

 * finished run on 2025/09/03 at 18:28:33.659
