   * xtb version 6.7.1 (edcfbbe) compiled by 'albert@albert-system' on 2024-07-22

   ID    Z sym.   atoms
    1    6 C      1-14, 16-21, 23-37, 39, 40
    2    7 N      15, 22, 38
    3    1 H      41-67

          program call               : xtb data2507/toluene/FlCz/FlCz.xyz --gfn 2 --gbsa toluene --ohess vtight --parallel 40 --molden --ceasefiles --namespace data2507/toluene/FlCz/FlCz_toluene_S0_preOpt
      * Solvation model:               GBSA
        Solvent                        toluene
        Solvent mass                       9.2140E+01 g/mol
          :  Hamiltonian                  GFN2-xTB          :
 * total energy  :  -101.8565685 Eh     change       -0.1998956E-08 Eh
 * total energy  :  -101.8678162 Eh     change       -0.1124772E-01 Eh
 * total energy  :  -101.8703037 Eh     change       -0.2487518E-02 Eh
 * total energy  :  -101.8709497 Eh     change       -0.6460280E-03 Eh
 * total energy  :  -101.8715576 Eh     change       -0.6078732E-03 Eh
 * total energy  :  -101.8717575 Eh     change       -0.1999365E-03 Eh
 * total energy  :  -101.8718528 Eh     change       -0.9530445E-04 Eh
 * total energy  :  -101.8719138 Eh     change       -0.6093480E-04 Eh
 * total energy  :  -101.8719809 Eh     change       -0.6712726E-04 Eh
 * total energy  :  -101.8720282 Eh     change       -0.4727228E-04 Eh
 * total energy  :  -101.8724508 Eh     change       -0.3859918E-06 Eh
 * total energy  :  -101.8724512 Eh     change       -0.3263990E-06 Eh
 * total energy  :  -101.8724515 Eh     change       -0.3564536E-06 Eh
 * total energy  :  -101.8724518 Eh     change       -0.3191307E-06 Eh
 * total energy  :  -101.8724521 Eh     change       -0.2760089E-06 Eh
 * total energy  :  -101.8724524 Eh     change       -0.2650483E-06 Eh
 * total energy  :  -101.8724527 Eh     change       -0.3232466E-06 Eh
 * total energy  :  -101.8724532 Eh     change       -0.4859739E-06 Eh
 * total energy  :  -101.8724532 Eh     change       -0.2540290E-08 Eh
   *** GEOMETRY OPTIMIZATION CONVERGED AFTER 68 ITERATIONS ***

 final structure:
================
67
 xtb: 6.7.1 (edcfbbe)
C           -6.73247413285936        2.14643646797281        1.17668634731471
C           -6.81726804266194        1.23550041321763       -0.05337206069080
C           -6.71700103223247        2.06435652467815       -1.33847210493304
C           -8.08065172781150        0.40397478199968       -0.03030068584914
C           -9.39410479953062        0.82293141713152       -0.05488269647458
C          -10.40310763610832       -0.13091595993060       -0.02102602044635
C          -10.10146531404701       -1.48357636270723        0.03611511682618
C           -8.78504112555457       -1.91438865926202        0.06116988571445
C           -7.77553853380501       -0.96482544474148        0.02782391460045
C           -6.33076036755537       -1.11441390367450        0.04246065604190
C           -5.53448139860004       -2.24979044561109        0.09614493168157
C           -4.16133237864660       -2.10035518941240        0.09815871975449
C           -3.57698524717895       -0.83184994764796        0.04529956448352
C           -2.12491880705791       -0.69687270538402        0.04440274407159
N           -1.60774944051658        0.53059230194702       -0.05943817386878
C           -0.29744910614581        0.64822539092938       -0.05690715002194
C            0.56725202227908       -0.44614080594532        0.04072583158975
C            2.02281140893826       -0.31374024993254        0.03710925014197
C            2.65074358976276        0.62569234235913       -0.78097752621136
C            4.02568610829294        0.74075530928359       -0.79699867823370
C            4.80746118724695       -0.07345809476246        0.01991998968833
N            6.20283750798028        0.04232672328896        0.00619329934395
C            7.09882006621233       -0.99868598417311       -0.14855379450995
C            6.85806951688902       -2.34820915126933       -0.36504078837923
C            7.94920684813237       -3.18277768413250       -0.51757359904156
C            9.25272424257349       -2.69294370540222       -0.46690550919298
C            9.49808948093259       -1.34753267203876       -0.27590785695806
C            8.41735099425439       -0.48876539724643       -0.11995701300840
C            8.30249248470623        0.93090370556995        0.06917825169337
C            9.23118230111045        1.95618123318916        0.19605257180837
C            8.77302357418369        3.24312524275390        0.39780510624058
C            7.40863182204317        3.51175250473606        0.48751280157892
C            6.46581277674593        2.50859012994821        0.36461241787162
C            6.91940261390880        1.21684837502778        0.13718730331458
C            4.18669043287493       -1.00588357587613        0.84859009400660
C            2.81236911470958       -1.12829833068496        0.84903544893495
C           -0.08056283718109       -1.68155776950947        0.13948037627542
N           -1.38964010069548       -1.80754125177610        0.14578730960450
C           -4.38360881989905        0.31095560378690       -0.00828181759794
C           -5.74980844275912        0.16417455349584       -0.00800168351045
H           -7.54326379955489        2.87079908129655        1.16526168355847
H           -6.80501603173094        1.55660959354331        2.08836329047244
H           -5.78550478344856        2.68051432401956        1.18298777611042
H           -7.52672516730002        2.78864308274693       -1.38336818608580
H           -6.77962790263023        1.41742842696536       -2.21134000354903
H           -5.76936569219816        2.59649080293541       -1.36796721943559
H           -9.64247088797845        1.87333542905543       -0.09893565711838
H          -11.43657015694387        0.18422635987937       -0.03953307036943
H          -10.90291556855664       -2.20804283013469        0.06131568428418
H           -8.55155131698448       -2.96791337083143        0.10539177697593
H           -5.97742887734530       -3.23376861971241        0.13546981244661
H           -3.51266725609358       -2.96170086628216        0.13898874398599
H            0.08190973851787        1.66174731138860       -0.11800460890470
H            2.05664701228770        1.24872767680075       -1.43302818243836
H            4.50388932917160        1.45018494870107       -1.45556716147467
H            5.85229689941478       -2.73595280569553       -0.42449125808600
H            7.78736507923565       -4.23791095763017       -0.68403912021515
H           10.07908700581433       -3.37788696797840       -0.58837427567629
H           10.50785650197219       -0.96565180942282       -0.25286716372873
H           10.28895195634996        1.74576805114089        0.14298775953262
H            9.47862511788113        4.05498717759050        0.49690600880844
H            7.08035103941851        4.52618311933935        0.66160181257745
H            5.41197438612523        2.72511679483653        0.45407129856321
H            4.78733523778174       -1.62194907583560        1.50072494897530
H            2.34144535185691       -1.84278230722819        1.50788139620304
H            0.47940289058277       -2.60776022449778        0.19773691661671
H           -3.91074090857049        1.27976192481636       -0.04703077567919

          :  Hamiltonian                  GFN2-xTB          :
         :: gradient norm              0.000039766289 Eh/a0 ::
         :: HOMO-LUMO gap              2.150233911686 eV    ::
         :: SCC energy              -103.741928129866 Eh    ::
         :: -> dispersion             -0.087188088488 Eh    ::
         :: -> Gsolv                  -0.043656994149 Eh    ::
         :: repulsion energy           1.869474947917 Eh    ::

    * Orbital Energies and Occupations

         #    Occupation            Energy/Eh            Energy/eV
      -------------------------------------------------------------
         1        2.0000           -0.6825240             -18.5724
       ...           ...                  ...                  ...
        83        2.0000           -0.4203413             -11.4381
        84        2.0000           -0.4187422             -11.3946
        85        2.0000           -0.4139268             -11.2635
        86        2.0000           -0.4127178             -11.2306
        87        2.0000           -0.4085237             -11.1165
        88        2.0000           -0.4072759             -11.0825
        89        2.0000           -0.4069502             -11.0737
        90        2.0000           -0.4042311             -10.9997
        91        2.0000           -0.3973398             -10.8122
        92        2.0000           -0.3805677             -10.3558
        93        2.0000           -0.3787246             -10.3056
        94        2.0000           -0.3687383             -10.0339
        95        2.0000           -0.3640815              -9.9072 (HOMO)
        96                         -0.2850619              -7.7569 (LUMO)
        97                         -0.2680419              -7.2938
        98                         -0.2506487              -6.8205
        99                         -0.2449349              -6.6650
       100                         -0.2388147              -6.4985
       101                         -0.2253515              -6.1321
       102                         -0.2239118              -6.0930
       103                         -0.2230753              -6.0702
       104                         -0.2188961              -5.9565
       105                         -0.1945818              -5.2948
       106                         -0.1880471              -5.1170
       ...                                ...                  ...
       187                          0.7422645              20.1980
      -------------------------------------------------------------
                  HL-Gap            0.0790196 Eh            2.1502 eV

     #   Z          covCN         q      C6AA      α(0)
     1   6 C        3.758    -0.101    22.473     6.759
     2   6 C        3.935     0.019    20.192     6.386
     3   6 C        3.758    -0.101    22.476     6.759
     4   6 C        3.054     0.001    27.953     8.671
     5   6 C        2.915    -0.034    28.838     8.806
     6   6 C        2.921    -0.032    28.805     8.801
     7   6 C        2.921    -0.034    28.840     8.807
     8   6 C        2.914    -0.034    28.843     8.807
     9   6 C        3.036    -0.001    28.009     8.681
    10   6 C        3.036     0.005    27.870     8.659
    11   6 C        2.912    -0.035    28.860     8.809
    12   6 C        2.925    -0.033    28.815     8.803
    13   6 C        2.984    -0.008    28.222     8.714
    14   6 C        2.958     0.185    24.043     8.043
    15   7 N        1.839    -0.270    27.864     7.823
    16   6 C        2.924     0.076    26.305     8.411
    17   6 C        2.965    -0.017    28.433     8.746
    18   6 C        2.974     0.003    27.964     8.674
    19   6 C        2.924    -0.032    28.806     8.802
    20   6 C        2.920    -0.041    29.029     8.835
    21   6 C        2.912     0.066    26.530     8.446
    22   7 N        2.801    -0.044    22.089     6.980
    23   6 C        3.073     0.047    26.878     8.500
    24   6 C        2.910    -0.052    29.285     8.874
    25   6 C        2.924    -0.035    28.861     8.810
    26   6 C        2.920    -0.042    29.042     8.837
    27   6 C        2.912    -0.034    28.856     8.808
    28   6 C        3.067    -0.018    28.382     8.736
    29   6 C        3.067    -0.018    28.382     8.736
    30   6 C        2.912    -0.034    28.855     8.808
    31   6 C        2.920    -0.042    29.042     8.837
    32   6 C        2.924    -0.035    28.861     8.810
    33   6 C        2.910    -0.052    29.285     8.874
    34   6 C        3.073     0.047    26.878     8.500
    35   6 C        2.920    -0.041    29.028     8.835
    36   6 C        2.924    -0.032    28.807     8.802
    37   6 C        2.925     0.076    26.297     8.410
    38   7 N        1.839    -0.271    27.895     7.827
    39   6 C        2.919    -0.033    28.829     8.805
    40   6 C        3.052     0.001    27.948     8.670
    41   1 H        0.925     0.047     2.354     2.399
    42   1 H        0.925     0.036     2.508     2.476
    43   1 H        0.925     0.046     2.370     2.408
    44   1 H        0.925     0.047     2.355     2.400
    45   1 H        0.925     0.036     2.506     2.476
    46   1 H        0.925     0.046     2.369     2.407
    47   1 H        0.926     0.034     2.529     2.487
    48   1 H        0.926     0.033     2.548     2.496
    49   1 H        0.926     0.032     2.565     2.504
    50   1 H        0.926     0.033     2.546     2.495
    51   1 H        0.926     0.040     2.448     2.447
    52   1 H        0.926     0.050     2.314     2.379
    53   1 H        0.925     0.039     2.468     2.457
    54   1 H        0.926     0.041     2.431     2.438
    55   1 H        0.926     0.048     2.344     2.394
    56   1 H        0.926     0.030     2.588     2.516
    57   1 H        0.926     0.031     2.572     2.508
    58   1 H        0.926     0.029     2.599     2.521
    59   1 H        0.926     0.032     2.564     2.504
    60   1 H        0.926     0.032     2.564     2.504
    61   1 H        0.926     0.029     2.599     2.521
    62   1 H        0.926     0.031     2.571     2.507
    63   1 H        0.926     0.030     2.586     2.515
    64   1 H        0.926     0.048     2.345     2.395
    65   1 H        0.926     0.041     2.435     2.440
    66   1 H        0.925     0.038     2.475     2.460
    67   1 H        0.926     0.052     2.295     2.369

molecular dipole:
                 x           y           z       tot (Debye)
 q only:       -0.719       0.430      -0.016
   full:       -0.298       0.394      -0.012       1.256

 projected vibrational frequencies (cm⁻¹)
eigval :       -0.00    -0.00     0.00     0.00     0.00     0.00
eigval :        9.72    13.99    17.41    33.79    47.96    51.34
eigval :       55.52    85.31    87.11    96.02   105.77   109.17
eigval :      117.02   118.64   146.16   151.62   184.06   191.19
eigval :      202.35   212.38   220.85   242.31   248.62   252.97
eigval :      269.66   290.29   308.10   311.67   319.79   362.38
eigval :      364.88   378.06   382.85   387.24   396.09   409.55
eigval :      423.89   433.97   438.88   446.32   464.07   487.87
eigval :      496.16   517.24   521.48   528.21   536.45   541.20
eigval :      542.21   562.23   573.65   582.20   595.56   604.25
eigval :      607.10   616.83   632.02   654.96   673.89   691.77
eigval :      694.48   704.26   710.39   724.03   725.76   755.35
eigval :      759.10   768.75   769.86   779.58   779.66   795.95
eigval :      816.57   836.23   865.35   868.38   871.59   873.82
eigval :      877.30   880.30   889.41   897.43   901.05   902.61
eigval :      910.88   918.28   918.63   919.89   922.80   925.28
eigval :      928.05   930.63   932.82   959.93   967.36   984.81
eigval :     1001.87  1011.14  1013.10  1027.02  1067.37  1069.55
eigval :     1072.84  1076.37  1084.12  1100.64  1114.24  1117.39
eigval :     1135.36  1147.28  1152.07  1152.52  1172.71  1176.95
eigval :     1181.86  1181.87  1182.59  1202.03  1202.48  1216.29
eigval :     1222.16  1235.41  1242.58  1243.52  1250.16  1266.00
eigval :     1270.46  1276.14  1287.57  1299.61  1300.22  1312.96
eigval :     1327.42  1334.19  1355.61  1359.83  1361.04  1364.92
eigval :     1380.63  1392.22  1407.16  1409.09  1411.40  1426.33
eigval :     1427.27  1430.23  1435.75  1454.33  1472.09  1474.09
eigval :     1481.19  1485.73  1486.61  1492.21  1497.77  1498.32
eigval :     1509.40  1556.46  1556.67  1573.64  1574.11  1587.39
eigval :     1590.61  1591.81  1596.62  1597.03  1605.60  1612.11
eigval :     3027.14  3030.38  3030.46  3032.91  3034.67  3034.95
eigval :     3038.33  3041.28  3067.66  3072.24  3072.52  3072.75
eigval :     3077.62  3078.29  3079.74  3081.34  3081.99  3083.15
eigval :     3085.48  3086.38  3087.99  3092.06  3094.13  3094.65
eigval :     3096.99  3101.01  3102.45

   temp. (K)  partition function   enthalpy   heat capacity  entropy
                                   cal/mol     cal/K/mol   cal/K/mol   J/K/mol
 298.15  VIB  0.459E+14            18336.249    118.887    112.904
         ROT  0.669E+08              888.752      2.981     38.788
         INT  0.307E+22            19225.001    121.868    151.692
         TR   0.113E+29             1481.254      4.968     44.575
         TOT                       20706.2553   126.8357   196.2674   821.1826

       T/K    H(0)-H(T)+PV         H(T)/Eh          T*S/Eh         G(T)/Eh
   ------------------------------------------------------------------------
    298.15    0.329975E-01    0.554886E+00    0.932530E-01    0.461633E+00
   ------------------------------------------------------------------------

         :::::::::::::::::::::::::::::::::::::::::::::::::::::
         ::                  THERMODYNAMIC                  ::
         :::::::::::::::::::::::::::::::::::::::::::::::::::::
         :: total free energy        -101.410819785535 Eh   ::
         ::.................................................::
         :: total energy             -101.872453182390 Eh   ::
         :: zero point energy           0.521888834685 Eh   ::
         :: G(RRHO) w/o ZPVE           -0.060255437830 Eh   ::
         :: G(RRHO) contrib.            0.461633396855 Eh   ::
         :::::::::::::::::::::::::::::::::::::::::::::::::::::

           -------------------------------------------------
          | TOTAL ENERGY             -101.872453182390 Eh   |
          | TOTAL ENTHALPY           -101.317566829507 Eh   |
          | TOTAL FREE ENERGY        -101.410819785535 Eh   |
          | GRADIENT NORM               0.000039764811 Eh/α |
          | HOMO-LUMO GAP               2.150233893880 eV   |
           -------------------------------------------------

 * finished run on 2025/09/03 at 18:21:54.329
