   * xtb version 6.7.1 (edcfbbe) compiled by 'albert@albert-system' on 2024-07-22

   ID    Z sym.   atoms
    1    6 C      1-14, 16-21, 23-37, 39, 40
    2    7 N      15, 22, 38
    3    1 H      41-67

          program call               : xtb data2507/toluene/FlCz/FlCz_toluene_S0_crest.xyz --gfn 2 --gbsa toluene --ohess vtight --parallel 40 --molden --ceasefiles --namespace data2507/toluene/FlCz/FlCz_toluene_S0_finalOpt
      * Solvation model:               GBSA
        Solvent                        toluene
        Solvent mass                       9.2140E+01 g/mol
          :  Hamiltonian                  GFN2-xTB          :
 * total energy  :  -101.8723924 Eh     change       -0.1655366E-08 Eh
 * total energy  :  -101.8724135 Eh     change       -0.2101281E-04 Eh
 * total energy  :  -101.8724216 Eh     change       -0.8168259E-05 Eh
 * total energy  :  -101.8724249 Eh     change       -0.3277847E-05 Eh
 * total energy  :  -101.8724277 Eh     change       -0.2834066E-05 Eh
 * total energy  :  -101.8724293 Eh     change       -0.1546573E-05 Eh
 * total energy  :  -101.8724312 Eh     change       -0.1880088E-05 Eh
 * total energy  :  -101.8724328 Eh     change       -0.1659595E-05 Eh
 * total energy  :  -101.8724340 Eh     change       -0.1175210E-05 Eh
 * total energy  :  -101.8724349 Eh     change       -0.9075649E-06 Eh
 * total energy  :  -101.8724374 Eh     change       -0.6306019E-06 Eh
 * total energy  :  -101.8724378 Eh     change       -0.3836239E-06 Eh
 * total energy  :  -101.8724381 Eh     change       -0.2762076E-06 Eh
 * total energy  :  -101.8724384 Eh     change       -0.2892965E-06 Eh
 * total energy  :  -101.8724387 Eh     change       -0.3613701E-06 Eh
 * total energy  :  -101.8724391 Eh     change       -0.3540227E-06 Eh
 * total energy  :  -101.8724394 Eh     change       -0.3326466E-06 Eh
 * total energy  :  -101.8724397 Eh     change       -0.3133053E-06 Eh
 * total energy  :  -101.8724397 Eh     change       -0.2782244E-08 Eh
   *** GEOMETRY OPTIMIZATION CONVERGED AFTER 22 ITERATIONS ***

 final structure:
================
67
 xtb: 6.7.1 (edcfbbe)
C           -6.95757104821287        2.50971135238291        0.98845508236568
C           -7.07923838785928        1.50902794269518       -0.16593632226587
C           -6.97291296503692        2.23320338726247       -1.51274995535995
C           -8.36262675614958        0.71411767883055       -0.07048690740070
C           -9.66535911472548        1.16438153180114       -0.10684744179475
C          -10.69743371842336        0.24118177503406        0.00125596199178
C          -10.42909183994792       -1.11228572397756        0.14310803105208
C           -9.12362641456367       -1.57443983429763        0.18038967219381
C           -8.09114853607499       -0.65548202144403        0.07327967169270
C           -6.65054738124559       -0.84105105534855        0.08292689709633
C           -5.88217622827716       -1.99093349534969        0.19935440708245
C           -4.50576183791074       -1.87669237449760        0.18108993987529
C           -3.89058318653823       -0.62874623253087        0.04856637433775
C           -2.43579046786032       -0.52913172386941        0.03584283345739
N           -1.89079508008278        0.68105630355928       -0.11719476459554
C           -0.57830799711483        0.76864043085286       -0.12007553826220
C            0.26160583671666       -0.34058567692569        0.01911060043400
C            1.71948308274179       -0.23845362779469        0.01298505632325
C            2.36659998774729        0.66528297036423       -0.83011104904447
C            3.74323797862372        0.75781658456027       -0.84262722180090
C            4.50794614969519       -0.04427584071438        0.00197055434066
N            5.90479659487832        0.05191257277690       -0.00416156964153
C            6.78746149498118       -1.00564942359589       -0.11660996047311
C            6.52964311356338       -2.35703120643288       -0.29912807442722
C            7.61038468660436       -3.21124185058549       -0.41216168046766
C            8.92015326613785       -2.73894859864144       -0.35642215367923
C            9.18281045801558       -1.39231150338928       -0.19993064106158
C            8.11279352638739       -0.51405176913977       -0.08355785524839
C            8.01606004024755        0.91203742825321        0.06345686251239
C            8.95782021528890        1.92708282998107        0.17528786847884
C            8.51585441418638        3.22568692878744        0.33387462311499
C            7.15449273929431        3.51616364602368        0.39690863496785
C            6.19886997190557        2.52341375416503        0.28896191606744
C            6.63649599763905        1.21945562991504        0.10406129302770
C            3.86840409612812       -0.94383753806709        0.85248260134680
C            2.49224884047729       -1.04332114056866        0.85042765502341
C           -0.41422118996585       -1.55616455545094        0.16517654362014
N           -1.72592384497096       -1.65165311096944        0.17863719058708
C           -4.66916225923328        0.52852943730798       -0.07091607764222
C           -6.03846266253820        0.41658493672585       -0.05344665889111
H           -7.74759950959997        3.25414254556405        0.92611368780432
H           -7.03832810013367        1.99490469629690        1.94383118921752
H           -5.99609237283769        3.01542985421426        0.94616650683945
H           -7.76582537148368        2.97119437550065       -1.60710702679147
H           -7.06001643195728        1.52160527910514       -2.33149424125681
H           -6.01320893948209        2.73793192411042       -1.59180978431156
H           -9.88794945711948        2.21567282010559       -0.21704816860399
H          -11.72277977305319        0.58120117463587       -0.02535442008816
H          -11.24780317057134       -1.81276254934223        0.22564720130309
H           -8.91597943565305       -2.62847047754395        0.29118857222215
H           -6.34916342002060       -2.95900735618101        0.30290466645564
H           -3.87837357065428       -2.75016965502152        0.26927369748912
H           -0.17619885655457        1.77019184875020       -0.22011570159576
H            1.78577135548838        1.27839877372433       -1.50313313091602
H            4.23575492015143        1.44013913687238       -1.51905054252548
H            5.51907507506492       -2.73161068382261       -0.36198902262273
H            7.43529674373027       -4.26819888873578       -0.55140822597208
H            9.73799376188287       -3.43879283326893       -0.44659573526263
H           10.19771008184961       -1.02452739301149       -0.17344060449264
H           10.01301377781548        1.70007362361855        0.14363897918052
H            9.23179135592074        4.02992846726221        0.42027833709393
H            6.83872649166132        4.53971741388064        0.53760327849199
H            5.14724347083464        2.75744573572316        0.35800978642131
H            4.45610339309303       -1.55125889203645        1.52427762614143
H            2.00703247228449       -1.73058958344436        1.52756151312520
H            0.12392503493910       -2.49246116546592        0.25759949038453
H           -4.17262749562280        1.48073670342128       -0.17310534396516

          :  Hamiltonian                  GFN2-xTB          :
         :: gradient norm              0.000040055637 Eh/a0 ::
         :: HOMO-LUMO gap              2.148238794065 eV    ::
         :: SCC energy              -103.741897522831 Eh    ::
         :: -> dispersion             -0.087190642725 Eh    ::
         :: -> Gsolv                  -0.043630810190 Eh    ::
         :: repulsion energy           1.869457799972 Eh    ::

    * Orbital Energies and Occupations

         #    Occupation            Energy/Eh            Energy/eV
      -------------------------------------------------------------
         1        2.0000           -0.6824857             -18.5714
       ...           ...                  ...                  ...
        83        2.0000           -0.4203537             -11.4384
        84        2.0000           -0.4187474             -11.3947
        85        2.0000           -0.4139298             -11.2636
        86        2.0000           -0.4127137             -11.2305
        87        2.0000           -0.4085168             -11.1163
        88        2.0000           -0.4072099             -11.0807
        89        2.0000           -0.4069559             -11.0738
        90        2.0000           -0.4042226             -10.9995
        91        2.0000           -0.3973423             -10.8122
        92        2.0000           -0.3805838             -10.3562
        93        2.0000           -0.3787123             -10.3053
        94        2.0000           -0.3686920             -10.0326
        95        2.0000           -0.3640876              -9.9073 (HOMO)
        96                         -0.2851413              -7.7591 (LUMO)
        97                         -0.2680031              -7.2927
        98                         -0.2506786              -6.8213
        99                         -0.2449627              -6.6658
       100                         -0.2388007              -6.4981
       101                         -0.2252996              -6.1307
       102                         -0.2239241              -6.0933
       103                         -0.2230374              -6.0692
       104                         -0.2188786              -5.9560
       105                         -0.1945948              -5.2952
       106                         -0.1880669              -5.1176
       ...                                ...                  ...
       187                          0.7422088              20.1965
      -------------------------------------------------------------
                  HL-Gap            0.0789463 Eh            2.1482 eV

     #   Z          covCN         q      C6AA      α(0)
     1   6 C        3.758    -0.101    22.476     6.759
     2   6 C        3.935     0.019    20.192     6.386
     3   6 C        3.758    -0.101    22.474     6.759
     4   6 C        3.054     0.001    27.953     8.671
     5   6 C        2.915    -0.034    28.838     8.806
     6   6 C        2.921    -0.032    28.805     8.801
     7   6 C        2.921    -0.034    28.840     8.807
     8   6 C        2.914    -0.034    28.844     8.807
     9   6 C        3.036    -0.001    28.009     8.681
    10   6 C        3.036     0.005    27.870     8.659
    11   6 C        2.912    -0.035    28.860     8.809
    12   6 C        2.925    -0.033    28.815     8.803
    13   6 C        2.984    -0.008    28.223     8.714
    14   6 C        2.958     0.185    24.043     8.043
    15   7 N        1.839    -0.270    27.866     7.823
    16   6 C        2.924     0.076    26.306     8.411
    17   6 C        2.965    -0.017    28.434     8.747
    18   6 C        2.974     0.003    27.964     8.674
    19   6 C        2.924    -0.032    28.807     8.802
    20   6 C        2.920    -0.041    29.030     8.835
    21   6 C        2.912     0.066    26.530     8.446
    22   7 N        2.801    -0.044    22.088     6.980
    23   6 C        3.073     0.047    26.878     8.500
    24   6 C        2.910    -0.052    29.285     8.874
    25   6 C        2.924    -0.035    28.861     8.810
    26   6 C        2.920    -0.042    29.042     8.837
    27   6 C        2.912    -0.034    28.856     8.808
    28   6 C        3.067    -0.018    28.382     8.736
    29   6 C        3.067    -0.018    28.382     8.736
    30   6 C        2.912    -0.034    28.855     8.808
    31   6 C        2.920    -0.042    29.042     8.837
    32   6 C        2.924    -0.035    28.861     8.810
    33   6 C        2.910    -0.052    29.285     8.874
    34   6 C        3.073     0.047    26.878     8.500
    35   6 C        2.920    -0.041    29.029     8.835
    36   6 C        2.924    -0.032    28.806     8.802
    37   6 C        2.924     0.076    26.298     8.410
    38   7 N        1.839    -0.271    27.897     7.827
    39   6 C        2.919    -0.033    28.830     8.805
    40   6 C        3.052     0.001    27.948     8.670
    41   1 H        0.925     0.047     2.354     2.399
    42   1 H        0.925     0.036     2.507     2.476
    43   1 H        0.925     0.046     2.370     2.408
    44   1 H        0.925     0.047     2.354     2.400
    45   1 H        0.925     0.036     2.507     2.476
    46   1 H        0.925     0.046     2.369     2.407
    47   1 H        0.926     0.034     2.528     2.487
    48   1 H        0.926     0.033     2.548     2.496
    49   1 H        0.926     0.032     2.564     2.504
    50   1 H        0.926     0.033     2.546     2.495
    51   1 H        0.926     0.040     2.448     2.447
    52   1 H        0.926     0.050     2.314     2.379
    53   1 H        0.925     0.039     2.468     2.457
    54   1 H        0.926     0.041     2.430     2.438
    55   1 H        0.926     0.048     2.344     2.394
    56   1 H        0.926     0.030     2.588     2.516
    57   1 H        0.926     0.031     2.572     2.508
    58   1 H        0.926     0.029     2.599     2.521
    59   1 H        0.926     0.032     2.563     2.504
    60   1 H        0.926     0.032     2.564     2.504
    61   1 H        0.926     0.029     2.598     2.521
    62   1 H        0.926     0.031     2.571     2.507
    63   1 H        0.926     0.030     2.586     2.515
    64   1 H        0.926     0.048     2.346     2.395
    65   1 H        0.926     0.041     2.434     2.440
    66   1 H        0.925     0.038     2.475     2.460
    67   1 H        0.926     0.052     2.294     2.369

molecular dipole:
                 x           y           z       tot (Debye)
 q only:       -0.705       0.445      -0.046
   full:       -0.285       0.398      -0.040       1.248

 projected vibrational frequencies (cm⁻¹)
eigval :       -0.00    -0.00    -0.00     0.00     0.00     0.00
eigval :        3.99     8.90    16.78    33.04    44.04    47.91
eigval :       52.73    81.84    89.65    95.43   104.24   109.11
eigval :      111.66   118.30   146.02   148.48   182.37   188.84
eigval :      201.34   213.20   218.40   241.96   247.18   252.82
eigval :      271.30   289.75   309.36   310.77   317.39   362.48
eigval :      364.04   378.30   385.07   387.42   397.85   409.62
eigval :      423.93   434.28   438.95   446.82   464.65   486.92
eigval :      496.28   517.10   521.53   528.00   536.36   539.85
eigval :      541.42   562.42   573.31   582.19   595.94   601.92
eigval :      607.23   616.85   632.43   655.17   673.14   692.79
eigval :      692.97   705.27   711.35   723.73   724.23   755.09
eigval :      757.73   768.52   769.94   778.61   780.24   796.07
eigval :      819.24   834.98   866.28   867.60   871.63   873.48
eigval :      879.01   879.15   890.73   897.69   901.30   902.16
eigval :      910.64   916.88   919.47   920.24   922.41   926.97
eigval :      927.76   931.20   935.91   959.81   968.45   984.77
eigval :     1002.44  1011.07  1013.12  1027.65  1068.18  1069.59
eigval :     1072.68  1076.10  1084.38  1101.11  1114.43  1117.52
eigval :     1136.68  1147.89  1152.27  1153.43  1172.82  1176.54
eigval :     1182.15  1182.50  1183.41  1202.14  1202.90  1217.01
eigval :     1222.01  1235.42  1242.67  1243.64  1250.42  1267.27
eigval :     1270.44  1276.53  1287.73  1299.74  1300.03  1313.05
eigval :     1327.27  1333.94  1355.44  1359.84  1361.04  1364.94
eigval :     1380.62  1392.30  1407.62  1409.59  1411.48  1426.44
eigval :     1427.28  1430.27  1435.87  1454.19  1472.17  1473.99
eigval :     1481.25  1484.07  1486.65  1492.04  1497.30  1498.21
eigval :     1509.30  1556.38  1556.70  1573.62  1573.68  1587.22
eigval :     1590.51  1591.89  1596.71  1596.97  1605.70  1612.41
eigval :     3027.25  3030.32  3030.70  3033.31  3034.88  3035.15
eigval :     3038.83  3041.74  3068.21  3071.97  3072.57  3073.21
eigval :     3077.31  3078.03  3080.00  3081.53  3082.17  3083.29
eigval :     3084.64  3085.83  3088.24  3091.51  3093.71  3094.57
eigval :     3096.65  3101.17  3102.98

   temp. (K)  partition function   enthalpy   heat capacity  entropy
                                   cal/mol     cal/K/mol   cal/K/mol   J/K/mol
 298.15  VIB  0.240E+15            18387.551    118.661    114.554
         ROT  0.669E+08              888.752      2.981     38.789
         INT  0.161E+23            19276.304    121.642    153.343
         TR   0.113E+29             1481.254      4.968     44.575
         TOT                       20757.5578   126.6103   197.9185   828.0912

       T/K    H(0)-H(T)+PV         H(T)/Eh          T*S/Eh         G(T)/Eh
   ------------------------------------------------------------------------
    298.15    0.330793E-01    0.554903E+00    0.940375E-01    0.460866E+00
   ------------------------------------------------------------------------

         :::::::::::::::::::::::::::::::::::::::::::::::::::::
         ::                  THERMODYNAMIC                  ::
         :::::::::::::::::::::::::::::::::::::::::::::::::::::
         :: total free energy        -101.411574038093 Eh   ::
         ::.................................................::
         :: total energy             -101.872439721938 Eh   ::
         :: zero point energy           0.521823895587 Eh   ::
         :: G(RRHO) w/o ZPVE           -0.060958211743 Eh   ::
         :: G(RRHO) contrib.            0.460865683844 Eh   ::
         :::::::::::::::::::::::::::::::::::::::::::::::::::::

           -------------------------------------------------
          | TOTAL ENERGY             -101.872439721938 Eh   |
          | TOTAL ENTHALPY           -101.317536552489 Eh   |
          | TOTAL FREE ENERGY        -101.411574038093 Eh   |
          | GRADIENT NORM               0.000040048449 Eh/α |
          | HOMO-LUMO GAP               2.148238699947 eV   |
           -------------------------------------------------

 * finished run on 2025/09/03 at 18:24:32.063
