   * xtb version 6.7.1 (edcfbbe) compiled by 'albert@albert-system' on 2024-07-22

   ID    Z sym.   atoms
    1    7 N      1, 6, 17, 20, 31, 36
    2    6 C      2-5, 7-16, 18, 19, 21-30, 32-35
    3    1 H      37-52

          program call               : xtb data2507/toluene/α-2CbPN/α-2CbPN.xyz --gfn 2 --gbsa toluene --ohess vtight --parallel 40 --molden --ceasefiles --namespace data2507/toluene/α-2CbPN/α-2CbPN_toluene_S0_preOpt
      * Solvation model:               GBSA
        Solvent                        toluene
        Solvent mass                       9.2140E+01 g/mol
          :  Hamiltonian                  GFN2-xTB          :
 * total energy  :   -89.9653255 Eh     change       -0.3584319E-08 Eh
 * total energy  :   -89.9789331 Eh     change       -0.1360764E-01 Eh
 * total energy  :   -89.9820075 Eh     change       -0.3074410E-02 Eh
 * total energy  :   -89.9820164 Eh     change       -0.8882112E-05 Eh
 * total energy  :   -89.9829038 Eh     change       -0.8874228E-03 Eh
 * total energy  :   -89.9830682 Eh     change       -0.1643234E-03 Eh
 * total energy  :   -89.9831783 Eh     change       -0.1101178E-03 Eh
 * total energy  :   -89.9832459 Eh     change       -0.6759886E-04 Eh
 * total energy  :   -89.9832892 Eh     change       -0.4329884E-04 Eh
 * total energy  :   -89.9833789 Eh     change       -0.8969443E-04 Eh
 * total energy  :   -89.9845474 Eh     change       -0.9995039E-05 Eh
 * total energy  :   -89.9845635 Eh     change       -0.1618514E-04 Eh
 * total energy  :   -89.9845771 Eh     change       -0.1356772E-04 Eh
 * total energy  :   -89.9845995 Eh     change       -0.2240716E-04 Eh
 * total energy  :   -89.9846069 Eh     change       -0.7362647E-05 Eh
 * total energy  :   -89.9846091 Eh     change       -0.2269089E-05 Eh
 * total energy  :   -89.9846106 Eh     change       -0.1418721E-05 Eh
 * total energy  :   -89.9846111 Eh     change       -0.4907480E-06 Eh
 * total energy  :   -89.9846111 Eh     change       -0.8884635E-07 Eh
   *** GEOMETRY OPTIMIZATION CONVERGED AFTER 35 ITERATIONS ***

 final structure:
================
52
 xtb: 6.7.1 (edcfbbe)
N           -1.88213062936068        6.30313298528391       -0.70150323243424
C           -1.32864496432895        5.32011147085716       -0.49555771528385
C           -0.66101739910551        4.10072843798070       -0.24232414986064
C           -1.30138909557252        2.89150556531998       -0.48725827328063
C           -0.65898297347259        1.68025100115636       -0.25417370903594
N           -1.31259238397047        0.49156542876666       -0.56108965674933
C           -2.59047976615947        0.12044198395173       -0.15694792389749
C           -3.51197138898025        0.81600664220038        0.60839599061409
C           -4.71636342592400        0.19551475347536        0.89002043266289
C           -4.99907082890955       -1.08842495074077        0.43152474501972
C           -4.07420644814381       -1.79636921791864       -0.31112768852820
C           -2.85904765373323       -1.19161003765396       -0.60611632603967
C           -1.68729159495459       -1.63222640775427       -1.31060583260958
C           -1.30139155004554       -2.78166764970031       -1.98100658837369
C           -0.03757352961997       -2.79064130045787       -2.55447349260427
C            0.77258197346264       -1.66520121993696       -2.45786892687662
N            0.43276515245083       -0.55299415457134       -1.82063466451772
C           -0.75896700848054       -0.56351897685262       -1.24937771025178
C            0.65896800724871        1.68027652166692        0.25356469477070
N            1.31270041391032        0.49155228139160        0.56015288985542
C            2.59041781074781        0.12028666344755        0.15574899769410
C            3.51149578035720        0.81550378137586       -0.61040269226013
C            4.71574373494347        0.19487854299126       -0.89232804585010
C            4.99868806680206       -1.08882779288127       -0.43330045744606
C            4.07425896182506       -1.79638022954063        0.31026598932247
C            2.85922247367336       -1.19150738739834        0.60554264387220
C            1.68777421167119       -1.63175247892875        1.31078370722820
C            1.30219982833796       -2.78071200374214        1.98219932848794
C            0.03859001845744       -2.78934588120236        2.55613400023544
C           -0.77175823604758       -1.66409801223873        2.45888206297117
N           -0.43226161703517       -0.55233069839115        1.82070716580564
C            0.75934452034543       -0.56314714634323        1.24919512246372
C            1.30112656790844        2.89149753389376        0.48741705457046
C            0.66032412206176        4.10073805598398        0.24370424564492
C            1.32740739176101        5.32011247580950        0.49844462311360
N            1.88045431826468        6.30308095147358        0.70575326130642
H           -2.30021228379032        2.89530260746051       -0.89736205863346
H           -3.29880671473428        1.80152863077164        0.99183766974302
H           -5.45085140655216        0.71947757422332        1.48277484249455
H           -5.95114096092487       -1.53745690246299        0.67034782410593
H           -4.28290194407736       -2.79880824571517       -0.65207085318718
H           -1.95828809882444       -3.63525654434143       -2.05813106847618
H            0.31864998102566       -3.65953106569276       -3.08467217377316
H            1.75333445471514       -1.64447176061193       -2.91323986213965
H            3.29805670459082        1.80084438141731       -0.99416948837040
H            5.44991953075215        0.71850767743424       -1.48576401050329
H            5.95062401920948       -1.53799137503581       -0.67241585337446
H            4.28318050134358       -2.79862268910044        0.65165216042036
H            1.95920081806717       -3.63417802931740        2.05979195921739
H           -0.31733099864701       -3.65782915470687        3.08720096071767
H           -1.75238006354065       -1.64314109992806        2.91452536464732
H            2.30002260100446        2.89519446482221        0.89735771737882

          :  Hamiltonian                  GFN2-xTB          :
         :: gradient norm              0.000102832050 Eh/a0 ::
         :: HOMO-LUMO gap              2.055635570859 eV    ::
         :: SCC energy               -91.665703045821 Eh    ::
         :: -> dispersion             -0.083670879016 Eh    ::
         :: -> Gsolv                  -0.040741359389 Eh    ::
         :: repulsion energy           1.681091898570 Eh    ::

    * Orbital Energies and Occupations

         #    Occupation            Energy/Eh            Energy/eV
      -------------------------------------------------------------
         1        2.0000           -0.7127491             -19.3949
       ...           ...                  ...                  ...
        71        2.0000           -0.4485427             -12.2055
        72        2.0000           -0.4468658             -12.1598
        73        2.0000           -0.4441481             -12.0859
        74        2.0000           -0.4386037             -11.9350
        75        2.0000           -0.4381090             -11.9216
        76        2.0000           -0.4334029             -11.7935
        77        2.0000           -0.4321686             -11.7599
        78        2.0000           -0.4055911             -11.0367
        79        2.0000           -0.4013851             -10.9222
        80        2.0000           -0.3958154             -10.7707
        81        2.0000           -0.3928013             -10.6887
        82        2.0000           -0.3898516             -10.6084
        83        2.0000           -0.3896848             -10.6039 (HOMO)
        84                         -0.3141414              -8.5482 (LUMO)
        85                         -0.2902555              -7.8983
        86                         -0.2759311              -7.5085
        87                         -0.2756450              -7.5007
        88                         -0.2533739              -6.8947
        89                         -0.2457920              -6.6883
        90                         -0.2355766              -6.4104
        91                         -0.2312221              -6.2919
        92                         -0.2309929              -6.2856
        93                         -0.2175898              -5.9209
        94                         -0.2131440              -5.7999
       ...                                ...                  ...
       160                          1.1609754              31.5917
      -------------------------------------------------------------
                  HL-Gap            0.0755434 Eh            2.0556 eV

     #   Z          covCN         q      C6AA      α(0)
     1   7 N        0.911    -0.234    26.138     7.394
     2   6 C        1.910     0.120    28.159     8.570
     3   6 C        2.975     0.022    27.507     8.603
     4   6 C        2.929    -0.035    28.873     8.812
     5   6 C        2.911     0.075    26.327     8.414
     6   7 N        2.801    -0.040    22.011     6.968
     7   6 C        3.075     0.051    26.778     8.484
     8   6 C        2.910    -0.046    29.145     8.852
     9   6 C        2.924    -0.029    28.719     8.788
    10   6 C        2.920    -0.036    28.904     8.816
    11   6 C        2.912    -0.032    28.787     8.798
    12   6 C        3.066    -0.017    28.362     8.733
    13   6 C        3.064    -0.030    28.676     8.781
    14   6 C        2.920    -0.020    28.508     8.756
    15   6 C        2.917    -0.053    29.329     8.881
    16   6 C        2.931     0.058    26.699     8.474
    17   7 N        1.833    -0.283    28.186     7.867
    18   6 C        3.088     0.150    24.664     8.141
    19   6 C        2.911     0.075    26.327     8.414
    20   7 N        2.801    -0.040    22.011     6.968
    21   6 C        3.075     0.051    26.777     8.484
    22   6 C        2.910    -0.046    29.144     8.852
    23   6 C        2.924    -0.029    28.719     8.788
    24   6 C        2.920    -0.036    28.904     8.816
    25   6 C        2.912    -0.032    28.787     8.798
    26   6 C        3.066    -0.017    28.362     8.733
    27   6 C        3.064    -0.030    28.676     8.781
    28   6 C        2.920    -0.020    28.508     8.756
    29   6 C        2.917    -0.053    29.329     8.881
    30   6 C        2.931     0.058    26.699     8.474
    31   7 N        1.833    -0.283    28.186     7.867
    32   6 C        3.088     0.150    24.664     8.141
    33   6 C        2.929    -0.035    28.873     8.812
    34   6 C        2.975     0.022    27.507     8.603
    35   6 C        1.910     0.120    28.159     8.570
    36   7 N        0.911    -0.234    26.138     7.394
    37   1 H        0.926     0.071     2.078     2.254
    38   1 H        0.926     0.039     2.465     2.455
    39   1 H        0.926     0.049     2.338     2.391
    40   1 H        0.926     0.047     2.359     2.402
    41   1 H        0.926     0.045     2.383     2.414
    42   1 H        0.926     0.047     2.358     2.401
    43   1 H        0.926     0.045     2.378     2.411
    44   1 H        0.925     0.038     2.479     2.462
    45   1 H        0.926     0.039     2.465     2.455
    46   1 H        0.926     0.049     2.338     2.391
    47   1 H        0.926     0.047     2.359     2.402
    48   1 H        0.926     0.045     2.383     2.414
    49   1 H        0.926     0.047     2.358     2.401
    50   1 H        0.926     0.045     2.378     2.411
    51   1 H        0.925     0.038     2.480     2.462
    52   1 H        0.926     0.071     2.079     2.255

molecular dipole:
                 x           y           z       tot (Debye)
 q only:       -0.000      -2.739      -0.001
   full:        0.000      -3.955      -0.002      10.053

 projected vibrational frequencies (cm⁻¹)
eigval :       -0.00    -0.00     0.00     0.00     0.00     0.00
eigval :       24.46    29.83    35.15    44.59    48.07    55.08
eigval :       92.86    98.77   100.40   102.77   124.60   136.86
eigval :      142.41   146.37   173.13   174.13   197.70   207.23
eigval :      260.59   276.33   281.69   281.94   310.20   313.85
eigval :      353.22   390.89   394.83   397.42   421.05   424.52
eigval :      425.31   431.49   437.58   449.75   481.95   483.46
eigval :      514.61   516.15   532.64   533.17   546.56   549.16
eigval :      553.80   574.92   589.29   591.61   596.32   604.43
eigval :      654.76   655.94   669.32   686.31   686.82   689.87
eigval :      712.60   724.34   726.53   752.50   761.78   771.51
eigval :      772.94   773.72   792.52   793.48   842.43   865.19
eigval :      867.00   883.89   892.57   900.02   900.06   904.37
eigval :      906.01   907.85   909.37   910.06   915.56   923.55
eigval :      923.89   963.92  1020.43  1020.61  1072.05  1072.34
eigval :     1075.40  1086.72  1092.91  1120.67  1135.67  1147.98
eigval :     1149.17  1166.78  1168.49  1177.24  1178.12  1210.93
eigval :     1213.04  1221.04  1221.94  1231.41  1264.03  1281.76
eigval :     1282.07  1290.79  1291.22  1316.38  1324.75  1342.85
eigval :     1343.35  1351.53  1352.45  1358.69  1374.74  1402.17
eigval :     1410.16  1424.07  1429.54  1460.28  1463.01  1477.58
eigval :     1477.95  1487.52  1505.99  1548.45  1565.08  1566.36
eigval :     1573.51  1573.75  1594.27  1594.42  1609.09  1610.04
eigval :     2365.39  2365.47  3065.29  3065.38  3080.28  3080.35
eigval :     3084.33  3084.33  3088.87  3088.88  3095.71  3095.74
eigval :     3100.74  3101.07  3102.00  3102.02  3102.83  3103.29

   temp. (K)  partition function   enthalpy   heat capacity  entropy
                                   cal/mol     cal/K/mol   cal/K/mol   J/K/mol
 298.15  VIB  0.536E+11            15414.711     99.700     93.828
         ROT  0.109E+08              888.752      2.981     35.176
         INT  0.582E+18            16303.464    102.681    129.004
         TR   0.956E+28             1481.254      4.968     44.250
         TOT                       17784.7176   107.6495   173.2536   724.8931

       T/K    H(0)-H(T)+PV         H(T)/Eh          T*S/Eh         G(T)/Eh
   ------------------------------------------------------------------------
    298.15    0.283418E-01    0.402865E+00    0.823184E-01    0.320546E+00
   ------------------------------------------------------------------------

         :::::::::::::::::::::::::::::::::::::::::::::::::::::
         ::                  THERMODYNAMIC                  ::
         :::::::::::::::::::::::::::::::::::::::::::::::::::::
         :: total free energy         -89.664064748780 Eh   ::
         ::.................................................::
         :: total energy              -89.984611145794 Eh   ::
         :: zero point energy           0.374523028380 Eh   ::
         :: G(RRHO) w/o ZPVE           -0.053976631366 Eh   ::
         :: G(RRHO) contrib.            0.320546397014 Eh   ::
         :::::::::::::::::::::::::::::::::::::::::::::::::::::

           -------------------------------------------------
          | TOTAL ENERGY              -89.984611145794 Eh   |
          | TOTAL ENTHALPY            -89.581746365889 Eh   |
          | TOTAL FREE ENERGY         -89.664064748780 Eh   |
          | GRADIENT NORM               0.000102527700 Eh/α |
          | HOMO-LUMO GAP               2.055639720717 eV   |
           -------------------------------------------------

 * finished run on 2025/07/16 at 18:07:31.389
