   * xtb version 6.7.1 (edcfbbe) compiled by 'albert@albert-system' on 2024-07-22

   ID    Z sym.   atoms
    1    7 N      1, 6, 17, 20, 31, 36
    2    6 C      2-5, 7-16, 18, 19, 21-30, 32-35
    3    1 H      37-52

          program call               : xtb data2507/toluene/α-2CbPN/α-2CbPN_toluene_S0_finalOpt.xtbopt.xyz --gfn 2 --uhf 2 --gbsa toluene --ohess vtight --parallel 40 --molden --ceasefiles --namespace data2507/toluene/α-2CbPN/α-2CbPN_toluene_T1_preOpt
      * Solvation model:               GBSA
        Solvent                        toluene
        Solvent mass                       9.2140E+01 g/mol
          :  Hamiltonian                  GFN2-xTB          :
 * total energy  :   -89.8896420 Eh     change        0.2326743E-09 Eh
 * total energy  :   -89.8935123 Eh     change       -0.3870294E-02 Eh
 * total energy  :   -89.8945942 Eh     change       -0.1081825E-02 Eh
 * total energy  :   -89.8946897 Eh     change       -0.9558918E-04 Eh
 * total energy  :   -89.8949741 Eh     change       -0.2843431E-03 Eh
 * total energy  :   -89.8950084 Eh     change       -0.3435920E-04 Eh
 * total energy  :   -89.8950553 Eh     change       -0.4690516E-04 Eh
 * total energy  :   -89.8951021 Eh     change       -0.4673385E-04 Eh
 * total energy  :   -89.8951584 Eh     change       -0.5627373E-04 Eh
 * total energy  :   -89.8951996 Eh     change       -0.4119729E-04 Eh
 * total energy  :   -89.8956129 Eh     change       -0.4477003E-06 Eh
 * total energy  :   -89.8956135 Eh     change       -0.5572332E-06 Eh
 * total energy  :   -89.8956140 Eh     change       -0.5128536E-06 Eh
 * total energy  :   -89.8956143 Eh     change       -0.3343833E-06 Eh
 * total energy  :   -89.8956145 Eh     change       -0.2122241E-06 Eh
 * total energy  :   -89.8956146 Eh     change       -0.1388408E-06 Eh
 * total energy  :   -89.8956148 Eh     change       -0.1086416E-06 Eh
 * total energy  :   -89.8956149 Eh     change       -0.1071120E-06 Eh
 * total energy  :   -89.8956150 Eh     change       -0.9456804E-07 Eh
   *** GEOMETRY OPTIMIZATION CONVERGED AFTER 41 ITERATIONS ***

 final structure:
================
52
 xtb: 6.7.1 (edcfbbe)
N           -5.79519703447432       -1.86808863681505       -0.75493625255142
C           -4.80434486804208       -1.31221875671561       -0.52902470687499
C           -3.60789943954271       -0.66971301366990       -0.25037877503752
C           -2.38953572123814       -1.31175321877877       -0.45407621816089
C           -1.17837259236661       -0.68394718767765       -0.23190743179178
N            0.00647129634703       -1.34094367700057       -0.52018435244648
C            0.28667092876875       -2.67079357412984       -0.24293232155039
C           -0.42992513739942       -3.58283382986141        0.52072217651166
C            0.10630419582277       -4.84758556953941        0.69242586792654
C            1.33004254151137       -5.20069965627037        0.12903522927970
C            2.06922813971942       -4.28551739295512       -0.60216673482899
C            1.54747829295135       -3.01421213714760       -0.79018720150725
C            2.05010563500219       -1.83155692618239       -1.42982822074560
C            3.19082382783332       -1.49203641919694       -2.14189650335516
C            3.28610068532847       -0.19440943592327       -2.62043794778888
C            2.25060711324084        0.70822903886397       -2.38010389883052
N            1.16539563836717        0.41150048319533       -1.68616459128256
C            1.07183311959402       -0.82179387483458       -1.22638034715286
C           -1.17125400048639        0.69778077516459        0.23079112513108
N            0.02027659094981        1.34153679543303        0.52132005124184
C            0.31722769501245        2.66728569103304        0.24202368006792
C           -0.38704139397853        3.58662826444976       -0.52430759128416
C            0.16548595395063        4.84401036206359       -0.69846897815734
C            1.39315939416433        5.18271682641786       -0.13483475632688
C            2.11983384054013        4.25997655238147        0.59942243100275
C            1.58161942245459        2.99595159368307        0.79007713521652
C            2.06847835023140        1.80843589363185        1.43299042082986
C            3.20369567193565        1.45613830608406        2.14761736041068
C            3.28182015564099        0.15843721074154        2.62909892669694
C            2.23544238142300       -0.73163177888686        2.38900529252559
N            1.15520455225067       -0.42289983764749        1.69253916164912
C            1.07801670026782        0.81055400087255        1.23007670257906
C           -2.37578319892048        1.33911491136805        0.45019345393818
C           -3.60079729568086        0.71061803485593        0.24398993658978
C           -4.79070136187840        1.36620660691647        0.52010140807855
N           -5.77596547595779        1.93274151150221        0.74394799053432
H           -2.40356067623649       -2.31769147784810       -0.84839379566967
H           -1.36511648168176       -3.31409378500226        0.98580600474841
H           -0.43632630864785       -5.57225815411283        1.27962857981048
H            1.71101822876944       -6.19966686249594        0.27552034497638
H            3.03037286897405       -4.55008804085469       -1.01444187825817
H            3.97210053895692       -2.21456944267382       -2.32277620693738
H            4.15486128329052        0.12822868750957       -3.17104834901610
H            2.29790356903781        1.72505738593623       -2.74359702782442
H           -1.32522654976303        3.32887204054388       -0.98959229963430
H           -0.36732196949739        5.57419328046893       -1.28782401812015
H            1.78711243181598        6.17630576095132       -0.28350613692207
H            3.08396247632878        4.51321497512097        1.01186219714247
H            3.99375175457707        2.16913433535635        2.32823935284462
H            4.14547779283271       -0.17386094372241        3.18199242666778
H            2.26928722930702       -1.74812216078188        2.75494773129313
H           -2.37939220847243        2.34521480913471        0.84434571656062

          :  Hamiltonian                  GFN2-xTB          :
         :: gradient norm              0.000032520634 Eh/a0 ::
         :: HOMO-LUMO gap              0.332976639213 eV    ::
         :: SCC energy               -91.555578871458 Eh    ::
         :: -> dispersion             -0.081839964102 Eh    ::
         :: -> Gsolv                  -0.050455047174 Eh    ::
         :: repulsion energy           1.659963911377 Eh    ::

    * Orbital Energies and Occupations

         #    Occupation            Energy/Eh            Energy/eV
      -------------------------------------------------------------
         1        2.0000           -0.7122073             -19.3801
       ...           ...                  ...                  ...
        72        2.0000           -0.4436528             -12.0724
        73        2.0000           -0.4427886             -12.0489
        74        2.0000           -0.4359268             -11.8622
        75        2.0000           -0.4225562             -11.4983
        76        2.0000           -0.4196314             -11.4188
        77        2.0000           -0.4183903             -11.3850
        78        2.0000           -0.4132320             -11.2446
        79        2.0000           -0.4111712             -11.1885
        80        2.0000           -0.4039024             -10.9907
        81        1.9999           -0.4028042             -10.9609
        82        1.9853           -0.3984307             -10.8419
        83        1.0149           -0.3904564             -10.6249
        84        0.9983           -0.2978948              -8.1061 (HOMO)
        85        0.0015           -0.2856580              -7.7732 (LUMO)
        86        0.0002           -0.2835853              -7.7167
        87                         -0.2684795              -7.3057
        88                         -0.2609418              -7.1006
        89                         -0.2571309              -6.9969
        90                         -0.2347283              -6.3873
        91                         -0.2252768              -6.1301
        92                         -0.2219791              -6.0404
        93                         -0.2216857              -6.0324
        94                         -0.2061576              -5.6098
        95                         -0.2045623              -5.5664
       ...                                ...                  ...
       160                          1.1723234              31.9005
      -------------------------------------------------------------
                  HL-Gap            0.0122368 Eh            0.3330 eV

     #   Z          covCN         q      C6AA      α(0)
     1   7 N        0.911    -0.317    28.160     7.675
     2   6 C        1.910     0.102    28.578     8.633
     3   6 C        2.964    -0.009    28.234     8.716
     4   6 C        2.922    -0.038    28.952     8.824
     5   6 C        2.904     0.049    26.901     8.504
     6   7 N        2.796    -0.001    21.289     6.853
     7   6 C        3.076     0.047    26.863     8.498
     8   6 C        2.909    -0.035    28.865     8.810
     9   6 C        2.922    -0.027    28.680     8.782
    10   6 C        2.920    -0.027    28.679     8.782
    11   6 C        2.911    -0.025    28.639     8.775
    12   6 C        3.062    -0.012    28.256     8.717
    13   6 C        3.060    -0.023    28.516     8.757
    14   6 C        2.918    -0.017    28.426     8.743
    15   6 C        2.917    -0.045    29.128     8.850
    16   6 C        2.923     0.056    26.753     8.482
    17   7 N        1.833    -0.249    27.343     7.749
    18   6 C        3.080     0.138    24.922     8.184
    19   6 C        2.904     0.049    26.902     8.504
    20   7 N        2.796    -0.001    21.288     6.853
    21   6 C        3.076     0.047    26.862     8.497
    22   6 C        2.909    -0.035    28.864     8.810
    23   6 C        2.922    -0.027    28.680     8.782
    24   6 C        2.920    -0.027    28.679     8.782
    25   6 C        2.911    -0.025    28.639     8.775
    26   6 C        3.062    -0.012    28.255     8.717
    27   6 C        3.060    -0.023    28.515     8.757
    28   6 C        2.918    -0.017    28.426     8.743
    29   6 C        2.917    -0.045    29.128     8.850
    30   6 C        2.923     0.056    26.752     8.482
    31   7 N        1.833    -0.249    27.346     7.749
    32   6 C        3.080     0.138    24.921     8.184
    33   6 C        2.922    -0.038    28.952     8.824
    34   6 C        2.964    -0.009    28.234     8.716
    35   6 C        1.910     0.102    28.578     8.634
    36   7 N        0.911    -0.317    28.160     7.675
    37   1 H        0.926     0.049     2.335     2.390
    38   1 H        0.926     0.049     2.336     2.390
    39   1 H        0.926     0.056     2.245     2.343
    40   1 H        0.926     0.058     2.223     2.332
    41   1 H        0.926     0.057     2.236     2.338
    42   1 H        0.926     0.060     2.196     2.317
    43   1 H        0.926     0.058     2.221     2.331
    44   1 H        0.926     0.049     2.333     2.389
    45   1 H        0.926     0.049     2.336     2.390
    46   1 H        0.926     0.056     2.244     2.343
    47   1 H        0.926     0.058     2.223     2.332
    48   1 H        0.926     0.057     2.236     2.338
    49   1 H        0.926     0.060     2.196     2.317
    50   1 H        0.926     0.058     2.221     2.331
    51   1 H        0.926     0.049     2.334     2.389
    52   1 H        0.926     0.049     2.335     2.390

molecular dipole:
                 x           y           z       tot (Debye)
 q only:        6.521      -0.036       0.004
   full:        7.546      -0.042       0.004      19.179

 projected vibrational frequencies (cm⁻¹)
eigval :       -0.00    -0.00    -0.00     0.00     0.00     0.00
eigval :       22.84    28.43    29.63    44.61    45.91    56.19
eigval :       92.88    95.12    95.90    99.36   128.29   132.99
eigval :      136.84   143.88   164.74   176.04   195.12   205.67
eigval :      252.12   273.83   277.06   279.75   301.46   323.93
eigval :      348.57   365.79   382.53   387.66   387.80   408.66
eigval :      415.55   418.42   437.05   438.15   463.62   473.29
eigval :      480.14   507.03   507.91   525.07   532.99   536.19
eigval :      545.02   560.52   582.82   585.29   586.54   594.60
eigval :      595.78   640.28   653.02   663.25   679.19   680.79
eigval :      688.91   715.61   715.83   736.51   753.52   762.64
eigval :      768.57   768.85   779.63   781.03   835.07   860.16
eigval :      863.52   880.54   885.84   886.10   891.80   897.90
eigval :      899.54   901.23   906.75   908.31   910.24   918.54
eigval :      920.20   937.97  1014.16  1015.03  1067.05  1068.70
eigval :     1071.59  1080.53  1086.60  1110.90  1135.37  1137.92
eigval :     1141.59  1157.33  1163.19  1170.33  1170.88  1189.14
eigval :     1198.06  1204.52  1216.03  1224.33  1255.62  1262.89
eigval :     1265.81  1277.46  1282.71  1315.08  1316.87  1321.37
eigval :     1326.04  1338.12  1338.44  1349.98  1360.47  1368.85
eigval :     1379.53  1394.22  1396.59  1424.87  1436.76  1437.78
eigval :     1448.34  1449.47  1470.53  1471.07  1523.87  1530.64
eigval :     1541.47  1543.98  1562.65  1566.03  1577.12  1580.61
eigval :     2231.50  2251.75  3073.44  3073.80  3086.04  3086.44
eigval :     3086.75  3086.80  3091.26  3091.32  3095.62  3095.83
eigval :     3102.12  3102.34  3107.50  3107.56  3107.95  3108.60

   temp. (K)  partition function   enthalpy   heat capacity  entropy
                                   cal/mol     cal/K/mol   cal/K/mol   J/K/mol
 298.15  VIB  0.112E+12            15737.269    101.286     95.837
         ROT  0.112E+08              888.752      2.981     35.241
         INT  0.126E+19            16626.021    104.267    131.078
         TR   0.956E+28             1481.254      4.968     44.250
         TOT                       18107.2751   109.2353   175.3283   733.5738

       T/K    H(0)-H(T)+PV         H(T)/Eh          T*S/Eh         G(T)/Eh
   ------------------------------------------------------------------------
    298.15    0.288558E-01    0.399026E+00    0.833042E-01    0.315722E+00
   ------------------------------------------------------------------------

         :::::::::::::::::::::::::::::::::::::::::::::::::::::
         ::                  THERMODYNAMIC                  ::
         :::::::::::::::::::::::::::::::::::::::::::::::::::::
         :: total free energy         -89.579892734895 Eh   ::
         ::.................................................::
         :: total energy              -89.895614960247 Eh   ::
         :: zero point energy           0.370170595725 Eh   ::
         :: G(RRHO) w/o ZPVE           -0.054448370373 Eh   ::
         :: G(RRHO) contrib.            0.315722225352 Eh   ::
         :::::::::::::::::::::::::::::::::::::::::::::::::::::

           -------------------------------------------------
          | TOTAL ENERGY              -89.895614960247 Eh   |
          | TOTAL ENTHALPY            -89.496588584869 Eh   |
          | TOTAL FREE ENERGY         -89.579892734895 Eh   |
          | GRADIENT NORM               0.000032375296 Eh/α |
          | HOMO-LUMO GAP               0.332980231075 eV   |
           -------------------------------------------------

 * finished run on 2025/07/16 at 18:09:35.131
