   * xtb version 6.7.1 (edcfbbe) compiled by 'albert@albert-system' on 2024-07-22

   ID    Z sym.   atoms
    1    7 N      1, 6, 17, 20, 31, 36
    2    6 C      2-5, 7-16, 18, 19, 21-30, 32-35
    3    1 H      37-52

          program call               : xtb data2507/toluene/α-2CbPN/α-2CbPN_toluene_S0_crest.xyz --gfn 2 --gbsa toluene --ohess vtight --parallel 40 --molden --ceasefiles --namespace data2507/toluene/α-2CbPN/α-2CbPN_toluene_S0_finalOpt
      * Solvation model:               GBSA
        Solvent                        toluene
        Solvent mass                       9.2140E+01 g/mol
          :  Hamiltonian                  GFN2-xTB          :
 * total energy  :   -89.9841225 Eh     change       -0.8768495E-08 Eh
 * total energy  :   -89.9841886 Eh     change       -0.6606727E-04 Eh
 * total energy  :   -89.9842129 Eh     change       -0.2429496E-04 Eh
 * total energy  :   -89.9842714 Eh     change       -0.5856319E-04 Eh
 * total energy  :   -89.9843038 Eh     change       -0.3234401E-04 Eh
 * total energy  :   -89.9843180 Eh     change       -0.1423648E-04 Eh
 * total energy  :   -89.9843197 Eh     change       -0.1656111E-05 Eh
 * total energy  :   -89.9843631 Eh     change       -0.4349111E-04 Eh
 * total energy  :   -89.9843901 Eh     change       -0.2694965E-04 Eh
 * total energy  :   -89.9844099 Eh     change       -0.1977896E-04 Eh
 * total energy  :   -89.9846225 Eh     change       -0.6650396E-06 Eh
 * total energy  :   -89.9846231 Eh     change       -0.5710753E-06 Eh
 * total energy  :   -89.9846236 Eh     change       -0.5600916E-06 Eh
 * total energy  :   -89.9846242 Eh     change       -0.5698957E-06 Eh
 * total energy  :   -89.9846247 Eh     change       -0.5006280E-06 Eh
 * total energy  :   -89.9846250 Eh     change       -0.3243472E-06 Eh
 * total energy  :   -89.9846252 Eh     change       -0.1903321E-06 Eh
 * total energy  :   -89.9846253 Eh     change       -0.1103164E-06 Eh
 * total energy  :   -89.9846254 Eh     change       -0.7383687E-07 Eh
   *** GEOMETRY OPTIMIZATION CONVERGED AFTER 38 ITERATIONS ***

 final structure:
================
52
 xtb: 6.7.1 (edcfbbe)
N           -5.87480954017313       -1.83459756531671       -0.74421519801540
C           -4.88905266473351       -1.29001685052502       -0.52797471346039
C           -3.66628523706023       -0.63415606498147       -0.26081257395342
C           -2.46038246665884       -1.27536083713071       -0.51955262840814
C           -1.24577164338888       -0.64526816792584       -0.27092323142514
N           -0.06045032655190       -1.29745024425062       -0.59340188816001
C            0.30391684992268       -2.58732937801045       -0.22216061728381
C           -0.39858196375057       -3.52708863986198        0.51416005673476
C            0.21529977339205       -4.74199771336782        0.76358280630431
C            1.49975620168145       -5.01750173200556        0.30222068383307
C            2.21489412892987       -4.07485643937653       -0.41059653273937
C            1.61643406643932       -2.84937577518340       -0.67393501004225
C            2.06422858906114       -1.66148201421807       -1.34604346777295
C            3.21718984209388       -1.26332862038898       -2.00307681229850
C            3.23289192938213        0.01458953570486       -2.54424434535505
C            2.11029297108692        0.82646833610918       -2.43050348346042
N            0.99480637280391        0.47491423777095       -1.80550320652741
C            0.99899580920472       -0.73084196653343       -1.26435165587538
C           -1.23902274361560        0.66023967774515        0.26834956451436
N           -0.04700915713907        1.29895779535677        0.59325694630551
C            0.33376899296832        2.58372863188588        0.22086782710580
C           -0.35574015140143        3.53071314297357       -0.51845021270872
C            0.27364569098440        4.73742169295915       -0.76900615364664
C            1.56053468547424        4.99787416110823       -0.30569791410707
C            2.26254792265712        4.04793087415446        0.41046331597824
C            1.64848678549810        2.83043136083126        0.67490034266103
C            2.08039672005277        1.63819039107641        1.34970173394186
C            3.22707163168197        1.22689680330067        2.00963089133691
C            3.22616243635887       -0.05048100758486        2.55233197092716
C            2.09417538042031       -0.84899459948236        2.43700000001511
N            0.98435696316780       -0.48474425926446        1.80916361296642
C            1.00416787256303        0.72037007396318        1.26692094099442
C           -2.44692640731729        1.30396328710276        0.51466471737730
C           -3.65947503865142        0.67616454543605        0.25403643460462
C           -4.87548389221069        1.34516258186412        0.51946698534775
N           -5.85575767442275        1.89995639748477        0.73467619274739
H           -2.46947175570026       -2.26441116124823       -0.95257070318435
H           -1.38444778365657       -3.32051415027695        0.90027675586415
H           -0.31447182941443       -5.49076993229661        1.33283374016527
H            1.94354967955017       -5.97805562594719        0.51547450494904
H            3.21780515758538       -4.27815754002116       -0.75340911051259
H            4.06833841262977       -1.92156393939344       -2.09445162212541
H            4.10480117702477        0.38069228439168       -3.06260218224124
H            2.09466834330688        1.81858432685487       -2.86075446677623
H           -1.34340712701258        3.33563850008760       -0.90597148660310
H           -0.24567564668152        5.49158603558678       -1.34075916408825
H            2.01669038161587        5.95237120903116       -0.52007228409512
H            3.26721982791015        4.23955767166229        0.75484862447144
H            4.08603058408900        1.87478693437818        2.10196914845819
H            4.09249074400153       -0.42635630674087        3.07304828851387
H            2.06565773596626       -1.84043777027121        2.86815262786077
H           -2.44564128036707        2.29316578378392        0.94744561638750

          :  Hamiltonian                  GFN2-xTB          :
         :: gradient norm              0.000032728023 Eh/a0 ::
         :: HOMO-LUMO gap              2.057842899238 eV    ::
         :: SCC energy               -91.665680754115 Eh    ::
         :: -> dispersion             -0.083746426264 Eh    ::
         :: -> Gsolv                  -0.040738729420 Eh    ::
         :: repulsion energy           1.681055335777 Eh    ::

    * Orbital Energies and Occupations

         #    Occupation            Energy/Eh            Energy/eV
      -------------------------------------------------------------
         1        2.0000           -0.7127129             -19.3939
       ...           ...                  ...                  ...
        71        2.0000           -0.4485385             -12.2054
        72        2.0000           -0.4468506             -12.1594
        73        2.0000           -0.4441452             -12.0858
        74        2.0000           -0.4386355             -11.9359
        75        2.0000           -0.4381361             -11.9223
        76        2.0000           -0.4334526             -11.7948
        77        2.0000           -0.4321971             -11.7607
        78        2.0000           -0.4056746             -11.0390
        79        2.0000           -0.4013953             -10.9225
        80        2.0000           -0.3958990             -10.7730
        81        2.0000           -0.3928277             -10.6894
        82        2.0000           -0.3898714             -10.6089
        83        2.0000           -0.3897420             -10.6054 (HOMO)
        84                         -0.3141176              -8.5476 (LUMO)
        85                         -0.2902149              -7.8971
        86                         -0.2759895              -7.5101
        87                         -0.2756888              -7.5019
        88                         -0.2534855              -6.8977
        89                         -0.2457837              -6.6881
        90                         -0.2355570              -6.4098
        91                         -0.2312989              -6.2940
        92                         -0.2309644              -6.2849
        93                         -0.2176290              -5.9220
        94                         -0.2132019              -5.8015
       ...                                ...                  ...
       160                          1.1610868              31.5948
      -------------------------------------------------------------
                  HL-Gap            0.0756244 Eh            2.0578 eV

     #   Z          covCN         q      C6AA      α(0)
     1   7 N        0.911    -0.235    26.139     7.394
     2   6 C        1.910     0.120    28.159     8.570
     3   6 C        2.975     0.022    27.507     8.603
     4   6 C        2.929    -0.035    28.875     8.812
     5   6 C        2.911     0.075    26.327     8.414
     6   7 N        2.801    -0.040    22.011     6.968
     7   6 C        3.074     0.051    26.778     8.484
     8   6 C        2.910    -0.046    29.146     8.853
     9   6 C        2.924    -0.029    28.719     8.788
    10   6 C        2.920    -0.036    28.904     8.816
    11   6 C        2.912    -0.032    28.788     8.798
    12   6 C        3.066    -0.017    28.362     8.733
    13   6 C        3.064    -0.030    28.677     8.781
    14   6 C        2.920    -0.020    28.508     8.756
    15   6 C        2.917    -0.053    29.328     8.881
    16   6 C        2.931     0.058    26.699     8.474
    17   7 N        1.833    -0.283    28.187     7.867
    18   6 C        3.088     0.150    24.663     8.140
    19   6 C        2.911     0.075    26.327     8.414
    20   7 N        2.801    -0.040    22.011     6.968
    21   6 C        3.074     0.051    26.777     8.484
    22   6 C        2.910    -0.046    29.145     8.852
    23   6 C        2.924    -0.029    28.719     8.788
    24   6 C        2.920    -0.036    28.904     8.816
    25   6 C        2.912    -0.032    28.788     8.798
    26   6 C        3.066    -0.017    28.362     8.733
    27   6 C        3.064    -0.030    28.677     8.781
    28   6 C        2.920    -0.020    28.509     8.756
    29   6 C        2.917    -0.053    29.329     8.881
    30   6 C        2.931     0.058    26.699     8.474
    31   7 N        1.833    -0.283    28.188     7.868
    32   6 C        3.088     0.150    24.662     8.140
    33   6 C        2.929    -0.035    28.874     8.812
    34   6 C        2.975     0.022    27.508     8.603
    35   6 C        1.910     0.120    28.159     8.570
    36   7 N        0.911    -0.235    26.139     7.394
    37   1 H        0.926     0.071     2.078     2.254
    38   1 H        0.926     0.039     2.464     2.454
    39   1 H        0.926     0.049     2.337     2.391
    40   1 H        0.926     0.047     2.358     2.401
    41   1 H        0.926     0.045     2.383     2.414
    42   1 H        0.926     0.047     2.358     2.401
    43   1 H        0.926     0.045     2.377     2.411
    44   1 H        0.925     0.038     2.479     2.462
    45   1 H        0.926     0.039     2.464     2.455
    46   1 H        0.926     0.049     2.338     2.391
    47   1 H        0.926     0.047     2.358     2.401
    48   1 H        0.926     0.045     2.383     2.414
    49   1 H        0.926     0.047     2.358     2.401
    50   1 H        0.926     0.045     2.378     2.411
    51   1 H        0.925     0.038     2.479     2.462
    52   1 H        0.926     0.071     2.079     2.255

molecular dipole:
                 x           y           z       tot (Debye)
 q only:        2.744      -0.016       0.001
   full:        3.961      -0.023       0.001      10.067

 projected vibrational frequencies (cm⁻¹)
eigval :       -0.00    -0.00    -0.00     0.00     0.00     0.00
eigval :       24.28    29.22    34.94    44.64    48.15    54.92
eigval :       92.52    98.38   100.30   103.13   124.32   137.27
eigval :      142.35   146.87   173.70   174.16   197.62   207.49
eigval :      260.82   275.69   281.02   281.46   310.33   313.45
eigval :      353.05   390.59   394.42   396.89   421.08   424.44
eigval :      425.36   431.17   437.37   448.93   481.79   483.58
eigval :      514.49   516.03   531.95   532.50   545.95   548.67
eigval :      553.74   575.00   589.23   591.54   596.32   604.26
eigval :      655.70   655.97   669.25   686.00   686.65   689.87
eigval :      712.64   723.85   726.03   752.45   761.72   771.53
eigval :      772.61   773.50   792.36   793.45   842.35   863.70
eigval :      866.27   880.85   888.78   899.51   900.31   903.43
eigval :      904.99   907.62   908.84   909.70   915.26   922.75
eigval :      923.56   963.87  1020.32  1020.51  1071.72  1072.03
eigval :     1075.41  1086.76  1092.83  1120.57  1135.56  1147.65
eigval :     1148.91  1166.47  1168.10  1176.81  1177.81  1210.80
eigval :     1212.81  1220.90  1221.89  1231.24  1263.86  1281.68
eigval :     1282.02  1290.63  1291.09  1316.52  1324.68  1342.92
eigval :     1343.47  1351.42  1352.34  1358.70  1374.75  1402.06
eigval :     1410.06  1424.01  1429.37  1460.24  1463.03  1477.46
eigval :     1477.87  1487.48  1505.97  1548.46  1565.09  1566.38
eigval :     1573.48  1573.72  1594.18  1594.34  1609.09  1609.99
eigval :     2365.55  2365.57  3065.44  3065.61  3080.75  3081.00
eigval :     3084.24  3084.35  3088.80  3088.95  3095.60  3095.88
eigval :     3099.92  3100.27  3101.99  3102.31  3102.97  3103.58

   temp. (K)  partition function   enthalpy   heat capacity  entropy
                                   cal/mol     cal/K/mol   cal/K/mol   J/K/mol
 298.15  VIB  0.557E+11            15421.953     99.726     93.874
         ROT  0.109E+08              888.752      2.981     35.174
         INT  0.604E+18            16310.705    102.707    129.048
         TR   0.956E+28             1481.254      4.968     44.250
         TOT                       17791.9589   107.6749   173.2979   725.0783

       T/K    H(0)-H(T)+PV         H(T)/Eh          T*S/Eh         G(T)/Eh
   ------------------------------------------------------------------------
    298.15    0.283533E-01    0.402814E+00    0.823394E-01    0.320474E+00
   ------------------------------------------------------------------------

         :::::::::::::::::::::::::::::::::::::::::::::::::::::
         ::                  THERMODYNAMIC                  ::
         :::::::::::::::::::::::::::::::::::::::::::::::::::::
         :: total free energy         -89.664151310871 Eh   ::
         ::.................................................::
         :: total energy              -89.984625417057 Eh   ::
         :: zero point energy           0.374460230130 Eh   ::
         :: G(RRHO) w/o ZPVE           -0.053986123944 Eh   ::
         :: G(RRHO) contrib.            0.320474106186 Eh   ::
         :::::::::::::::::::::::::::::::::::::::::::::::::::::

           -------------------------------------------------
          | TOTAL ENERGY              -89.984625417057 Eh   |
          | TOTAL ENTHALPY            -89.581811895727 Eh   |
          | TOTAL FREE ENERGY         -89.664151310871 Eh   |
          | GRADIENT NORM               0.000032744267 Eh/α |
          | HOMO-LUMO GAP               2.057844876866 eV   |
           -------------------------------------------------

 * finished run on 2025/07/16 at 18:09:31.617
