   * xtb version 6.7.1 (edcfbbe) compiled by 'albert@albert-system' on 2024-07-22

   ID    Z sym.   atoms
    1    7 N      1, 6, 17, 20, 31, 36
    2    6 C      2-5, 7-16, 18, 19, 21-30, 32-35
    3    1 H      37-52

          program call               : xtb data2507/toluene/α-2CbPN/α-2CbPN_toluene_T1_crest.xyz --gfn 2 --uhf 2 --gbsa toluene --ohess vtight --parallel 40 --molden --ceasefiles --namespace data2507/toluene/α-2CbPN/α-2CbPN_toluene_T1_finalOpt
      * Solvation model:               GBSA
        Solvent                        toluene
        Solvent mass                       9.2140E+01 g/mol
          :  Hamiltonian                  GFN2-xTB          :
 * total energy  :   -89.8954584 Eh     change       -0.6894552E-08 Eh
 * total energy  :   -89.8955209 Eh     change       -0.6246705E-04 Eh
 * total energy  :   -89.8955520 Eh     change       -0.3105966E-04 Eh
 * total energy  :   -89.8955485 Eh     change        0.3429712E-05 Eh
 * total energy  :   -89.8955708 Eh     change       -0.2225986E-04 Eh
 * total energy  :   -89.8955707 Eh     change        0.6241422E-07 Eh
 * total energy  :   -89.8955871 Eh     change       -0.1640407E-04 Eh
 * total energy  :   -89.8955981 Eh     change       -0.1099461E-04 Eh
 * total energy  :   -89.8956062 Eh     change       -0.8077388E-05 Eh
 * total energy  :   -89.8956154 Eh     change       -0.9170016E-05 Eh
 * total energy  :   -89.8956500 Eh     change       -0.3273235E-06 Eh
 * total energy  :   -89.8956503 Eh     change       -0.3105101E-06 Eh
 * total energy  :   -89.8956506 Eh     change       -0.2792711E-06 Eh
 * total energy  :   -89.8956508 Eh     change       -0.2297393E-06 Eh
 * total energy  :   -89.8956510 Eh     change       -0.1978504E-06 Eh
 * total energy  :   -89.8956512 Eh     change       -0.1594514E-06 Eh
 * total energy  :   -89.8956513 Eh     change       -0.1374960E-06 Eh
 * total energy  :   -89.8956514 Eh     change       -0.1108878E-06 Eh
 * total energy  :   -89.8956515 Eh     change       -0.9863756E-07 Eh
   *** GEOMETRY OPTIMIZATION CONVERGED AFTER 43 ITERATIONS ***

 final structure:
================
52
 xtb: 6.7.1 (edcfbbe)
N           -5.77672409258833       -2.04158679072943       -0.60134936840210
C           -4.79774391432237       -1.44993308785088       -0.41858275380433
C           -3.61510595927048       -0.76320938989406       -0.19122096718725
C           -2.38353320349265       -1.39324085435363       -0.34796635260070
C           -1.18599575258976       -0.72451736674256       -0.17783055196771
N            0.01244090632753       -1.37407967890723       -0.42288963928727
C            0.32452980972641       -2.67334926837726       -0.05135506402697
C           -0.36716427233758       -3.54286369882224        0.78172463602990
C            0.20010214185235       -4.77821999140531        1.04381719447050
C            1.42987585761152       -5.14301028214035        0.50136690303237
C            2.14365920149884       -4.26787611854922       -0.30068397419102
C            1.59084812233387       -3.02670037694118       -0.57933783423148
C            2.06309963352329       -1.88262889639601       -1.30653066692500
C            3.19106818751678       -1.57061724639256       -2.05079160052295
C            3.25437213318384       -0.30898199356775       -2.62194328216555
C            2.20009542002840        0.58547854464579       -2.43968769628442
N            1.12556029381954        0.31542553375716       -1.71879202613391
C            1.06284541266263       -0.88319228944160       -1.17053099097693
C           -1.20776652270485        0.68782250829569        0.18017733822703
N           -0.02981318106170        1.37417994456450        0.42438729345621
C            0.24170200751052        2.68244245384026        0.05259061424134
C           -0.47672515557825        3.52970149994716       -0.78077005147914
C            0.05176941715768        4.78205290429524       -1.04329379518662
C            1.26936481433369        5.18527983255785       -0.50058189566540
C            2.00994703408769        4.33309693290924        0.30189540261088
C            1.49634938161744        3.07520215843784        0.58056519856311
C            2.00418682894810        1.94642983986814        1.30769843674387
C            3.14168494051099        1.66958617229178        2.05139339286986
C            3.24421596463695        0.41061973974963        2.62274312104293
C            2.21815079452469       -0.51614679021559        2.44096948360811
N            1.13560111566121       -0.27971108967783        1.72025156230980
C            1.03549253465051        0.91632683406852        1.17193909958321
C           -2.42537943923000        1.31904644238237        0.35120249883685
C           -3.63690329321775        0.65090612730140        0.19591079362741
C           -4.84013551408501        1.30051390502173        0.42435142462234
N           -5.83699783711861        1.86130370818486        0.60773262120949
H           -2.37639251819258       -2.42626768744946       -0.66482033924420
H           -1.30674504601746       -3.26244570293425        1.23083149117582
H           -0.32246836114903       -5.46978697316135        1.68652113605364
H            1.83539348557326       -6.11900529150323        0.71935706197745
H            3.10923574321597       -4.53964076273078       -0.69760216659967
H            3.98720531091023       -2.28700320730780       -2.18555703225359
H            4.11201306869359       -0.00809712808308       -3.20152390687184
H            2.22248379603002        1.57432215554151       -2.87559416167227
H           -1.40701461912758        3.21970743822393       -1.22977269540543
H           -0.49192213118486        5.45678968327773       -1.68639557385559
H            1.64441688480696        6.17333356743938       -0.71887638834816
H            2.96633222524209        4.63516297491212        0.69916799129023
H            3.91531386410613        2.41032815775411        2.18568342181430
H            4.11110060462156        0.13642458093783        3.20184207810682
H            2.27128833618039       -1.50370984954443        2.87712470937059
H           -2.45029777333639        2.35192179851310        0.66767160621545

          :  Hamiltonian                  GFN2-xTB          :
         :: gradient norm              0.000040010868 Eh/a0 ::
         :: HOMO-LUMO gap              0.333424375775 eV    ::
         :: SCC energy               -91.555570082196 Eh    ::
         :: -> dispersion             -0.081798641418 Eh    ::
         :: -> Gsolv                  -0.050504139801 Eh    ::
         :: repulsion energy           1.659918550050 Eh    ::

    * Orbital Energies and Occupations

         #    Occupation            Energy/Eh            Energy/eV
      -------------------------------------------------------------
         1        2.0000           -0.7122168             -19.3804
       ...           ...                  ...                  ...
        72        2.0000           -0.4436330             -12.0719
        73        2.0000           -0.4428080             -12.0494
        74        2.0000           -0.4359125             -11.8618
        75        2.0000           -0.4225430             -11.4980
        76        2.0000           -0.4196157             -11.4183
        77        2.0000           -0.4183773             -11.3846
        78        2.0000           -0.4132494             -11.2451
        79        2.0000           -0.4111625             -11.1883
        80        2.0000           -0.4038639             -10.9897
        81        1.9998           -0.4027421             -10.9592
        82        1.9858           -0.3984343             -10.8420
        83        1.0144           -0.3903877             -10.6230
        84        0.9983           -0.2978770              -8.1056 (HOMO)
        85        0.0015           -0.2856240              -7.7722 (LUMO)
        86        0.0002           -0.2835842              -7.7167
        87                         -0.2684419              -7.3047
        88                         -0.2609809              -7.1017
        89                         -0.2570947              -6.9959
        90                         -0.2347296              -6.3873
        91                         -0.2252851              -6.1303
        92                         -0.2219752              -6.0403
        93                         -0.2216755              -6.0321
        94                         -0.2061513              -5.6097
        95                         -0.2045492              -5.5661
       ...                                ...                  ...
       160                          1.1722607              31.8988
      -------------------------------------------------------------
                  HL-Gap            0.0122530 Eh            0.3334 eV

     #   Z          covCN         q      C6AA      α(0)
     1   7 N        0.911    -0.317    28.161     7.675
     2   6 C        1.910     0.102    28.578     8.634
     3   6 C        2.964    -0.009    28.234     8.716
     4   6 C        2.922    -0.038    28.953     8.824
     5   6 C        2.904     0.049    26.899     8.504
     6   7 N        2.796    -0.001    21.287     6.852
     7   6 C        3.076     0.047    26.863     8.498
     8   6 C        2.909    -0.035    28.864     8.810
     9   6 C        2.922    -0.027    28.680     8.782
    10   6 C        2.920    -0.027    28.679     8.782
    11   6 C        2.911    -0.026    28.640     8.775
    12   6 C        3.063    -0.012    28.256     8.717
    13   6 C        3.060    -0.023    28.516     8.757
    14   6 C        2.918    -0.017    28.425     8.743
    15   6 C        2.917    -0.045    29.128     8.850
    16   6 C        2.923     0.056    26.752     8.482
    17   7 N        1.833    -0.249    27.347     7.749
    18   6 C        3.080     0.137    24.923     8.185
    19   6 C        2.904     0.049    26.899     8.504
    20   7 N        2.796    -0.001    21.287     6.852
    21   6 C        3.076     0.047    26.863     8.498
    22   6 C        2.909    -0.035    28.864     8.810
    23   6 C        2.922    -0.027    28.680     8.782
    24   6 C        2.920    -0.027    28.679     8.782
    25   6 C        2.911    -0.026    28.640     8.775
    26   6 C        3.063    -0.012    28.256     8.717
    27   6 C        3.060    -0.023    28.516     8.757
    28   6 C        2.918    -0.017    28.425     8.743
    29   6 C        2.917    -0.045    29.127     8.850
    30   6 C        2.923     0.056    26.752     8.482
    31   7 N        1.833    -0.249    27.347     7.749
    32   6 C        3.080     0.137    24.923     8.185
    33   6 C        2.922    -0.038    28.952     8.824
    34   6 C        2.964    -0.009    28.234     8.716
    35   6 C        1.910     0.102    28.578     8.634
    36   7 N        0.911    -0.317    28.161     7.675
    37   1 H        0.926     0.049     2.335     2.389
    38   1 H        0.926     0.049     2.335     2.390
    39   1 H        0.926     0.056     2.244     2.343
    40   1 H        0.926     0.058     2.224     2.332
    41   1 H        0.926     0.057     2.236     2.338
    42   1 H        0.926     0.060     2.196     2.317
    43   1 H        0.926     0.058     2.221     2.331
    44   1 H        0.926     0.049     2.334     2.389
    45   1 H        0.926     0.049     2.335     2.390
    46   1 H        0.926     0.056     2.244     2.343
    47   1 H        0.926     0.058     2.224     2.332
    48   1 H        0.926     0.057     2.236     2.338
    49   1 H        0.926     0.060     2.196     2.317
    50   1 H        0.926     0.058     2.221     2.331
    51   1 H        0.926     0.049     2.334     2.389
    52   1 H        0.926     0.049     2.335     2.390

molecular dipole:
                 x           y           z       tot (Debye)
 q only:        6.522       0.101      -0.003
   full:        7.547       0.117      -0.003      19.184

 projected vibrational frequencies (cm⁻¹)
eigval :       -0.00    -0.00    -0.00     0.00     0.00     0.00
eigval :       23.36    26.44    32.24    39.49    42.91    58.43
eigval :       94.87    97.35    99.84   100.46   127.25   134.96
eigval :      138.12   143.69   163.55   176.25   193.01   205.94
eigval :      251.80   276.80   279.66   279.95   301.11   322.20
eigval :      347.18   364.54   381.10   388.01   388.13   408.96
eigval :      417.18   419.71   437.51   438.63   461.75   473.29
eigval :      479.02   507.25   508.12   526.08   534.90   537.39
eigval :      546.79   561.24   583.08   585.46   586.12   593.24
eigval :      595.89   640.01   653.15   663.31   680.73   682.58
eigval :      689.30   715.07   715.27   736.50   753.79   762.94
eigval :      770.87   772.03   784.07   785.02   835.13   862.38
eigval :      865.44   884.14   891.84   892.55   893.87   899.82
eigval :      903.46   904.86   908.08   909.81   912.48   920.66
eigval :      922.79   938.60  1014.35  1015.29  1067.07  1068.69
eigval :     1072.05  1081.38  1087.23  1111.45  1135.96  1138.53
eigval :     1142.11  1158.11  1163.18  1170.52  1171.12  1189.84
eigval :     1198.62  1205.09  1216.20  1224.46  1255.92  1263.90
eigval :     1266.77  1277.71  1282.81  1315.31  1317.12  1321.78
eigval :     1326.18  1338.58  1338.80  1349.93  1360.72  1369.03
eigval :     1379.96  1394.46  1396.71  1424.69  1436.72  1438.08
eigval :     1448.64  1449.71  1470.78  1471.28  1524.18  1530.74
eigval :     1541.70  1544.13  1562.80  1566.07  1577.21  1580.65
eigval :     2231.13  2251.44  3072.35  3072.66  3085.63  3086.16
eigval :     3086.93  3087.31  3091.08  3091.38  3095.73  3096.04
eigval :     3102.24  3102.55  3107.73  3107.90  3108.81  3109.20

   temp. (K)  partition function   enthalpy   heat capacity  entropy
                                   cal/mol     cal/K/mol   cal/K/mol   J/K/mol
 298.15  VIB  0.114E+12            15719.385    101.079     95.584
         ROT  0.112E+08              888.752      2.981     35.241
         INT  0.128E+19            16608.137    104.060    130.825
         TR   0.956E+28             1481.254      4.968     44.250
         TOT                       18089.3908   109.0282   175.0749   732.5135

       T/K    H(0)-H(T)+PV         H(T)/Eh          T*S/Eh         G(T)/Eh
   ------------------------------------------------------------------------
    298.15    0.288273E-01    0.399192E+00    0.831837E-01    0.316009E+00
   ------------------------------------------------------------------------

         :::::::::::::::::::::::::::::::::::::::::::::::::::::
         ::                  THERMODYNAMIC                  ::
         :::::::::::::::::::::::::::::::::::::::::::::::::::::
         :: total free energy         -89.579643016137 Eh   ::
         ::.................................................::
         :: total energy              -89.895651534238 Eh   ::
         :: zero point energy           0.370364981064 Eh   ::
         :: G(RRHO) w/o ZPVE           -0.054356462963 Eh   ::
         :: G(RRHO) contrib.            0.316008518101 Eh   ::
         :::::::::::::::::::::::::::::::::::::::::::::::::::::

           -------------------------------------------------
          | TOTAL ENERGY              -89.895651534238 Eh   |
          | TOTAL ENTHALPY            -89.496459273948 Eh   |
          | TOTAL FREE ENERGY         -89.579643016137 Eh   |
          | GRADIENT NORM               0.000040097008 Eh/α |
          | HOMO-LUMO GAP               0.333422173933 eV   |
           -------------------------------------------------

 * finished run on 2025/07/16 at 18:12:05.353
