   * xtb version 6.7.1 (edcfbbe) compiled by 'albert@albert-system' on 2024-07-22

   ID    Z sym.   atoms
    1    6 C      1-8, 10-18, 20-48, 50-65
    2    7 N      9, 19, 49
    3    1 H      66-112

          program call               : xtb data2507/toluene/DPACPhTPI/DPACPhTPI_toluene_T1_crest.xyz --gfn 2 --uhf 2 --gbsa toluene --ohess vtight --parallel 40 --molden --ceasefiles --namespace data2507/toluene/DPACPhTPI/DPACPhTPI_toluene_T1_finalOpt
      * Solvation model:               GBSA
        Solvent                        toluene
        Solvent mass                       9.2140E+01 g/mol
          :  Hamiltonian                  GFN2-xTB          :
 * total energy  :  -165.5665320 Eh     change       -0.1529062E-07 Eh
 * total energy  :  -165.5665996 Eh     change       -0.6752033E-04 Eh
 * total energy  :  -165.5666314 Eh     change       -0.3185250E-04 Eh
 * total energy  :  -165.5666417 Eh     change       -0.1026797E-04 Eh
 * total energy  :  -165.5666506 Eh     change       -0.8876865E-05 Eh
 * total energy  :  -165.5666567 Eh     change       -0.6171521E-05 Eh
 * total energy  :  -165.5666639 Eh     change       -0.7167851E-05 Eh
 * total energy  :  -165.5666722 Eh     change       -0.8277657E-05 Eh
 * total energy  :  -165.5666803 Eh     change       -0.8082192E-05 Eh
 * total energy  :  -165.5666879 Eh     change       -0.7661368E-05 Eh
 * total energy  :  -165.5668823 Eh     change       -0.1091833E-06 Eh
 * total energy  :  -165.5668824 Eh     change       -0.1158040E-06 Eh
 * total energy  :  -165.5668825 Eh     change       -0.1444362E-06 Eh
 * total energy  :  -165.5668827 Eh     change       -0.1426401E-06 Eh
 * total energy  :  -165.5668827 Eh     change        0.1851731E-07 Eh
 * total energy  :  -165.5668830 Eh     change       -0.2898762E-06 Eh
 * total energy  :  -165.5668829 Eh     change        0.1912915E-07 Eh
 * total energy  :  -165.5668832 Eh     change       -0.2977175E-06 Eh
 * total energy  :  -165.5668833 Eh     change       -0.4033998E-07 Eh
   *** GEOMETRY OPTIMIZATION CONVERGED AFTER 81 ITERATIONS ***

 final structure:
================
112
 xtb: 6.7.1 (edcfbbe)
C           -6.78574893547603        6.23812707665355        0.55691575721283
C           -5.46442916112353        5.64945258348058        0.03996062516324
C           -4.31756963126196        6.02663621716007        0.98976027810986
C           -5.17158330144026        6.26410175024089       -1.33204747798116
C           -5.58490098114030        4.13429093701404       -0.01062727766380
C           -5.43437453678476        3.40188351781816       -1.18317282808529
C           -5.55225996732608        2.02296894411481       -1.19262858889822
C           -5.82452553279648        1.33873277379280       -0.01527190289185
N           -5.94875732077686       -0.06706293260528       -0.02083733268535
C           -4.89753724123864       -1.00109717874153       -0.09911374406685
C           -3.52031906131732       -0.75248561821362       -0.09966424551281
C           -2.64597576753288       -1.86499055055149       -0.31964151253677
C           -1.29725134301583       -1.72569769412590       -0.33832902336647
C           -0.66493663458657       -0.46302705549729       -0.14349352136804
C            0.75478395057700       -0.30988192388469       -0.17259403693526
C            1.36615868534935        0.94961518641862       -0.39429967584651
C            2.72845271506211        1.10155382907363       -0.40996921614324
C            3.56960331206514        0.00052238532938       -0.21076397767224
N            4.97784975461778        0.11723517619618       -0.23345404999569
C            5.66492922670677       -0.42616691479392       -1.30941678728616
C            4.97397496012933       -0.79182694239313       -2.46986279137493
C            5.65222152507579       -1.27907456168563       -3.56720582669848
C            7.03328667951874       -1.39455134798481       -3.53718547475414
C            7.72405569485904       -1.03119202465821       -2.39431852887899
C            7.05981549878637       -0.55180712730498       -1.27495291546366
C            7.79809761293063       -0.24390499131024        0.00911563896712
C            9.21720559864188        0.19466741428498       -0.31683020736202
C           10.33588928112029       -0.54785266196715        0.03224893930808
C           11.60528852531906       -0.10627907186284       -0.30640887180852
C           11.77201993485662        1.07822531176037       -1.00127886911453
C           10.65885701773414        1.81979168829094       -1.36444662697866
C            9.39325380751936        1.37974239725428       -1.02685910982739
C            7.78130513326766       -1.48095453438147        0.91812790652992
C            7.43085523833784       -2.73599643024959        0.43662693450076
C            7.41964607746996       -3.83874013594405        1.27490288547398
C            7.76090837750286       -3.70764272033208        2.60892915834443
C            8.11905305849096       -2.46222181569024        3.09722341087385
C            8.12753538989484       -1.36118156394302        2.26044968065425
C            7.05491089236514        0.84845369750881        0.75520117432171
C            7.72174215279212        1.72078954941973        1.60230391042922
C            7.03101832847739        2.58881811526473        2.43055205155955
C            5.64628516640593        2.55335049078933        2.44873158977613
C            4.96258173039191        1.71496031151901        1.59295727323384
C            5.65269311230048        0.89068325546914        0.69824637461618
C            2.99249300538157       -1.26045778379626       -0.02047564703353
C            1.63095537065845       -1.40964242676623        0.00730268434366
C           -1.53714769884399        0.63669437277626        0.09643663272593
C           -2.89007409731494        0.50693161524591        0.12652470651038
N           -5.39348466730029       -2.25426934251555       -0.14806911909882
C           -6.71650143164564       -2.14764031312827       -0.08375274310500
C           -7.67550708566137       -3.20348677123233       -0.06679968215338
C           -7.26923260799876       -4.53977941832910       -0.10165473423650
C           -8.19860064246749       -5.55423876210521       -0.06188158928998
C           -9.55024966908065       -5.23266796588389        0.01655846052127
C           -9.96258935551571       -3.91782244254377        0.04809235817753
C           -9.04595717567828       -2.85639705770746        0.00292044687497
C           -9.44987975632883       -1.46222750972898        0.01719906762761
C          -10.79766464841641       -1.08829295635418        0.03438336451502
C          -11.19700288319346        0.22993629493577        0.02955937172804
C          -10.24309985329808        1.24845259395358       -0.00287148380824
C           -8.91112247083754        0.93107747126173       -0.01697676933972
C           -8.47416541622735       -0.41094191913236        0.00108556707057
C           -7.11704007266943       -0.78724889814526       -0.01497623090051
C           -5.97786093155016        2.05404529402926        1.16885341253526
C           -5.85822449604825        3.42910581683135        1.16137234755105
H           -6.72635597514344        7.32411049090815        0.57855158715192
H           -7.01094061776697        5.89033749463814        1.56127157056306
H           -7.60725592887402        5.95051742891856       -0.09654079103620
H           -4.20156902426341        7.10775914571687        1.02280112260269
H           -3.38289613948356        5.58970260888794        0.64339252749343
H           -4.50500615682653        5.67378737392601        2.00014484324572
H           -4.22831253092020        5.89922390299531       -1.73206144491487
H           -5.09863890195732        7.34538225351080       -1.23470799776670
H           -5.96918972737869        6.04459878797734       -2.03823277678708
H           -5.22341978001583        3.89565201092131       -2.11698683694009
H           -5.43016547605590        1.46943528146451       -2.11255922863263
H           -3.10775306691921       -2.82545588084096       -0.48675281977911
H           -0.69001344783145       -2.59379456925976       -0.54495636284696
H            0.74880766217387        1.80902272263999       -0.60350448956137
H            3.16367805362002        2.06888631960972       -0.61811020250392
H            3.90137294827794       -0.68045864917011       -2.50633976026123
H            5.10101597132349       -1.55909449760736       -4.45245207201861
H            7.56941760122515       -1.77115514454627       -4.39483107963203
H            8.79837019141088       -1.13555173982439       -2.36336317568164
H           10.22261104544798       -1.47782705524766        0.56929107008819
H           12.46643043566947       -0.69528005101293       -0.02500253143508
H           12.76250949824001        1.42106709617201       -1.26283734415001
H           10.77768289013508        2.74303855379627       -1.91293459957819
H            8.52704733522796        1.95949127939660       -1.31380233529601
H            7.16604290696676       -2.86607191966898       -0.60187828826504
H            7.14242694625814       -4.80481693979662        0.87776586023515
H            7.75042536361228       -4.56777295235627        3.26234785315950
H            8.39370843426044       -2.34512184629878        4.13565433526413
H            8.41055038225545       -0.39888490032579        2.65875231161192
H            8.80194519979552        1.71579971034451        1.62009023955076
H            7.57123037001059        3.26153739924130        3.07914140865034
H            5.09370268046284        3.18494367144669        3.12824698785119
H            3.88522372046532        1.69086990685187        1.62090313625262
H            3.63862253574727       -2.11332851587371        0.13116265969924
H            1.22238937719172       -2.38652409830005        0.21087976167668
H           -1.11236811017003        1.60621183480478        0.30994166117702
H           -3.49172064984751        1.37164138029945        0.35360169629185
H           -6.21045859643199       -4.74317620264866       -0.15541733857396
H           -7.88547814176092       -6.58738381015482       -0.08786545397903
H          -10.28761376125316       -6.02184383739853        0.05368926362937
H          -11.02084136703588       -3.72062210719476        0.11169759238127
H          -11.56311755009670       -1.84755759573643        0.04629132590585
H          -12.24872241019151        0.47488523782152        0.04340967952284
H          -10.55413273919796        2.28270354256923       -0.01877316315598
H           -8.17769418713509        1.71975586764796       -0.05136968646106
H           -6.19113905195566        1.52420250431083        2.08632654655239
H           -5.98026764325433        3.95584720176681        2.09511111108962

          :  Hamiltonian                  GFN2-xTB          :
         :: gradient norm              0.000092639439 Eh/a0 ::
         :: HOMO-LUMO gap              0.641227385541 eV    ::
         :: SCC energy              -168.638618696964 Eh    ::
         :: -> dispersion             -0.163921098093 Eh    ::
         :: -> Gsolv                  -0.067497750496 Eh    ::
         :: repulsion energy           3.071735310170 Eh    ::

    * Orbital Energies and Occupations

         #    Occupation            Energy/Eh            Energy/eV
      -------------------------------------------------------------
         1        2.0000           -0.6801052             -18.5066
       ...           ...                  ...                  ...
       144        2.0000           -0.4043279             -11.0023
       145        2.0000           -0.4026351             -10.9563
       146        2.0000           -0.4005491             -10.8995
       147        2.0000           -0.3999068             -10.8820
       148        2.0000           -0.3967551             -10.7963
       149        2.0000           -0.3955757             -10.7642
       150        2.0000           -0.3933136             -10.7026
       151        2.0000           -0.3832612             -10.4291
       152        2.0000           -0.3813734             -10.3777
       153        2.0000           -0.3731287             -10.1533
       154        1.9853           -0.3586622              -9.7597
       155        1.0147           -0.3506686              -9.5422
       156        1.0000           -0.2734309              -7.4404 (HOMO)
       157        0.0000           -0.2498666              -6.7992 (LUMO)
       158        0.0000           -0.2479203              -6.7463
       159                         -0.2355016              -6.4083
       160                         -0.2343628              -6.3773
       161                         -0.2322618              -6.3202
       162                         -0.2322183              -6.3190
       163                         -0.2289677              -6.2305
       164                         -0.2256271              -6.1396
       165                         -0.2249315              -6.1207
       166                         -0.2242846              -6.1031
       167                         -0.2220633              -6.0426
       ...                                ...                  ...
       307                          0.7286818              19.8284
      -------------------------------------------------------------
                  HL-Gap            0.0235643 Eh            0.6412 eV

     #   Z          covCN         q      C6AA      α(0)
     1   6 C        3.761    -0.107    22.584     6.774
     2   6 C        3.902     0.027    20.072     6.368
     3   6 C        3.761    -0.106    22.581     6.774
     4   6 C        3.761    -0.110    22.643     6.783
     5   6 C        2.972     0.012    27.750     8.641
     6   6 C        2.925    -0.037    28.926     8.820
     7   6 C        2.920    -0.041    29.018     8.834
     8   6 C        2.910     0.065    26.540     8.447
     9   7 N        2.819    -0.077    22.726     7.080
    10   6 C        3.134     0.131    24.937     8.174
    11   6 C        2.967    -0.019    28.473     8.752
    12   6 C        2.921    -0.037    28.922     8.819
    13   6 C        2.914    -0.040    28.993     8.830
    14   6 C        2.969    -0.004    28.130     8.700
    15   6 C        2.968     0.004    27.920     8.667
    16   6 C        2.921    -0.041    29.018     8.834
    17   6 C        2.913    -0.042    29.046     8.838
    18   6 C        2.925     0.046    26.963     8.515
    19   7 N        2.752    -0.041    22.027     6.971
    20   6 C        2.935     0.060    26.653     8.467
    21   6 C        2.922    -0.050    29.235     8.867
    22   6 C        2.918    -0.031    28.767     8.795
    23   6 C        2.917    -0.037    28.922     8.819
    24   6 C        2.922    -0.034    28.853     8.809
    25   6 C        2.985    -0.003    28.096     8.695
    26   6 C        3.921     0.011    20.338     6.409
    27   6 C        2.977     0.014    27.695     8.632
    28   6 C        2.922    -0.036    28.900     8.816
    29   6 C        2.920    -0.031    28.768     8.796
    30   6 C        2.919    -0.032    28.809     8.802
    31   6 C        2.919    -0.030    28.761     8.794
    32   6 C        2.925    -0.033    28.811     8.802
    33   6 C        2.979     0.013    27.727     8.637
    34   6 C        2.923    -0.037    28.922     8.819
    35   6 C        2.920    -0.031    28.771     8.796
    36   6 C        2.919    -0.032    28.805     8.801
    37   6 C        2.919    -0.031    28.766     8.795
    38   6 C        2.925    -0.036    28.896     8.815
    39   6 C        2.988    -0.005    28.133     8.701
    40   6 C        2.923    -0.034    28.851     8.808
    41   6 C        2.917    -0.038    28.948     8.823
    42   6 C        2.919    -0.031    28.782     8.798
    43   6 C        2.921    -0.053    29.308     8.878
    44   6 C        2.928     0.059    26.676     8.470
    45   6 C        2.915    -0.040    29.006     8.832
    46   6 C        2.921    -0.040    28.985     8.829
    47   6 C        2.915    -0.039    28.967     8.826
    48   6 C        2.910    -0.046    29.150     8.853
    49   7 N        1.884    -0.328    29.367     8.034
    50   6 C        3.165     0.080    25.887     8.315
    51   6 C        2.984    -0.008    28.223     8.714
    52   6 C        2.922    -0.030    28.738     8.791
    53   6 C        2.916    -0.034    28.852     8.808
    54   6 C        2.917    -0.031    28.773     8.796
    55   6 C        2.921    -0.037    28.917     8.818
    56   6 C        2.977    -0.004    28.109     8.697
    57   6 C        2.977    -0.005    28.151     8.703
    58   6 C        2.920    -0.034    28.854     8.809
    59   6 C        2.916    -0.036    28.890     8.814
    60   6 C        2.914    -0.034    28.855     8.809
    61   6 C        2.918    -0.039    28.976     8.827
    62   6 C        2.974    -0.015    28.371     8.737
    63   6 C        3.040     0.039    27.099     8.538
    64   6 C        2.919    -0.041    29.023     8.834
    65   6 C        2.927    -0.034    28.837     8.807
    66   1 H        0.925     0.043     2.412     2.429
    67   1 H        0.925     0.039     2.468     2.457
    68   1 H        0.925     0.034     2.526     2.486
    69   1 H        0.925     0.043     2.410     2.428
    70   1 H        0.925     0.034     2.523     2.484
    71   1 H        0.925     0.038     2.470     2.458
    72   1 H        0.925     0.038     2.474     2.460
    73   1 H        0.925     0.042     2.429     2.437
    74   1 H        0.925     0.038     2.478     2.462
    75   1 H        0.926     0.051     2.310     2.377
    76   1 H        0.926     0.033     2.545     2.495
    77   1 H        0.926     0.040     2.444     2.445
    78   1 H        0.926     0.030     2.593     2.518
    79   1 H        0.926     0.035     2.511     2.478
    80   1 H        0.926     0.037     2.495     2.470
    81   1 H        0.926     0.038     2.477     2.461
    82   1 H        0.926     0.038     2.475     2.460
    83   1 H        0.926     0.037     2.493     2.469
    84   1 H        0.926     0.037     2.490     2.468
    85   1 H        0.926     0.032     2.560     2.502
    86   1 H        0.926     0.032     2.564     2.504
    87   1 H        0.926     0.032     2.562     2.503
    88   1 H        0.926     0.032     2.556     2.500
    89   1 H        0.926     0.028     2.613     2.528
    90   1 H        0.926     0.031     2.567     2.506
    91   1 H        0.926     0.032     2.562     2.503
    92   1 H        0.926     0.032     2.558     2.501
    93   1 H        0.926     0.032     2.554     2.499
    94   1 H        0.926     0.036     2.504     2.475
    95   1 H        0.926     0.037     2.493     2.469
    96   1 H        0.926     0.036     2.507     2.476
    97   1 H        0.926     0.037     2.487     2.466
    98   1 H        0.926     0.042     2.423     2.434
    99   1 H        0.926     0.033     2.545     2.494
   100   1 H        0.926     0.036     2.502     2.473
   101   1 H        0.926     0.028     2.617     2.530
   102   1 H        0.926     0.020     2.728     2.583
   103   1 H        0.926     0.044     2.398     2.421
   104   1 H        0.926     0.034     2.534     2.489
   105   1 H        0.926     0.034     2.525     2.485
   106   1 H        0.926     0.036     2.508     2.477
   107   1 H        0.926     0.036     2.507     2.476
   108   1 H        0.926     0.031     2.566     2.505
   109   1 H        0.926     0.030     2.584     2.514
   110   1 H        0.926     0.029     2.604     2.523
   111   1 H        0.926     0.034     2.532     2.488
   112   1 H        0.926     0.044     2.401     2.423

molecular dipole:
                 x           y           z       tot (Debye)
 q only:        2.253       1.727      -0.001
   full:        1.977       1.960       0.036       7.077

 projected vibrational frequencies (cm⁻¹)
eigval :       -0.00    -0.00    -0.00     0.00     0.00     0.00
eigval :        5.44     7.79    11.28    15.34    17.56    19.16
eigval :       24.35    27.37    33.61    42.48    45.77    50.27
eigval :       54.74    58.35    59.04    67.70    70.72    81.37
eigval :       83.93    85.22    86.73    93.44   106.90   112.70
eigval :      118.77   132.67   138.16   171.59   173.51   179.44
eigval :      182.55   192.66   210.92   212.05   219.89   232.32
eigval :      233.62   235.72   247.41   253.58   259.26   264.52
eigval :      268.31   283.07   287.85   303.05   309.18   315.53
eigval :      318.62   339.39   344.72   356.73   361.94   367.46
eigval :      369.20   371.50   374.41   378.27   383.35   387.51
eigval :      392.85   394.79   403.86   407.93   414.17   423.84
eigval :      432.25   434.80   443.32   449.08   457.52   458.15
eigval :      464.23   474.41   485.96   493.83   498.79   501.05
eigval :      514.51   521.32   525.36   526.38   545.58   581.38
eigval :      584.16   587.61   588.24   588.44   591.77   596.92
eigval :      600.68   605.05   607.41   611.21   618.19   625.18
eigval :      645.05   651.80   659.38   662.54   664.15   668.71
eigval :      669.36   672.33   681.60   686.75   688.67   697.65
eigval :      703.02   720.05   727.29   745.58   751.68   754.55
eigval :      756.36   757.04   773.12   773.40   778.07   786.68
eigval :      789.83   803.16   810.45   821.07   834.52   853.58
eigval :      865.06   867.55   868.23   872.12   873.38   879.74
eigval :      881.11   892.11   897.02   899.56   899.66   900.59
eigval :      902.62   904.44   906.39   910.15   911.13   911.63
eigval :      913.42   914.22   915.38   917.84   920.16   923.66
eigval :      924.77   925.81   926.74   927.55   930.92   931.38
eigval :      931.72   935.31   940.95   943.08   954.98   960.47
eigval :      962.10   966.71   984.05   992.50   997.00   998.64
eigval :     1009.39  1030.98  1034.81  1036.25  1062.25  1081.11
eigval :     1086.90  1091.51  1095.36  1101.32  1101.81  1104.76
eigval :     1118.42  1121.82  1126.53  1131.81  1132.47  1137.06
eigval :     1141.25  1143.88  1151.10  1158.73  1175.44  1178.72
eigval :     1179.27  1180.41  1181.29  1181.47  1182.24  1183.26
eigval :     1193.85  1196.68  1203.18  1205.15  1212.07  1212.76
eigval :     1218.12  1222.29  1226.01  1231.95  1236.59  1241.10
eigval :     1244.68  1251.97  1258.57  1259.35  1262.60  1270.61
eigval :     1273.25  1279.49  1285.88  1286.67  1287.69  1291.49
eigval :     1300.47  1307.18  1310.14  1311.94  1315.48  1318.16
eigval :     1322.74  1328.06  1330.78  1331.80  1339.09  1339.71
eigval :     1361.19  1387.60  1393.01  1395.80  1404.35  1406.89
eigval :     1408.48  1411.22  1422.11  1425.67  1427.43  1427.91
eigval :     1429.51  1432.00  1433.92  1439.85  1450.69  1452.31
eigval :     1466.60  1469.85  1471.42  1472.76  1475.51  1482.92
eigval :     1488.15  1488.75  1491.31  1498.27  1499.24  1503.78
eigval :     1510.92  1512.37  1516.46  1537.42  1540.77  1559.12
eigval :     1560.96  1561.69  1567.22  1572.57  1576.49  1581.39
eigval :     1585.01  1587.01  1587.62  1593.04  1595.37  1597.53
eigval :     1600.63  3022.75  3023.20  3026.76  3027.15  3030.81
eigval :     3032.93  3038.08  3045.40  3048.80  3067.26  3069.19
eigval :     3069.88  3070.73  3071.10  3072.53  3073.22  3075.29
eigval :     3076.72  3076.82  3078.80  3079.13  3079.70  3081.30
eigval :     3081.79  3082.64  3082.81  3083.29  3084.68  3086.05
eigval :     3086.42  3093.03  3094.05  3094.80  3095.08  3095.62
eigval :     3095.84  3097.75  3098.00  3100.02  3101.81  3102.50
eigval :     3104.51  3106.82  3110.97  3119.42  3120.59  3123.51

   temp. (K)  partition function   enthalpy   heat capacity  entropy
                                   cal/mol     cal/K/mol   cal/K/mol   J/K/mol
 298.15  VIB  0.171E+27            32192.503    201.376    202.351
         ROT  0.287E+09              888.752      2.981     41.684
         INT  0.492E+35            33081.255    204.357    244.035
         TR   0.233E+29             1481.254      4.968     46.020
         TOT                       34562.5093   209.3255   290.0552  1213.5908

       T/K    H(0)-H(T)+PV         H(T)/Eh          T*S/Eh         G(T)/Eh
   ------------------------------------------------------------------------
    298.15    0.550789E-01    0.937300E+00    0.137815E+00    0.799486E+00
   ------------------------------------------------------------------------

         :::::::::::::::::::::::::::::::::::::::::::::::::::::
         ::                  THERMODYNAMIC                  ::
         :::::::::::::::::::::::::::::::::::::::::::::::::::::
         :: total free energy        -164.767397828481 Eh   ::
         ::.................................................::
         :: total energy             -165.566883386875 Eh   ::
         :: zero point energy           0.882221260732 Eh   ::
         :: G(RRHO) w/o ZPVE           -0.082735702337 Eh   ::
         :: G(RRHO) contrib.            0.799485558394 Eh   ::
         :::::::::::::::::::::::::::::::::::::::::::::::::::::

           -------------------------------------------------
          | TOTAL ENERGY             -165.566883386875 Eh   |
          | TOTAL ENTHALPY           -164.629583261669 Eh   |
          | TOTAL FREE ENERGY        -164.767397828481 Eh   |
          | GRADIENT NORM               0.000092599700 Eh/α |
          | HOMO-LUMO GAP               0.641218452188 eV   |
           -------------------------------------------------

 * finished run on 2025/08/21 at 15:43:47.343
