   * xtb version 6.7.1 (edcfbbe) compiled by 'albert@albert-system' on 2024-07-22

   ID    Z sym.   atoms
    1    6 C      1-8, 10-18, 20-48, 50-65
    2    7 N      9, 19, 49
    3    1 H      66-112

          program call               : xtb data2507/toluene/DPACPhTPI/DPACPhTPI_toluene_S0_finalOpt.xtbopt.xyz --gfn 2 --uhf 2 --gbsa toluene --ohess vtight --parallel 40 --molden --ceasefiles --namespace data2507/toluene/DPACPhTPI/DPACPhTPI_toluene_T1_preOpt
      * Solvation model:               GBSA
        Solvent                        toluene
        Solvent mass                       9.2140E+01 g/mol
          :  Hamiltonian                  GFN2-xTB          :
 * total energy  :  -165.5544752 Eh     change       -0.1686743E-08 Eh
 * total energy  :  -165.5596272 Eh     change       -0.5152062E-02 Eh
 * total energy  :  -165.5618974 Eh     change       -0.2270142E-02 Eh
 * total energy  :  -165.5622549 Eh     change       -0.3575556E-03 Eh
 * total energy  :  -165.5628175 Eh     change       -0.5625755E-03 Eh
 * total energy  :  -165.5632286 Eh     change       -0.4111289E-03 Eh
 * total energy  :  -165.5637214 Eh     change       -0.4927899E-03 Eh
 * total energy  :  -165.5641840 Eh     change       -0.4625452E-03 Eh
 * total energy  :  -165.5645523 Eh     change       -0.3683237E-03 Eh
 * total energy  :  -165.5648255 Eh     change       -0.2732340E-03 Eh
 * total energy  :  -165.5668678 Eh     change       -0.4092959E-06 Eh
 * total energy  :  -165.5668683 Eh     change       -0.4614175E-06 Eh
 * total energy  :  -165.5668688 Eh     change       -0.5485037E-06 Eh
 * total energy  :  -165.5668693 Eh     change       -0.5136110E-06 Eh
 * total energy  :  -165.5668698 Eh     change       -0.4889713E-06 Eh
 * total energy  :  -165.5668702 Eh     change       -0.3572085E-06 Eh
 * total energy  :  -165.5668705 Eh     change       -0.3215954E-06 Eh
 * total energy  :  -165.5668709 Eh     change       -0.4182878E-06 Eh
 * total energy  :  -165.5668709 Eh     change       -0.1988241E-08 Eh
   *** GEOMETRY OPTIMIZATION CONVERGED AFTER 300 ITERATIONS ***

 final structure:
================
112
 xtb: 6.7.1 (edcfbbe)
C           -6.57514179153615        5.99604906735152        2.13696151638191
C           -5.37256553231393        5.59310821409437        1.27054683355155
C           -4.07313794730570        5.74965542838722        2.07475280231587
C           -5.30925336097472        6.54166174912907        0.06958813199564
C           -5.52331695968118        4.13655850851302        0.85999610378703
C           -5.59059460993091        3.72847026042393       -0.46780703972076
C           -5.72077699608913        2.39266103445983       -0.80540309667318
C           -5.78604564259656        1.42570675976537        0.18936796126466
N           -5.92204370237855        0.06144750041973       -0.15130239290069
C           -4.88290492722452       -0.86718553786961       -0.35567199877182
C           -3.50271319106026       -0.65906161455258       -0.25772845343333
C           -2.64601046738189       -1.77997849853638       -0.50706349309552
C           -1.29551546108598       -1.68235087569694       -0.43596584274047
C           -0.64372929373522       -0.46328331045171       -0.08784559279776
C            0.77702921658034       -0.36275027200412        0.01252593615111
C            1.40205081705960        0.66529982070756        0.76198807006862
C            2.76565300072928        0.76562768044393        0.85785870021444
C            3.59541337970573       -0.15589968879186        0.20775238319513
N            5.00338552666250       -0.09252878555642        0.29514273168687
C            5.71064342389238        1.00838136963496       -0.16356218573890
C            5.05631426113532        2.17205529496140       -0.58061229049380
C            5.77430763202976        3.29552367481643       -0.93451765911922
C            7.15855355398543        3.28283739245404       -0.88342848133781
C            7.81446386822581        2.10903744758758       -0.55387387283143
C            7.11274516865421        0.96021893832246       -0.22087230599208
C            7.81755503453576       -0.37466210621363       -0.07046696299889
C            9.24465510380519       -0.17531708584698        0.41642680265563
C            9.44049882146180        0.49818999937596        1.61968832467936
C           10.71356201376185        0.70028274128391        2.11744281887337
C           11.81472835113619        0.22882172797632        1.42013321602773
C           11.62872391904092       -0.44691200978755        0.22756013236913
C           10.35176985326615       -0.64999839363876       -0.27168905920743
C            7.78204530058847       -1.05848415748379       -1.44476578641423
C            7.50754322270892       -2.41465847688020       -1.57220073879699
C            7.48474842929216       -3.01908629623264       -2.81807536983001
C            7.73950925306405       -2.28019563525969       -3.95957607393075
C            8.02238693539220       -0.92983647220115       -3.84280929590760
C            8.04293896355860       -0.32608462708175       -2.59840072138349
C            7.05343297655522       -1.21815544067528        0.92642014827777
C            7.68921431708842       -2.17297496667668        1.70647202342827
C            6.97312263583646       -2.99806126696119        2.55597104765632
C            5.59514959660812       -2.86886823912256        2.63320080679375
C            4.94519084070216       -1.91773739165295        1.87533225362704
C            5.66152918346320       -1.08514529698183        1.00844966988108
C            3.00327767158858       -1.19786577362009       -0.51674899732617
C            1.64060259215685       -1.29405199571800       -0.61745730472715
C           -1.49800952682991        0.64944743882248        0.15665363850841
C           -2.85213191042633        0.56826447610254        0.06769441973203
N           -5.39713754045413       -2.07056205112497       -0.68343924208851
C           -6.71886022283274       -1.93533732887492       -0.69782964915804
C           -7.69438022955501       -2.93247935065857       -0.99622644698121
C           -7.30936250883897       -4.23519390707659       -1.32266296883054
C           -8.25515677064073       -5.19179420632550       -1.61374982199972
C           -9.60246234696505       -4.84483736751881       -1.58091730841222
C           -9.99386793615547       -3.56296768018016       -1.25977565649143
C           -9.05975232626633       -2.56093840709227       -0.95502704717864
C           -9.44143319167609       -1.20407087524802       -0.60900638750805
C          -10.78240364518811       -0.80936442132529       -0.55237281984173
C          -11.15980040657604        0.47313208110980       -0.22143293212781
C          -10.18998714275105        1.43267317005614        0.07470558412920
C           -8.86407870551864        1.09345623982099        0.03174957628102
C           -8.44968705417175       -0.21231527962820       -0.30798468754478
C           -7.09959246508754       -0.60837120117585       -0.36799874598115
C           -5.72483627737458        1.81428877404752        1.52356371313217
C           -5.59544922087772        3.15105958006059        1.84391797997756
H           -6.49348810685909        7.04228793084428        2.42332239089286
H           -6.63128226752700        5.39925586549899        3.04309183376210
H           -7.50149141814001        5.86192686272823        1.58157280709829
H           -3.93441689059090        6.79035310962262        2.35932939893019
H           -3.21991307697591        5.43880419943327        1.47480939739869
H           -4.09025080123589        5.14900355173239        2.97995526982062
H           -6.21978845069390        6.48627266046180       -0.52276227824746
H           -4.45493990759939        6.31563141733280       -0.56444790540718
H           -5.20198457503694        7.56488781236007        0.42376032029718
H           -5.54138211960146        4.44795659957478       -1.26797816508942
H           -5.77042620166057        2.09236389600986       -1.84229294830501
H           -3.12353245945697       -2.71625718127889       -0.74976880372237
H           -0.70156892522776       -2.56711218616224       -0.60822782911596
H            0.79302862863275        1.36129137638395        1.31715894277117
H            3.20956567437538        1.53447705042951        1.47439833458786
H            3.97999245545919        2.19149427152879       -0.63506481147409
H            5.24870663308907        4.18553927004900       -1.24693614671626
H            7.72524864130364        4.16663118934809       -1.13397814774817
H            8.89434378422802        2.08098030677374       -0.56708757499117
H            8.58342919138562        0.86555366020506        2.16661392744294
H           10.84792146066834        1.22599087929904        3.05175178034318
H           12.81103003232013        0.38603750037508        1.80687320391776
H           12.48061710361473       -0.82187965361244       -0.32139533499068
H           10.22362437314920       -1.18317375266056       -1.20192641602444
H            7.31115079132638       -3.01391543818864       -0.69594406800575
H            7.26737802083477       -4.07502385641994       -2.89228052944083
H            7.72005034640679       -2.75194522053158       -4.93117404229791
H            8.22922621231194       -0.34054080654171       -4.72458519083306
H            8.26784859289779        0.72724957604785       -2.52824511084278
H            8.76140302562754       -2.28027244289621        1.63512611789354
H            7.48735687521189       -3.73846668074482        3.14953322350931
H            5.02447768948241       -3.50425922317725        3.29390265520396
H            3.87550996503625       -1.80329042330045        1.95849972531269
H            3.63994994677362       -1.91364815398449       -1.01713283669686
H            1.22072005036681       -2.07843613796610       -1.22683460985829
H           -1.05707514978127        1.60917985504140        0.38176832984501
H           -3.43924459270715        1.45484621930554        0.24072226493593
H           -6.25365385071866       -4.45976937401631       -1.33770982323683
H           -7.95816400083752       -6.19901292511341       -1.86556001196404
H          -10.35311347572265       -5.58809451620120       -1.80893407598675
H          -11.04971300733706       -3.34425514848051       -1.24830205891824
H          -11.55991812147570       -1.52335840593150       -0.77199956962925
H          -12.20679670156394        0.73590585216818       -0.18988587002004
H          -10.48453385007238        2.43809378829913        0.33737420908828
H           -8.11769741725122        1.83579767532841        0.26258480418454
H           -5.77656432959486        1.06405203022184        2.29943877372018
H           -5.54989614103450        3.42241456477676        2.88718868821005

          :  Hamiltonian                  GFN2-xTB          :
         :: gradient norm              0.000037110260 Eh/a0 ::
         :: HOMO-LUMO gap              0.646206379021 eV    ::
         :: SCC energy              -168.638459084136 Eh    ::
         :: -> dispersion             -0.163838045280 Eh    ::
         :: -> Gsolv                  -0.067600265592 Eh    ::
         :: repulsion energy           3.071588177596 Eh    ::

    * Orbital Energies and Occupations

         #    Occupation            Energy/Eh            Energy/eV
      -------------------------------------------------------------
         1        2.0000           -0.6798931             -18.5008
       ...           ...                  ...                  ...
       144        2.0000           -0.4041176             -10.9966
       145        2.0000           -0.4026155             -10.9557
       146        2.0000           -0.3998140             -10.8795
       147        2.0000           -0.3989283             -10.8554
       148        2.0000           -0.3971963             -10.8083
       149        2.0000           -0.3969063             -10.8004
       150        2.0000           -0.3932151             -10.6999
       151        2.0000           -0.3834023             -10.4329
       152        2.0000           -0.3813249             -10.3764
       153        2.0000           -0.3727334             -10.1426
       154        1.9889           -0.3588115              -9.7638
       155        1.0111           -0.3502839              -9.5317
       156        1.0000           -0.2731176              -7.4319 (HOMO)
       157        0.0000           -0.2493696              -6.7857 (LUMO)
       158        0.0000           -0.2477815              -6.7425
       159                         -0.2352385              -6.4012
       160                         -0.2351713              -6.3993
       161                         -0.2328694              -6.3367
       162                         -0.2320686              -6.3149
       163                         -0.2289839              -6.2310
       164                         -0.2258896              -6.1468
       165                         -0.2248164              -6.1176
       166                         -0.2240742              -6.0974
       167                         -0.2221240              -6.0443
       ...                                ...                  ...
       307                          0.7289520              19.8358
      -------------------------------------------------------------
                  HL-Gap            0.0237479 Eh            0.6462 eV

     #   Z          covCN         q      C6AA      α(0)
     1   6 C        3.761    -0.107    22.586     6.775
     2   6 C        3.902     0.027    20.071     6.368
     3   6 C        3.761    -0.107    22.584     6.774
     4   6 C        3.761    -0.110    22.644     6.784
     5   6 C        2.972     0.012    27.734     8.638
     6   6 C        2.925    -0.037    28.930     8.821
     7   6 C        2.920    -0.041    29.013     8.833
     8   6 C        2.910     0.066    26.520     8.444
     9   7 N        2.819    -0.078    22.748     7.084
    10   6 C        3.131     0.131    24.949     8.177
    11   6 C        2.967    -0.019    28.477     8.753
    12   6 C        2.921    -0.037    28.928     8.820
    13   6 C        2.913    -0.040    28.994     8.830
    14   6 C        2.969    -0.005    28.135     8.701
    15   6 C        2.968     0.005    27.919     8.667
    16   6 C        2.921    -0.041    29.019     8.834
    17   6 C        2.913    -0.042    29.053     8.839
    18   6 C        2.925     0.046    26.962     8.515
    19   7 N        2.752    -0.040    22.024     6.970
    20   6 C        2.927     0.059    26.675     8.470
    21   6 C        2.921    -0.053    29.310     8.878
    22   6 C        2.919    -0.031    28.784     8.798
    23   6 C        2.917    -0.038    28.951     8.823
    24   6 C        2.923    -0.034    28.855     8.809
    25   6 C        2.987    -0.005    28.133     8.701
    26   6 C        3.921     0.010    20.340     6.410
    27   6 C        2.977     0.014    27.695     8.632
    28   6 C        2.925    -0.032    28.808     8.802
    29   6 C        2.919    -0.030    28.761     8.794
    30   6 C        2.919    -0.032    28.810     8.802
    31   6 C        2.920    -0.031    28.767     8.795
    32   6 C        2.922    -0.036    28.902     8.816
    33   6 C        2.978     0.013    27.727     8.637
    34   6 C        2.924    -0.037    28.921     8.819
    35   6 C        2.920    -0.031    28.770     8.796
    36   6 C        2.919    -0.032    28.806     8.801
    37   6 C        2.919    -0.031    28.766     8.795
    38   6 C        2.924    -0.036    28.903     8.816
    39   6 C        2.985    -0.003    28.095     8.695
    40   6 C        2.922    -0.034    28.850     8.808
    41   6 C        2.917    -0.037    28.923     8.819
    42   6 C        2.918    -0.031    28.767     8.795
    43   6 C        2.922    -0.049    29.227     8.866
    44   6 C        2.935     0.060    26.662     8.468
    45   6 C        2.915    -0.041    29.006     8.832
    46   6 C        2.921    -0.040    28.985     8.829
    47   6 C        2.915    -0.039    28.966     8.826
    48   6 C        2.910    -0.047    29.168     8.856
    49   7 N        1.885    -0.328    29.368     8.034
    50   6 C        3.164     0.080    25.899     8.318
    51   6 C        2.984    -0.009    28.227     8.715
    52   6 C        2.922    -0.030    28.740     8.791
    53   6 C        2.916    -0.034    28.856     8.809
    54   6 C        2.917    -0.031    28.776     8.797
    55   6 C        2.921    -0.037    28.919     8.819
    56   6 C        2.977    -0.004    28.114     8.697
    57   6 C        2.977    -0.005    28.153     8.703
    58   6 C        2.920    -0.034    28.854     8.809
    59   6 C        2.916    -0.036    28.891     8.814
    60   6 C        2.914    -0.034    28.859     8.809
    61   6 C        2.918    -0.039    28.971     8.826
    62   6 C        2.974    -0.015    28.378     8.738
    63   6 C        3.041     0.039    27.087     8.536
    64   6 C        2.919    -0.041    29.010     8.832
    65   6 C        2.927    -0.033    28.823     8.804
    66   1 H        0.925     0.043     2.409     2.427
    67   1 H        0.925     0.039     2.467     2.456
    68   1 H        0.925     0.034     2.525     2.485
    69   1 H        0.925     0.043     2.407     2.426
    70   1 H        0.925     0.035     2.522     2.484
    71   1 H        0.925     0.039     2.466     2.456
    72   1 H        0.925     0.038     2.477     2.461
    73   1 H        0.925     0.038     2.474     2.460
    74   1 H        0.925     0.042     2.427     2.436
    75   1 H        0.926     0.051     2.305     2.374
    76   1 H        0.926     0.034     2.533     2.489
    77   1 H        0.926     0.041     2.438     2.442
    78   1 H        0.926     0.029     2.597     2.520
    79   1 H        0.926     0.035     2.510     2.478
    80   1 H        0.926     0.037     2.489     2.467
    81   1 H        0.926     0.042     2.416     2.431
    82   1 H        0.926     0.037     2.487     2.466
    83   1 H        0.926     0.035     2.510     2.477
    84   1 H        0.926     0.037     2.496     2.470
    85   1 H        0.926     0.028     2.613     2.528
    86   1 H        0.926     0.032     2.556     2.500
    87   1 H        0.926     0.032     2.562     2.503
    88   1 H        0.926     0.032     2.565     2.504
    89   1 H        0.926     0.032     2.562     2.503
    90   1 H        0.926     0.032     2.557     2.501
    91   1 H        0.926     0.032     2.561     2.502
    92   1 H        0.926     0.032     2.559     2.501
    93   1 H        0.926     0.032     2.556     2.500
    94   1 H        0.926     0.035     2.515     2.480
    95   1 H        0.926     0.037     2.488     2.467
    96   1 H        0.926     0.037     2.492     2.469
    97   1 H        0.926     0.038     2.475     2.460
    98   1 H        0.926     0.038     2.477     2.461
    99   1 H        0.926     0.033     2.547     2.496
   100   1 H        0.926     0.036     2.504     2.475
   101   1 H        0.926     0.028     2.619     2.531
   102   1 H        0.926     0.021     2.724     2.581
   103   1 H        0.926     0.044     2.401     2.423
   104   1 H        0.926     0.034     2.537     2.491
   105   1 H        0.926     0.034     2.529     2.487
   106   1 H        0.926     0.035     2.511     2.478
   107   1 H        0.926     0.036     2.509     2.477
   108   1 H        0.926     0.031     2.567     2.505
   109   1 H        0.926     0.030     2.588     2.516
   110   1 H        0.926     0.028     2.612     2.527
   111   1 H        0.926     0.034     2.529     2.487
   112   1 H        0.926     0.044     2.392     2.418

molecular dipole:
                 x           y           z       tot (Debye)
 q only:        2.266       1.647       0.531
   full:        1.996       1.882       0.580       7.127

 projected vibrational frequencies (cm⁻¹)
eigval :       -0.00    -0.00     0.00     0.00     0.00     0.00
eigval :        7.89     9.67     9.79    12.72    16.96    21.22
eigval :       23.36    28.81    34.81    43.42    47.83    52.09
eigval :       55.10    58.51    62.77    69.49    73.12    80.85
eigval :       83.76    86.84    88.05    93.47   103.05   109.69
eigval :      121.17   134.39   140.00   168.88   174.20   175.59
eigval :      180.53   192.76   211.12   212.49   222.05   229.16
eigval :      235.25   237.24   244.55   252.57   259.52   265.00
eigval :      267.20   282.27   289.58   302.22   306.70   315.43
eigval :      319.13   340.14   345.20   356.77   360.49   369.78
eigval :      370.31   372.90   374.34   378.20   387.38   389.62
eigval :      392.65   394.86   402.56   409.79   413.51   424.17
eigval :      432.41   434.78   444.00   451.28   457.42   459.32
eigval :      463.36   474.52   486.40   495.10   499.02   501.89
eigval :      513.64   521.46   525.62   526.50   546.28   581.30
eigval :      584.43   587.14   588.00   588.33   593.30   596.31
eigval :      601.03   604.66   607.64   611.56   618.85   625.02
eigval :      645.39   653.02   659.40   662.75   663.91   669.94
eigval :      671.28   672.34   681.76   686.71   688.48   698.21
eigval :      703.63   720.52   728.22   745.73   753.21   754.15
eigval :      756.09   757.41   774.02   775.23   777.90   786.33
eigval :      789.07   802.28   811.85   822.48   833.20   853.59
eigval :      866.99   868.39   871.80   872.24   876.61   879.12
eigval :      880.22   892.23   898.71   898.99   900.10   900.97
eigval :      902.56   903.98   906.30   910.92   912.46   912.57
eigval :      913.56   914.58   915.26   918.79   920.61   923.99
eigval :      924.32   925.81   926.95   928.66   931.68   931.94
eigval :      932.99   934.00   941.28   943.11   954.68   959.57
eigval :      962.34   963.67   983.96   992.68   997.12   998.71
eigval :     1008.94  1031.45  1034.44  1035.34  1061.86  1080.65
eigval :     1086.56  1091.90  1094.94  1100.40  1103.24  1104.68
eigval :     1118.10  1121.60  1126.82  1132.66  1133.18  1137.04
eigval :     1141.21  1143.56  1151.26  1158.25  1176.62  1178.19
eigval :     1179.73  1180.45  1181.14  1181.59  1182.69  1183.15
eigval :     1193.95  1197.28  1202.73  1204.98  1211.58  1212.95
eigval :     1218.87  1221.39  1225.26  1231.22  1236.26  1241.02
eigval :     1244.07  1251.68  1258.86  1259.91  1263.48  1270.43
eigval :     1272.12  1279.05  1285.92  1286.78  1289.31  1291.07
eigval :     1300.23  1306.19  1310.32  1311.70  1315.43  1317.60
eigval :     1322.65  1328.53  1330.91  1331.77  1339.28  1340.19
eigval :     1361.48  1387.05  1392.96  1395.47  1402.23  1406.46
eigval :     1408.90  1411.04  1422.37  1426.04  1426.35  1428.01
eigval :     1430.02  1431.64  1433.82  1439.49  1451.00  1452.58
eigval :     1467.44  1469.50  1471.23  1472.50  1475.27  1483.16
eigval :     1487.70  1488.26  1490.36  1499.05  1499.48  1502.50
eigval :     1510.92  1512.22  1515.67  1537.07  1540.99  1559.11
eigval :     1561.73  1563.26  1567.36  1572.73  1576.54  1581.53
eigval :     1585.13  1586.75  1587.78  1593.89  1596.81  1597.51
eigval :     1600.46  3021.65  3022.76  3025.73  3026.88  3031.32
eigval :     3032.63  3038.26  3045.53  3048.96  3066.41  3069.72
eigval :     3069.96  3070.47  3071.67  3072.71  3073.11  3075.08
eigval :     3076.47  3077.79  3077.93  3079.35  3079.59  3080.74
eigval :     3081.47  3081.71  3083.18  3083.51  3085.10  3086.30
eigval :     3086.95  3093.45  3093.75  3094.98  3095.32  3095.69
eigval :     3096.42  3097.66  3097.84  3098.57  3101.36  3102.40
eigval :     3104.80  3106.60  3111.51  3119.72  3121.46  3125.47

   temp. (K)  partition function   enthalpy   heat capacity  entropy
                                   cal/mol     cal/K/mol   cal/K/mol   J/K/mol
 298.15  VIB  0.987E+26            32165.148    201.540    201.903
         ROT  0.288E+09              888.752      2.981     41.686
         INT  0.284E+35            33053.900    204.521    243.589
         TR   0.233E+29             1481.254      4.968     46.020
         TOT                       34535.1538   209.4889   289.6087  1211.7229

       T/K    H(0)-H(T)+PV         H(T)/Eh          T*S/Eh         G(T)/Eh
   ------------------------------------------------------------------------
    298.15    0.550353E-01    0.937361E+00    0.137602E+00    0.799759E+00
   ------------------------------------------------------------------------

         :::::::::::::::::::::::::::::::::::::::::::::::::::::
         ::                  THERMODYNAMIC                  ::
         :::::::::::::::::::::::::::::::::::::::::::::::::::::
         :: total free energy        -164.767112030179 Eh   ::
         ::.................................................::
         :: total energy             -165.566870903094 Eh   ::
         :: zero point energy           0.882326050738 Eh   ::
         :: G(RRHO) w/o ZPVE           -0.082567177823 Eh   ::
         :: G(RRHO) contrib.            0.799758872915 Eh   ::
         :::::::::::::::::::::::::::::::::::::::::::::::::::::

           -------------------------------------------------
          | TOTAL ENERGY             -165.566870903094 Eh   |
          | TOTAL ENTHALPY           -164.629509581568 Eh   |
          | TOTAL FREE ENERGY        -164.767112030179 Eh   |
          | GRADIENT NORM               0.000036559135 Eh/α |
          | HOMO-LUMO GAP               0.646213989664 eV   |
           -------------------------------------------------

 * finished run on 2025/08/21 at 15:33:17.369
