   * xtb version 6.7.1 (edcfbbe) compiled by 'albert@albert-system' on 2024-07-22

   ID    Z sym.   atoms
    1    6 C      1-8, 10-18, 20-48, 50-65
    2    7 N      9, 19, 49
    3    1 H      66-112

          program call               : xtb data2507/toluene/DPACPhTPI/DPACPhTPI_toluene_S0_crest.xyz --gfn 2 --gbsa toluene --ohess vtight --parallel 40 --molden --ceasefiles --namespace data2507/toluene/DPACPhTPI/DPACPhTPI_toluene_S0_finalOpt
      * Solvation model:               GBSA
        Solvent                        toluene
        Solvent mass                       9.2140E+01 g/mol
          :  Hamiltonian                  GFN2-xTB          :
 * total energy  :  -165.6515783 Eh     change       -0.7139050E-08 Eh
 * total energy  :  -165.6516357 Eh     change       -0.5744981E-04 Eh
 * total energy  :  -165.6516702 Eh     change       -0.3451923E-04 Eh
 * total energy  :  -165.6516908 Eh     change       -0.2052194E-04 Eh
 * total energy  :  -165.6517086 Eh     change       -0.1786635E-04 Eh
 * total energy  :  -165.6517361 Eh     change       -0.2751321E-04 Eh
 * total energy  :  -165.6517481 Eh     change       -0.1196776E-04 Eh
 * total energy  :  -165.6517698 Eh     change       -0.2172053E-04 Eh
 * total energy  :  -165.6517772 Eh     change       -0.7364790E-05 Eh
 * total energy  :  -165.6517852 Eh     change       -0.8010296E-05 Eh
 * total energy  :  -165.6518580 Eh     change       -0.6214667E-06 Eh
 * total energy  :  -165.6518587 Eh     change       -0.7220619E-06 Eh
 * total energy  :  -165.6518596 Eh     change       -0.9292021E-06 Eh
 * total energy  :  -165.6518608 Eh     change       -0.1172943E-05 Eh
 * total energy  :  -165.6518614 Eh     change       -0.6180006E-06 Eh
 * total energy  :  -165.6518621 Eh     change       -0.7040014E-06 Eh
 * total energy  :  -165.6518631 Eh     change       -0.9837416E-06 Eh
 * total energy  :  -165.6518638 Eh     change       -0.6851289E-06 Eh
 * total energy  :  -165.6518638 Eh     change       -0.6508486E-08 Eh
   *** GEOMETRY OPTIMIZATION CONVERGED AFTER 68 ITERATIONS ***

 final structure:
================
112
 xtb: 6.7.1 (edcfbbe)
C           -6.05146275903405        6.28079113414793        0.32031158048568
C           -4.74474850776899        5.49534262094503        0.13292674338626
C           -3.80771280548779        5.74915080594725        1.32347413387790
C           -4.05563262305272        6.00717126578013       -1.13557790552084
C           -5.06499311982768        4.01030538503551        0.06715246193134
C           -4.75328670015101        3.21697347342491       -1.03099821263169
C           -5.05379349016094        1.86575815474008       -1.05363046752199
C           -5.67963841832583        1.27503042906308        0.03352588608351
N           -5.95657883981988       -0.11059125247782        0.02594721635998
C           -5.01173006690624       -1.11058271920157        0.04808443402133
C           -3.57311540286661       -0.91191085650961        0.10771042972838
C           -2.75607250071497       -1.86377144883577       -0.50667465335975
C           -1.38375889995353       -1.74177336684180       -0.47325351466808
C           -0.77941069862494       -0.67160813626020        0.18655699009741
C            0.68462907243169       -0.54772634900824        0.22923533632316
C            1.33150187129599       -0.17623029382845        1.40733410478088
C            2.70838636070988       -0.08008340564934        1.45643948835899
C            3.46589080192111       -0.34524781197301        0.32051485640268
N            4.88691322760627       -0.26566402472916        0.34772065847630
C            5.50916674623391        0.97397699230145        0.31725397876210
C            4.76517046442483        2.15284820697148        0.39014158590505
C            5.39533262467219        3.38066555470436        0.42916068481572
C            6.77711283821477        3.45446309924831        0.41187126869135
C            7.51871033725610        2.29039263136462        0.30289293655761
C            6.90500039458982        1.04917308123931        0.22989554575767
C            7.69582445485384       -0.21391773317863       -0.06397331367895
C            9.11351286579700       -0.09334957523096        0.47026365963500
C            9.28528385411868        0.19867260441549        1.82130398114030
C           10.54995824737182        0.29866645660789        2.36864547635427
C           11.66838147001032        0.10344022161543        1.57364834216432
C           11.50748502084322       -0.19598725293686        0.23282558883263
C           10.23866081391518       -0.29600852345512       -0.31582391107681
C            7.67620660605622       -0.40692803923139       -1.58446648252390
C            7.37908359772938       -1.63402449226799       -2.16406614084419
C            7.36146406995447       -1.78204836006074       -3.54121882258093
C            7.64451966828047       -0.70724639090518       -4.36473691361450
C            7.94905785077659        0.51899946214591       -3.79766040828731
C            7.96287688515988        0.66643323084833       -2.42275551810501
C            7.00789465290257       -1.38755163036042        0.60587675347400
C            7.72088254053465       -2.49918919020375        1.02862085328635
C            7.07739455132237       -3.61478313931234        1.53630308211115
C            5.69512424171404       -3.62807362514785        1.61099723574009
C            4.96724003950256       -2.52609895645631        1.20832927238112
C            5.61206827718192       -1.39083148234344        0.71355303825563
C            2.83200397237067       -0.70824755329521       -0.86026549189327
C            1.45431009675480       -0.81172946977328       -0.90209897261006
C           -1.59586386058803        0.26416274424611        0.81797544838781
C           -2.97123211544680        0.14956070861236        0.78208821005022
N           -5.55701773905617       -2.30464822713928        0.01640877621946
C           -6.89976777470546       -2.10198710968976       -0.02145916548864
C           -7.93105177225759       -3.08296540128885       -0.02443686899912
C           -7.63407897601439       -4.44983199232666        0.01722657782909
C           -8.64326238484855       -5.37997462228983        0.04458532137980
C           -9.96911299365440       -4.95042847441291        0.03430105206164
C          -10.27297023524735       -3.60961018807235       -0.01135297647158
C           -9.26979550352121       -2.62828468859546       -0.04897729582141
C           -9.55933818982608       -1.20601549405286       -0.12519516819130
C          -10.87485222759819       -0.72727073356414       -0.21228378419642
C          -11.15883857813468        0.61418744513189       -0.31614584354886
C          -10.12561882945677        1.54528897664675       -0.35643824665877
C           -8.82320960651686        1.11858472213929       -0.26967465702053
C           -8.51272300322998       -0.24259363614478       -0.13470189507602
C           -7.18134283801726       -0.73656113744822       -0.03048909633224
C           -6.00039694129104        2.05091529367769        1.14289959029110
C           -5.69667504544063        3.39721420940636        1.14924694323637
H           -5.84395453648937        7.34833712621857        0.34503895135401
H           -6.54975497168202        6.01067555892867        1.24724911201419
H           -6.73265624103313        6.08127851939887       -0.50471286575599
H           -3.55205109975162        6.80510987159401        1.37723866875396
H           -2.88897232365558        5.17733758237592        1.20790824233630
H           -4.27178177906469        5.46410796994223        2.26360589650701
H           -4.69012920123428        5.87326687397820       -2.00883497894524
H           -3.10807144512221        5.49904320073196       -1.29962565974705
H           -3.85136331430537        7.07074474076283       -1.03059884059158
H           -4.26752181114317        3.63917567220663       -1.89454180062170
H           -4.80058014067843        1.26383849233103       -1.91439825307690
H           -3.22485773140053       -2.69791935823358       -1.00590094151171
H           -0.76856531311953       -2.49440342233691       -0.94396512909927
H            0.75112997098828        0.01242756268474        2.29821181825335
H            3.20657514745443        0.19431441740346        2.37533886861254
H            3.68736884598989        2.10394297229313        0.41640591764892
H            4.80215405632017        4.28190682254158        0.48330783806722
H            7.27654942475406        4.41045107966485        0.46194718070447
H            8.59730740562009        2.34922368395539        0.26575683894812
H            8.41451742144132        0.34667402913456        2.44490628664341
H           10.66455559377771        0.52803200031366        3.41839203875996
H           12.65829267046143        0.18119848831110        1.99933259591278
H           12.37292882472784       -0.35643502459368       -0.39431078395878
H           10.13045192245595       -0.53796151574960       -1.36278467169002
H            7.15951645163980       -2.48867078707598       -1.54180805195555
H            7.12562571792926       -2.74616521145619       -3.96905647106434
H            7.63028352009915       -0.82345009215484       -5.43875245748828
H            8.17717369511944        1.36656852929618       -4.42814561706135
H            8.20128226214793        1.62941147586392       -1.99697445618712
H            8.79751502306673       -2.49928341241119        0.93986988411734
H            7.65216596678754       -4.47193118530997        1.85341441037285
H            5.17817398688407       -4.49802996733144        1.98915650576144
H            3.89021030122111       -2.54124264784874        1.27755403002086
H            3.42605134442367       -0.90913112485087       -1.73977911648916
H            0.96741931311752       -1.08265319415640       -1.82695458930180
H           -1.14848124087134        1.10137293272075        1.33332009109881
H           -3.57361634474555        0.88075857242581        1.29814850933483
H           -6.59447284853605       -4.74012946748581        0.03317755149779
H           -8.41633827512187       -6.43559727078582        0.07788144774914
H          -10.76785096378350       -5.67779903537877        0.06246802691472
H          -11.31320452036391       -3.32513064816874       -0.01485897761632
H          -11.69911152130469       -1.42193187730865       -0.20490764690777
H          -12.18571947317636        0.94363013503840       -0.37881778247433
H          -10.34488268768358        2.59793307658497       -0.45903910260972
H           -8.02405447855029        1.84062733794474       -0.31664759450880
H           -6.48746474186831        1.59211792980330        1.99179172670071
H           -5.95759975393273        3.97369062132086        2.02308482648001

          :  Hamiltonian                  GFN2-xTB          :
         :: gradient norm              0.000059783865 Eh/a0 ::
         :: HOMO-LUMO gap              2.214687958667 eV    ::
         :: SCC energy              -168.741350418516 Eh    ::
         :: -> dispersion             -0.163901957101 Eh    ::
         :: -> Gsolv                  -0.066811995960 Eh    ::
         :: repulsion energy           3.089486642747 Eh    ::

    * Orbital Energies and Occupations

         #    Occupation            Energy/Eh            Energy/eV
      -------------------------------------------------------------
         1        2.0000           -0.6873301             -18.7032
       ...           ...                  ...                  ...
       143        2.0000           -0.4039441             -10.9919
       144        2.0000           -0.4035010             -10.9798
       145        2.0000           -0.4018194             -10.9341
       146        2.0000           -0.4002673             -10.8918
       147        2.0000           -0.3978723             -10.8267
       148        2.0000           -0.3959792             -10.7751
       149        2.0000           -0.3934178             -10.7054
       150        2.0000           -0.3912619             -10.6468
       151        2.0000           -0.3871432             -10.5347
       152        2.0000           -0.3825143             -10.4087
       153        2.0000           -0.3785045             -10.2996
       154        2.0000           -0.3640933              -9.9075
       155        2.0000           -0.3480032              -9.4696 (HOMO)
       156                         -0.2666149              -7.2550 (LUMO)
       157                         -0.2505462              -6.8177
       158                         -0.2483699              -6.7585
       159                         -0.2361946              -6.4272
       160                         -0.2351611              -6.3991
       161                         -0.2328834              -6.3371
       162                         -0.2283231              -6.2130
       163                         -0.2268102              -6.1718
       164                         -0.2261392              -6.1536
       165                         -0.2249564              -6.1214
       166                         -0.2233349              -6.0773
       ...                                ...                  ...
       307                          0.7253822              19.7387
      -------------------------------------------------------------
                  HL-Gap            0.0813883 Eh            2.2147 eV

     #   Z          covCN         q      C6AA      α(0)
     1   6 C        3.761    -0.107    22.589     6.775
     2   6 C        3.902     0.027    20.069     6.368
     3   6 C        3.761    -0.107    22.593     6.776
     4   6 C        3.761    -0.110    22.653     6.785
     5   6 C        2.972     0.013    27.708     8.634
     6   6 C        2.925    -0.036    28.900     8.816
     7   6 C        2.920    -0.041    29.022     8.834
     8   6 C        2.912     0.061    26.634     8.463
     9   7 N        2.839    -0.055    22.294     7.013
    10   6 C        3.190     0.136    24.588     8.088
    11   6 C        2.974    -0.003    28.086     8.693
    12   6 C        2.927    -0.029    28.733     8.791
    13   6 C        2.923    -0.033    28.815     8.803
    14   6 C        2.976     0.012    27.739     8.639
    15   6 C        2.976     0.012    27.747     8.641
    16   6 C        2.924    -0.033    28.834     8.806
    17   6 C        2.919    -0.038    28.946     8.823
    18   6 C        2.926     0.066    26.515     8.444
    19   7 N        2.753    -0.079    22.785     7.089
    20   6 C        2.930     0.060    26.663     8.468
    21   6 C        2.922    -0.059    29.469     8.902
    22   6 C        2.919    -0.035    28.864     8.810
    23   6 C        2.917    -0.046    29.146     8.853
    24   6 C        2.923    -0.037    28.912     8.818
    25   6 C        2.987    -0.011    28.275     8.723
    26   6 C        3.921     0.010    20.345     6.411
    27   6 C        2.977     0.014    27.684     8.631
    28   6 C        2.926    -0.032    28.798     8.801
    29   6 C        2.919    -0.031    28.781     8.797
    30   6 C        2.919    -0.034    28.839     8.806
    31   6 C        2.920    -0.032    28.790     8.799
    32   6 C        2.922    -0.037    28.914     8.818
    33   6 C        2.978     0.012    27.741     8.640
    34   6 C        2.924    -0.037    28.922     8.819
    35   6 C        2.920    -0.032    28.794     8.799
    36   6 C        2.919    -0.034    28.840     8.807
    37   6 C        2.919    -0.032    28.793     8.799
    38   6 C        2.925    -0.036    28.897     8.816
    39   6 C        2.986    -0.010    28.264     8.721
    40   6 C        2.923    -0.037    28.922     8.819
    41   6 C        2.917    -0.046    29.131     8.851
    42   6 C        2.919    -0.034    28.856     8.809
    43   6 C        2.922    -0.058    29.449     8.899
    44   6 C        2.932     0.061    26.640     8.465
    45   6 C        2.920    -0.038    28.947     8.823
    46   6 C        2.925    -0.032    28.806     8.802
    47   6 C        2.923    -0.034    28.847     8.808
    48   6 C        2.920    -0.036    28.907     8.817
    49   7 N        1.895    -0.321    29.175     8.008
    50   6 C        3.203     0.060    26.099     8.323
    51   6 C        2.985    -0.004    28.105     8.696
    52   6 C        2.921    -0.034    28.838     8.806
    53   6 C        2.917    -0.032    28.800     8.800
    54   6 C        2.917    -0.035    28.861     8.810
    55   6 C        2.921    -0.037    28.912     8.818
    56   6 C        2.979    -0.005    28.148     8.703
    57   6 C        2.979    -0.002    28.071     8.691
    58   6 C        2.922    -0.035    28.880     8.813
    59   6 C        2.916    -0.034    28.857     8.809
    60   6 C        2.917    -0.033    28.815     8.803
    61   6 C        2.919    -0.041    29.028     8.835
    62   6 C        2.978    -0.005    28.152     8.703
    63   6 C        3.075     0.023    27.417     8.585
    64   6 C        2.919    -0.040    29.003     8.831
    65   6 C        2.927    -0.033    28.824     8.804
    66   1 H        0.925     0.043     2.412     2.428
    67   1 H        0.925     0.039     2.462     2.454
    68   1 H        0.925     0.035     2.521     2.483
    69   1 H        0.925     0.043     2.410     2.428
    70   1 H        0.925     0.035     2.511     2.478
    71   1 H        0.925     0.039     2.462     2.454
    72   1 H        0.925     0.038     2.475     2.460
    73   1 H        0.925     0.039     2.468     2.457
    74   1 H        0.925     0.041     2.429     2.437
    75   1 H        0.926     0.052     2.290     2.366
    76   1 H        0.926     0.034     2.531     2.488
    77   1 H        0.926     0.047     2.360     2.403
    78   1 H        0.926     0.043     2.409     2.427
    79   1 H        0.926     0.044     2.394     2.420
    80   1 H        0.926     0.042     2.423     2.434
    81   1 H        0.926     0.028     2.616     2.529
    82   1 H        0.926     0.029     2.600     2.522
    83   1 H        0.926     0.026     2.641     2.542
    84   1 H        0.926     0.027     2.625     2.534
    85   1 H        0.925     0.026     2.640     2.541
    86   1 H        0.926     0.030     2.584     2.514
    87   1 H        0.926     0.030     2.585     2.514
    88   1 H        0.926     0.030     2.590     2.517
    89   1 H        0.926     0.029     2.597     2.520
    90   1 H        0.926     0.030     2.593     2.518
    91   1 H        0.926     0.030     2.590     2.517
    92   1 H        0.926     0.030     2.583     2.513
    93   1 H        0.926     0.030     2.586     2.515
    94   1 H        0.926     0.033     2.548     2.496
    95   1 H        0.926     0.027     2.628     2.535
    96   1 H        0.926     0.026     2.639     2.540
    97   1 H        0.926     0.029     2.599     2.521
    98   1 H        0.926     0.027     2.627     2.535
    99   1 H        0.926     0.043     2.414     2.430
   100   1 H        0.926     0.045     2.380     2.413
   101   1 H        0.926     0.041     2.434     2.440
   102   1 H        0.926     0.032     2.556     2.500
   103   1 H        0.926     0.043     2.412     2.429
   104   1 H        0.926     0.032     2.558     2.501
   105   1 H        0.926     0.031     2.566     2.505
   106   1 H        0.926     0.034     2.529     2.487
   107   1 H        0.926     0.036     2.500     2.473
   108   1 H        0.926     0.032     2.557     2.500
   109   1 H        0.926     0.032     2.563     2.503
   110   1 H        0.926     0.030     2.582     2.513
   111   1 H        0.926     0.037     2.494     2.470
   112   1 H        0.926     0.046     2.375     2.410

molecular dipole:
                 x           y           z       tot (Debye)
 q only:       -0.220       1.764      -0.054
   full:       -0.427       2.016      -0.024       5.237

 projected vibrational frequencies (cm⁻¹)
eigval :       -0.00    -0.00    -0.00     0.00     0.00     0.00
eigval :        2.87     7.03    10.55    12.05    18.16    19.12
eigval :       20.94    29.78    35.31    37.48    43.77    48.95
eigval :       57.68    61.19    64.12    69.55    72.01    75.49
eigval :       83.47    84.19    86.56    90.84    95.01   107.75
eigval :      129.75   136.32   144.04   164.53   172.72   176.20
eigval :      182.39   189.90   209.53   212.53   226.88   233.42
eigval :      235.46   236.38   242.89   253.68   261.14   267.77
eigval :      270.52   282.60   294.97   302.58   310.51   314.90
eigval :      318.56   341.96   354.62   362.81   365.53   367.15
eigval :      371.95   374.75   377.26   382.41   383.15   395.61
eigval :      397.57   400.60   409.98   419.42   423.94   433.90
eigval :      436.45   447.24   448.79   454.72   455.87   465.87
eigval :      474.75   481.04   496.07   509.27   513.81   519.59
eigval :      520.43   525.13   535.90   543.80   546.72   584.40
eigval :      588.16   588.42   591.19   595.59   600.17   603.19
eigval :      606.92   608.47   610.39   612.98   631.24   644.78
eigval :      654.17   663.67   668.33   671.72   672.00   674.88
eigval :      680.76   686.18   690.81   695.29   696.46   705.83
eigval :      714.28   723.49   733.23   754.72   755.77   757.45
eigval :      763.17   765.20   775.44   778.06   782.08   797.41
eigval :      806.88   822.62   832.57   861.17   867.21   867.53
eigval :      868.60   868.96   876.10   876.74   878.48   881.10
eigval :      882.12   893.97   898.80   900.60   904.90   906.30
eigval :      912.08   912.48   913.81   914.35   914.70   916.67
eigval :      919.17   922.41   922.53   922.80   926.25   926.88
eigval :      927.34   928.59   931.16   931.74   933.05   933.40
eigval :      935.15   939.58   945.10   958.93   959.76   962.29
eigval :      964.02   985.02   989.98   999.49  1009.55  1017.30
eigval :     1032.16  1034.60  1034.98  1072.47  1079.20  1085.57
eigval :     1086.88  1090.96  1104.77  1107.09  1107.12  1118.99
eigval :     1122.47  1127.14  1131.08  1132.38  1133.69  1139.10
eigval :     1141.81  1143.81  1151.57  1173.30  1180.41  1180.63
eigval :     1180.66  1180.79  1183.14  1183.82  1184.39  1185.32
eigval :     1197.40  1199.11  1202.24  1203.44  1211.03  1212.71
eigval :     1218.27  1223.21  1225.12  1231.32  1238.81  1252.91
eigval :     1255.92  1262.65  1264.92  1267.33  1269.90  1272.16
eigval :     1281.99  1284.03  1285.92  1287.28  1291.23  1305.18
eigval :     1306.93  1314.27  1315.62  1318.61  1318.89  1325.19
eigval :     1326.64  1331.73  1332.61  1336.22  1337.42  1348.40
eigval :     1376.45  1390.93  1396.68  1402.51  1405.43  1407.17
eigval :     1408.68  1419.60  1426.66  1428.86  1430.95  1432.18
eigval :     1434.70  1438.39  1439.64  1459.41  1468.41  1472.70
eigval :     1474.54  1483.83  1488.10  1488.31  1489.80  1494.98
eigval :     1499.29  1503.36  1510.17  1512.46  1513.99  1514.97
eigval :     1537.94  1554.84  1560.31  1564.80  1568.59  1568.74
eigval :     1570.89  1582.12  1585.35  1586.10  1587.61  1588.71
eigval :     1593.40  1596.57  1598.08  1598.80  1600.94  1602.11
eigval :     1603.24  3022.27  3023.46  3026.84  3027.41  3031.30
eigval :     3033.19  3038.53  3045.55  3049.05  3065.75  3066.77
eigval :     3068.20  3068.73  3070.18  3070.45  3072.71  3073.77
eigval :     3073.93  3075.13  3076.13  3077.10  3079.02  3079.96
eigval :     3080.16  3080.46  3081.50  3082.17  3083.09  3083.37
eigval :     3083.75  3086.68  3089.37  3089.82  3090.72  3092.14
eigval :     3093.40  3095.40  3095.75  3096.08  3096.22  3097.09
eigval :     3097.85  3099.68  3103.69  3109.14  3117.51  3123.68

   temp. (K)  partition function   enthalpy   heat capacity  entropy
                                   cal/mol     cal/K/mol   cal/K/mol   J/K/mol
 298.15  VIB  0.417E+27            31928.958    199.397    202.064
         ROT  0.277E+09              888.752      2.981     41.611
         INT  0.115E+36            32817.710    202.378    243.675
         TR   0.233E+29             1481.254      4.968     46.020
         TOT                       34298.9639   207.3463   289.6948  1212.0829

       T/K    H(0)-H(T)+PV         H(T)/Eh          T*S/Eh         G(T)/Eh
   ------------------------------------------------------------------------
    298.15    0.546589E-01    0.940711E+00    0.137643E+00    0.803068E+00
   ------------------------------------------------------------------------

         :::::::::::::::::::::::::::::::::::::::::::::::::::::
         ::                  THERMODYNAMIC                  ::
         :::::::::::::::::::::::::::::::::::::::::::::::::::::
         :: total free energy        -164.848796036495 Eh   ::
         ::.................................................::
         :: total energy             -165.651863784220 Eh   ::
         :: zero point energy           0.886052204312 Eh   ::
         :: G(RRHO) w/o ZPVE           -0.082984456586 Eh   ::
         :: G(RRHO) contrib.            0.803067747725 Eh   ::
         :::::::::::::::::::::::::::::::::::::::::::::::::::::

           -------------------------------------------------
          | TOTAL ENERGY             -165.651863784220 Eh   |
          | TOTAL ENTHALPY           -164.711152701687 Eh   |
          | TOTAL FREE ENERGY        -164.848796036495 Eh   |
          | GRADIENT NORM               0.000059779927 Eh/α |
          | HOMO-LUMO GAP               2.214688391856 eV   |
           -------------------------------------------------

 * finished run on 2025/08/21 at 15:32:31.679
