   * xtb version 6.7.1 (edcfbbe) compiled by 'albert@albert-system' on 2024-07-22

   ID    Z sym.   atoms
    1    6 C      1-8, 10-18, 20-48, 50-65
    2    7 N      9, 19, 49
    3    1 H      66-112

          program call               : xtb data2507/toluene/DPACPhTPI/DPACPhTPI.xyz --gfn 2 --gbsa toluene --ohess vtight --parallel 40 --molden --ceasefiles --namespace data2507/toluene/DPACPhTPI/DPACPhTPI_toluene_S0_preOpt
      * Solvation model:               GBSA
        Solvent                        toluene
        Solvent mass                       9.2140E+01 g/mol
          :  Hamiltonian                  GFN2-xTB          :
 * total energy  :  -165.6121421 Eh     change       -0.5110110E-08 Eh
 * total energy  :  -165.6343711 Eh     change       -0.2222896E-01 Eh
 * total energy  :  -165.6425835 Eh     change       -0.8212488E-02 Eh
 * total energy  :  -165.6446368 Eh     change       -0.2053279E-02 Eh
 * total energy  :  -165.6456503 Eh     change       -0.1013476E-02 Eh
 * total energy  :  -165.6462562 Eh     change       -0.6059144E-03 Eh
 * total energy  :  -165.6466581 Eh     change       -0.4018961E-03 Eh
 * total energy  :  -165.6469264 Eh     change       -0.2682866E-03 Eh
 * total energy  :  -165.6471058 Eh     change       -0.1793849E-03 Eh
 * total energy  :  -165.6472616 Eh     change       -0.1558505E-03 Eh
 * total energy  :  -165.6520175 Eh     change       -0.2385985E-06 Eh
 * total energy  :  -165.6520177 Eh     change       -0.2124290E-06 Eh
 * total energy  :  -165.6520180 Eh     change       -0.2561274E-06 Eh
 * total energy  :  -165.6520182 Eh     change       -0.2725398E-06 Eh
 * total energy  :  -165.6520185 Eh     change       -0.2523932E-06 Eh
 * total energy  :  -165.6520187 Eh     change       -0.1774148E-06 Eh
 * total energy  :  -165.6520188 Eh     change       -0.1473845E-06 Eh
 * total energy  :  -165.6520189 Eh     change       -0.1240489E-06 Eh
 * total energy  :  -165.6520190 Eh     change       -0.8327754E-07 Eh
   *** GEOMETRY OPTIMIZATION CONVERGED AFTER 276 ITERATIONS ***

 final structure:
================
112
 xtb: 6.7.1 (edcfbbe)
C           -6.21412228907852        5.19591040400093        2.19342653806847
C           -4.87345553050613        4.53058530175633        1.84758418458222
C           -4.05212021624866        4.31520539429405        3.12769456410259
C           -4.09153036182099        5.47629536543791        0.93114207930256
C           -5.14441063649851        3.18076772858485        1.20206483194188
C           -4.72450767661741        2.85826665352168       -0.08329537760568
C           -4.98891218481578        1.61803730709789       -0.63861559553882
C           -5.68560721111784        0.66504465564045        0.08872524928473
N           -5.92600375659949       -0.61251740946285       -0.46425009184945
C           -4.95563757757242       -1.54041859629145       -0.76459796196877
C           -3.52921900918287       -1.36046909745804       -0.54853642200563
C           -2.64695664024108       -1.95589354716480       -1.45228675530076
C           -1.28373574691144       -1.82629263098813       -1.29483661134762
C           -0.75486900939901       -1.10933459467460       -0.22145574015958
C            0.69893515197606       -0.97242447832089       -0.05234847768540
C            1.28019280193327       -1.07675983307489        1.21102854212326
C            2.64659807355600       -0.95745642073450        1.37199368097616
C            3.45972157663154       -0.72079471723122        0.26863093971805
N            4.87084977124942       -0.59340748330908        0.40553300377237
C            5.41032297405316        0.59236824644284        0.88334085348900
C            4.58996674177592        1.61249198666727        1.36766807138139
C            5.13884318825574        2.76046554931797        1.90365937804528
C            6.51313248812130        2.90697924694560        1.97593081644322
C            7.33091676170739        1.91515418962067        1.46149725988649
C            6.79988273361864        0.76581184695861        0.89646820759142
C            7.67288155073167       -0.24944391214152        0.18046975669805
C            9.07705883287410       -0.24575464352523        0.76116735166279
C            9.22790092413743       -0.49531337646701        2.12326413116849
C           10.48106407368172       -0.51533834773549        2.70462023305601
C           11.60893830930125       -0.28710005483120        1.93194968168129
C           11.46927476227440       -0.04315943888260        0.57759608068562
C           10.21195063556885       -0.02394818849419       -0.00538611631294
C            7.67809718149121        0.11778904626324       -1.30815871103866
C            7.62158856415231       -0.85807030852879       -2.29601323095568
C            7.62647153185749       -0.51162313956338       -3.63672394794418
C            7.69108818971156        0.81748418837080       -4.01588733076472
C            7.75826555991886        1.79753801074182       -3.04007695541683
C            7.75175306112978        1.45042504030296       -1.70098800882608
C            7.05161736022082       -1.62277578602345        0.35070536294772
C            7.82370948241538       -2.77393734537403        0.38869099693432
C            7.24012432838080       -4.02909549775703        0.42071438043670
C            5.86043420191100       -4.13941007223930        0.39698226773216
C            5.07339071907010       -3.00520944979089        0.37725005164641
C            5.65639814173759       -1.73689713404018        0.36997874362568
C            2.89208020472777       -0.61216404406521       -0.99368468806160
C            1.52478711589646       -0.74024986010923       -1.15075584343952
C           -1.63773368339027       -0.53729823918534        0.69237249142142
C           -3.00389320657329       -0.65885844401770        0.53544265002703
N           -5.46280641256983       -2.63670705440551       -1.27825464109272
C           -6.80722635802557       -2.44260996505564       -1.31906353295043
C           -7.80785219339058       -3.35393022873964       -1.75929803959389
C           -7.47470223841829       -4.63464163638986       -2.21446715422517
C           -8.45645628042282       -5.50935882164463       -2.60866017679568
C           -9.79085407045749       -5.11130653840668       -2.54888393569457
C          -10.12978426705925       -3.85321533397754       -2.10780812573798
C           -9.15499977975576       -2.92779098165673       -1.70272506266623
C           -9.48004087882053       -1.58257743333020       -1.25866123972004
C          -10.80013593751706       -1.10850275691048       -1.25493638621218
C          -11.11469693777075        0.17439517916153       -0.87275684500288
C          -10.10818164019248        1.05410221937675       -0.48641062014286
C           -8.80300907812470        0.62748347100243       -0.46901128728151
C           -8.46315475432472       -0.68427537478281       -0.83125363242393
C           -7.12724186072303       -1.17707595352798       -0.82937932959108
C           -6.11156955752571        0.96600477351384        1.37846591059510
C           -5.84358782509922        2.20824196744586        1.91673559671152
H           -6.78669265694418        4.59711137741214        2.89634695481424
H           -6.81132615017946        5.33062345762332        1.29355133885685
H           -6.04082200919466        6.17218231318960        2.64086432731619
H           -3.82787708740584        5.27332975008506        3.59139163555565
H           -3.11316032981320        3.81746672179022        2.89319653914660
H           -4.59056360667966        3.70722459726594        3.84936241390997
H           -4.64419103698772        5.68382497844575        0.01762878700622
H           -3.11968811134440        5.06029981895655        0.67550634594030
H           -3.92694722199875        6.42148965810474        1.44441807537882
H           -4.18100935148517        3.57158038188507       -0.67971662388458
H           -4.65331394279742        1.38435685379840       -1.63868412361495
H           -3.05680595421341       -2.52014750849445       -2.27601686290824
H           -0.61732423415905       -2.30337212419780       -1.99812455744515
H            0.65796436869375       -1.27849398460348        2.07019226773788
H            3.09322451568603       -1.04989146119204        2.35171566756411
H            3.51728539191844        1.50276658381590        1.32298332498226
H            4.48790617439542        3.53931354620596        2.27335268916920
H            6.94826440138121        3.79603515479135        2.40732648852179
H            8.40368814468617        2.04387451166454        1.48730608350249
H            8.34983112965069       -0.67427491197189        2.72813630522248
H           10.57922220953445       -0.70999458260930        3.76300383077552
H           12.58989693291147       -0.30154500206600        2.38445121483586
H           12.34262908579864        0.13309613299420       -0.03413061001750
H           10.12038117987341        0.16446301524573       -1.06489604007872
H            7.57485091395075       -1.90156129408810       -2.02279822765041
H            7.57998681703423       -1.28832768772845       -4.38686700763774
H            7.69228872332497        1.08762085238206       -5.06198453650831
H            7.81560696243492        2.83963584445412       -3.32078650577635
H            7.80562902242615        2.22836090792153       -0.95414611540586
H            8.90055117246848       -2.68740501040316        0.37255134290385
H            7.86045746433827       -4.91247171106834        0.44414169394985
H            5.39129153707412       -5.11247974259952        0.40070394542150
H            3.99807914127937       -3.09902702571156        0.37022832867086
H            3.52950912977073       -0.42596885468412       -1.84573419921086
H            1.08945735633597       -0.63950760446488       -2.13364043604536
H           -1.25038902498546        0.02371833747207        1.53004038687897
H           -3.66015412130122       -0.22045732665226        1.27119955959895
H           -6.43013503370201       -4.90619343435549       -2.23701797404159
H           -8.20189120321545       -6.49916498693724       -2.95851164047423
H          -10.56851854976420       -5.79768242578364       -2.85211109601322
H          -11.17539028056618       -3.59106454195007       -2.07696592527554
H          -11.60302655862893       -1.75672935334546       -1.56670768416754
H          -12.14395889251700        0.50213724157428       -0.88328096442087
H          -10.35002406096162        2.06846477679028       -0.20486558445141
H           -8.02383987690720        1.31560688241958       -0.18304433598460
H           -6.65243597071082        0.22396216847000        1.94871946577368
H           -6.18773769580643        2.41377410870423        2.91838502319422

          :  Hamiltonian                  GFN2-xTB          :
         :: gradient norm              0.000032801444 Eh/a0 ::
         :: HOMO-LUMO gap              2.222801194280 eV    ::
         :: SCC energy              -168.741514711204 Eh    ::
         :: -> dispersion             -0.163935283388 Eh    ::
         :: -> Gsolv                  -0.066946446842 Eh    ::
         :: repulsion energy           3.089495683450 Eh    ::

    * Orbital Energies and Occupations

         #    Occupation            Energy/Eh            Energy/eV
      -------------------------------------------------------------
         1        2.0000           -0.6874396             -18.7062
       ...           ...                  ...                  ...
       143        2.0000           -0.4040466             -10.9947
       144        2.0000           -0.4034230             -10.9777
       145        2.0000           -0.4016655             -10.9299
       146        2.0000           -0.3999248             -10.8825
       147        2.0000           -0.3976057             -10.8194
       148        2.0000           -0.3963580             -10.7854
       149        2.0000           -0.3933740             -10.7043
       150        2.0000           -0.3916164             -10.6564
       151        2.0000           -0.3870526             -10.5322
       152        2.0000           -0.3824766             -10.4077
       153        2.0000           -0.3786390             -10.3033
       154        2.0000           -0.3642087              -9.9106
       155        2.0000           -0.3482181              -9.4755 (HOMO)
       156                         -0.2665316              -7.2527 (LUMO)
       157                         -0.2506862              -6.8215
       158                         -0.2485386              -6.7631
       159                         -0.2359769              -6.4213
       160                         -0.2350825              -6.3969
       161                         -0.2328936              -6.3374
       162                         -0.2283851              -6.2147
       163                         -0.2261401              -6.1536
       164                         -0.2259049              -6.1472
       165                         -0.2250985              -6.1252
       166                         -0.2235611              -6.0834
       ...                                ...                  ...
       307                          0.7253636              19.7381
      -------------------------------------------------------------
                  HL-Gap            0.0816865 Eh            2.2228 eV

     #   Z          covCN         q      C6AA      α(0)
     1   6 C        3.761    -0.107    22.589     6.775
     2   6 C        3.903     0.027    20.069     6.368
     3   6 C        3.761    -0.107    22.594     6.776
     4   6 C        3.761    -0.110    22.653     6.785
     5   6 C        2.972     0.013    27.710     8.635
     6   6 C        2.925    -0.036    28.901     8.816
     7   6 C        2.920    -0.041    29.024     8.835
     8   6 C        2.912     0.061    26.637     8.463
     9   7 N        2.840    -0.055    22.290     7.012
    10   6 C        3.191     0.136    24.574     8.085
    11   6 C        2.974    -0.002    28.081     8.692
    12   6 C        2.926    -0.029    28.730     8.790
    13   6 C        2.923    -0.033    28.815     8.803
    14   6 C        2.976     0.012    27.737     8.639
    15   6 C        2.976     0.012    27.747     8.640
    16   6 C        2.924    -0.034    28.835     8.806
    17   6 C        2.919    -0.038    28.946     8.823
    18   6 C        2.925     0.066    26.513     8.444
    19   7 N        2.753    -0.080    22.800     7.092
    20   6 C        2.931     0.060    26.657     8.467
    21   6 C        2.922    -0.059    29.465     8.902
    22   6 C        2.919    -0.035    28.863     8.810
    23   6 C        2.917    -0.046    29.146     8.853
    24   6 C        2.923    -0.037    28.916     8.818
    25   6 C        2.987    -0.011    28.272     8.722
    26   6 C        3.921     0.010    20.347     6.411
    27   6 C        2.977     0.015    27.684     8.631
    28   6 C        2.926    -0.032    28.795     8.800
    29   6 C        2.919    -0.031    28.782     8.798
    30   6 C        2.919    -0.034    28.838     8.806
    31   6 C        2.920    -0.032    28.789     8.799
    32   6 C        2.922    -0.037    28.914     8.818
    33   6 C        2.978     0.012    27.738     8.639
    34   6 C        2.924    -0.037    28.917     8.819
    35   6 C        2.920    -0.032    28.792     8.799
    36   6 C        2.919    -0.034    28.839     8.806
    37   6 C        2.919    -0.032    28.791     8.799
    38   6 C        2.924    -0.036    28.905     8.817
    39   6 C        2.986    -0.010    28.265     8.721
    40   6 C        2.923    -0.037    28.921     8.819
    41   6 C        2.917    -0.046    29.134     8.851
    42   6 C        2.919    -0.034    28.856     8.809
    43   6 C        2.922    -0.058    29.446     8.899
    44   6 C        2.933     0.061    26.643     8.465
    45   6 C        2.920    -0.038    28.945     8.823
    46   6 C        2.925    -0.032    28.805     8.802
    47   6 C        2.924    -0.034    28.846     8.808
    48   6 C        2.920    -0.036    28.895     8.815
    49   7 N        1.895    -0.321    29.177     8.008
    50   6 C        3.204     0.060    26.092     8.320
    51   6 C        2.985    -0.004    28.105     8.696
    52   6 C        2.921    -0.034    28.839     8.806
    53   6 C        2.917    -0.032    28.800     8.800
    54   6 C        2.917    -0.035    28.861     8.810
    55   6 C        2.921    -0.037    28.913     8.818
    56   6 C        2.979    -0.005    28.148     8.703
    57   6 C        2.979    -0.002    28.071     8.691
    58   6 C        2.922    -0.035    28.880     8.813
    59   6 C        2.916    -0.034    28.857     8.809
    60   6 C        2.917    -0.033    28.815     8.803
    61   6 C        2.919    -0.041    29.028     8.835
    62   6 C        2.978    -0.005    28.151     8.703
    63   6 C        3.075     0.023    27.421     8.586
    64   6 C        2.919    -0.040    29.004     8.832
    65   6 C        2.927    -0.033    28.825     8.805
    66   1 H        0.925     0.039     2.463     2.454
    67   1 H        0.925     0.035     2.521     2.483
    68   1 H        0.925     0.043     2.411     2.428
    69   1 H        0.925     0.043     2.411     2.428
    70   1 H        0.925     0.035     2.512     2.478
    71   1 H        0.925     0.039     2.462     2.454
    72   1 H        0.925     0.038     2.475     2.460
    73   1 H        0.925     0.039     2.468     2.457
    74   1 H        0.925     0.041     2.429     2.437
    75   1 H        0.926     0.052     2.291     2.367
    76   1 H        0.926     0.034     2.534     2.490
    77   1 H        0.926     0.046     2.371     2.408
    78   1 H        0.926     0.043     2.405     2.425
    79   1 H        0.926     0.044     2.392     2.419
    80   1 H        0.926     0.042     2.422     2.434
    81   1 H        0.926     0.028     2.616     2.529
    82   1 H        0.926     0.029     2.599     2.521
    83   1 H        0.926     0.026     2.642     2.542
    84   1 H        0.926     0.027     2.625     2.534
    85   1 H        0.926     0.027     2.636     2.539
    86   1 H        0.926     0.030     2.583     2.513
    87   1 H        0.926     0.030     2.584     2.514
    88   1 H        0.926     0.030     2.590     2.517
    89   1 H        0.926     0.029     2.601     2.522
    90   1 H        0.926     0.030     2.586     2.515
    91   1 H        0.926     0.030     2.589     2.516
    92   1 H        0.926     0.030     2.583     2.513
    93   1 H        0.926     0.030     2.587     2.515
    94   1 H        0.926     0.032     2.560     2.502
    95   1 H        0.926     0.027     2.626     2.534
    96   1 H        0.926     0.026     2.639     2.540
    97   1 H        0.926     0.029     2.599     2.521
    98   1 H        0.926     0.027     2.627     2.535
    99   1 H        0.926     0.042     2.417     2.431
   100   1 H        0.926     0.045     2.379     2.412
   101   1 H        0.926     0.041     2.430     2.438
   102   1 H        0.926     0.032     2.561     2.502
   103   1 H        0.926     0.043     2.412     2.429
   104   1 H        0.926     0.032     2.558     2.501
   105   1 H        0.926     0.031     2.566     2.505
   106   1 H        0.926     0.034     2.529     2.487
   107   1 H        0.926     0.036     2.500     2.473
   108   1 H        0.926     0.032     2.557     2.501
   109   1 H        0.926     0.032     2.563     2.503
   110   1 H        0.926     0.030     2.580     2.512
   111   1 H        0.926     0.037     2.493     2.469
   112   1 H        0.926     0.046     2.376     2.410

molecular dipole:
                 x           y           z       tot (Debye)
 q only:       -0.259       1.622       0.610
   full:       -0.473       1.842       0.717       5.167

 projected vibrational frequencies (cm⁻¹)
eigval :       -0.00    -0.00    -0.00     0.00     0.00     0.00
eigval :        6.37     7.01     9.95    15.99    17.08    19.84
eigval :       23.92    30.67    32.58    35.33    42.24    51.39
eigval :       55.55    61.23    62.90    69.14    72.54    74.43
eigval :       82.02    84.07    86.88    89.96    95.36   106.12
eigval :      128.53   132.59   145.26   163.21   168.10   172.56
eigval :      182.85   190.01   208.73   211.25   221.12   234.10
eigval :      235.29   237.96   243.55   254.75   260.23   266.53
eigval :      269.48   280.35   295.65   300.28   310.04   316.12
eigval :      318.94   341.58   353.93   361.58   365.93   370.67
eigval :      372.51   374.33   374.73   378.35   383.02   394.69
eigval :      397.90   400.87   410.28   419.92   423.64   433.96
eigval :      436.93   446.27   449.72   453.73   455.76   466.08
eigval :      474.33   481.09   496.76   509.14   512.90   516.76
eigval :      519.88   524.60   535.37   544.56   546.71   584.42
eigval :      587.93   588.76   590.94   595.64   600.22   603.06
eigval :      606.96   608.17   610.34   612.82   631.03   644.50
eigval :      654.95   664.10   668.50   672.34   673.66   675.02
eigval :      681.96   684.14   690.79   695.29   695.74   706.22
eigval :      714.40   723.78   735.27   755.06   755.61   756.78
eigval :      763.37   766.36   774.77   777.04   781.13   797.51
eigval :      806.63   820.85   833.02   863.98   867.25   867.44
eigval :      867.79   869.24   875.21   876.14   877.14   878.33
eigval :      882.39   894.28   900.36   900.62   904.36   908.74
eigval :      909.92   912.44   914.21   915.00   915.30   915.60
eigval :      918.92   920.30   922.59   922.86   923.81   924.83
eigval :      927.16   928.24   930.26   931.33   932.21   933.49
eigval :      933.69   939.56   944.69   959.31   959.86   962.60
eigval :      964.09   985.06   990.07   999.48  1009.56  1017.10
eigval :     1032.46  1034.49  1035.31  1072.63  1078.01  1085.79
eigval :     1085.91  1090.68  1104.97  1106.33  1107.18  1118.56
eigval :     1122.36  1126.97  1130.65  1131.88  1134.03  1139.74
eigval :     1142.36  1144.24  1151.72  1173.45  1178.57  1180.63
eigval :     1180.67  1180.74  1183.19  1183.55  1184.67  1185.04
eigval :     1197.43  1199.49  1202.13  1203.44  1210.37  1212.81
eigval :     1218.04  1221.06  1225.42  1231.66  1239.27  1253.06
eigval :     1256.05  1262.03  1265.11  1265.63  1269.40  1273.14
eigval :     1281.58  1283.55  1285.79  1286.68  1290.55  1305.07
eigval :     1307.01  1314.68  1315.60  1317.82  1318.38  1324.76
eigval :     1326.43  1331.91  1332.54  1336.30  1337.37  1348.18
eigval :     1376.58  1390.16  1396.93  1402.92  1405.56  1407.17
eigval :     1408.55  1419.50  1427.18  1429.52  1430.81  1431.46
eigval :     1434.74  1438.58  1439.72  1459.48  1467.95  1472.39
eigval :     1474.29  1483.80  1487.36  1488.14  1489.06  1494.83
eigval :     1499.04  1502.68  1510.30  1512.65  1514.41  1515.35
eigval :     1539.24  1554.68  1560.29  1564.84  1568.75  1569.02
eigval :     1570.87  1581.95  1585.17  1586.14  1587.31  1588.38
eigval :     1593.34  1596.68  1598.27  1598.80  1600.74  1602.04
eigval :     1603.22  3022.84  3023.27  3026.81  3027.29  3031.19
eigval :     3033.26  3038.84  3045.29  3048.70  3065.24  3066.00
eigval :     3067.88  3069.05  3069.29  3071.62  3072.72  3073.36
eigval :     3074.35  3075.17  3075.52  3077.39  3077.71  3079.50
eigval :     3080.55  3081.04  3081.43  3081.87  3083.05  3083.33
eigval :     3083.41  3087.36  3088.55  3089.68  3090.58  3092.41
eigval :     3093.44  3095.94  3096.21  3096.35  3096.73  3097.61
eigval :     3098.17  3099.16  3101.87  3108.91  3116.73  3122.37

   temp. (K)  partition function   enthalpy   heat capacity  entropy
                                   cal/mol     cal/K/mol   cal/K/mol   J/K/mol
 298.15  VIB  0.180E+27            31958.814    199.369    201.374
         ROT  0.274E+09              888.752      2.981     41.593
         INT  0.493E+35            32847.567    202.350    242.968
         TR   0.233E+29             1481.254      4.968     46.020
         TOT                       34328.8206   207.3178   288.9875  1209.1238

       T/K    H(0)-H(T)+PV         H(T)/Eh          T*S/Eh         G(T)/Eh
   ------------------------------------------------------------------------
    298.15    0.547065E-01    0.940619E+00    0.137307E+00    0.803312E+00
   ------------------------------------------------------------------------

         :::::::::::::::::::::::::::::::::::::::::::::::::::::
         ::                  THERMODYNAMIC                  ::
         :::::::::::::::::::::::::::::::::::::::::::::::::::::
         :: total free energy        -164.848707073381 Eh   ::
         ::.................................................::
         :: total energy             -165.652019029092 Eh   ::
         :: zero point energy           0.885912798087 Eh   ::
         :: G(RRHO) w/o ZPVE           -0.082600842376 Eh   ::
         :: G(RRHO) contrib.            0.803311955711 Eh   ::
         :::::::::::::::::::::::::::::::::::::::::::::::::::::

           -------------------------------------------------
          | TOTAL ENERGY             -165.652019029092 Eh   |
          | TOTAL ENTHALPY           -164.711399773093 Eh   |
          | TOTAL FREE ENERGY        -164.848707073381 Eh   |
          | GRADIENT NORM               0.000032803261 Eh/α |
          | HOMO-LUMO GAP               2.222802315948 eV   |
           -------------------------------------------------

 * finished run on 2025/08/21 at 15:22:45.800
