   * xtb version 6.7.1 (edcfbbe) compiled by 'albert@albert-system' on 2024-07-22

   ID    Z sym.   atoms
    1    8 O      1, 13
    2    6 C      2, 4-6, 8-12, 15-17, 19-22
    3    7 N      3, 14
    4   16 S      7, 18
    5    1 H      23-30

          program call               : xtb data2507/toluene/TPTI/TPTI_toluene_T1_crest.xyz --gfn 2 --uhf 2 --gbsa toluene --ohess vtight --parallel 40 --molden --ceasefiles --namespace data2507/toluene/TPTI/TPTI_toluene_T1_finalOpt
      * Solvation model:               GBSA
        Solvent                        toluene
        Solvent mass                       9.2140E+01 g/mol
          :  Hamiltonian                  GFN2-xTB          :
 * total energy  :   -58.8278019 Eh     change       -0.2494254E-08 Eh
 * total energy  :   -58.8278435 Eh     change       -0.4160690E-04 Eh
 * total energy  :   -58.8278524 Eh     change       -0.8877332E-05 Eh
 * total energy  :   -58.8278530 Eh     change       -0.6319895E-06 Eh
 * total energy  :   -58.8278533 Eh     change       -0.2496951E-06 Eh
 * total energy  :   -58.8278535 Eh     change       -0.2687306E-06 Eh
 * total energy  :   -58.8278538 Eh     change       -0.2389596E-06 Eh
 * total energy  :   -58.8278540 Eh     change       -0.2228149E-06 Eh
 * total energy  :   -58.8278542 Eh     change       -0.1876359E-06 Eh
 * total energy  :   -58.8278543 Eh     change       -0.1283145E-06 Eh
 * total energy  :   -58.8278544 Eh     change       -0.5151700E-07 Eh
   *** GEOMETRY OPTIMIZATION CONVERGED AFTER 11 ITERATIONS ***

 final structure:
================
30
 xtb: 6.7.1 (edcfbbe)
O            1.33455642259540        3.46366663667393        0.01124362431806
C            1.73424582544330        2.30805143303189        0.00695351660249
N            3.08315960808130        2.05363831052289        0.00100695821142
C            3.64244752944847        0.80556908908415       -0.00324895977008
C            4.99619789747688        0.47197518183722       -0.01061666727273
C            5.19710510482082       -0.88444825842914       -0.01285301004890
S            3.72459850683456       -1.80170396598591       -0.00564442939542
C            2.78290662943826       -0.33168067112962        0.00006987178244
C            1.40692302546619       -0.19952329183115        0.00524326176820
C            0.50311523920672       -1.30949687208595        0.00736821092975
C           -0.85046976107385       -1.12604700032722        0.00715756534045
C           -1.73425174303363       -2.30806452541043        0.00725182492403
O           -1.33456112640761       -3.46367870085859        0.01166524080095
N           -3.08316588917035       -2.05365042519087        0.00132084126572
C           -3.64245113842628       -0.80558495189471       -0.00279298113840
C           -4.99620575555265       -0.47199079544387       -0.01011374994885
C           -5.19711097050553        0.88442982822765       -0.01215867218258
S           -3.72460913190501        1.80168458730311       -0.00483142102767
C           -2.78291674826637        0.33166774650823        0.00064083417951
C           -1.40693049210199        0.19951136892403        0.00562058254730
C           -0.50312247277444        1.30948335044131        0.00765148832176
C            0.85046241046671        1.12603548625771        0.00702969501465
H            3.69311005382646        2.86362099050823       -0.00005962495241
H            5.79654491365088        1.18932133307231       -0.01436111162568
H            6.13203714727946       -1.40685428818854       -0.01836422504496
H            0.90340324665648       -2.31230062423772        0.00812531436880
H           -3.69311790072182       -2.86363309435254        0.00032939895324
H           -5.79655055402680       -1.18933886794136       -0.01396990928845
H           -6.13204397983823        1.40683701856342       -0.01760557433583
H           -0.90341058438735        2.31228731665155        0.00862933050321

          :  Hamiltonian                  GFN2-xTB          :
         :: gradient norm              0.000041537370 Eh/a0 ::
         :: HOMO-LUMO gap              0.213727504998 eV    ::
         :: SCC energy               -59.657814344521 Eh    ::
         :: -> dispersion             -0.042341183607 Eh    ::
         :: -> Gsolv                  -0.029248596502 Eh    ::
         :: repulsion energy           0.829959961685 Eh    ::

    * Orbital Energies and Occupations

         #    Occupation            Energy/Eh            Energy/eV
      -------------------------------------------------------------
         1        2.0000           -0.7410541             -20.1651
       ...           ...                  ...                  ...
        42        2.0000           -0.4702037             -12.7949
        43        2.0000           -0.4679614             -12.7339
        44        2.0000           -0.4604395             -12.5292
        45        2.0000           -0.4538582             -12.3501
        46        2.0000           -0.4469276             -12.1615
        47        2.0000           -0.4357013             -11.8560
        48        2.0000           -0.4215942             -11.4722
        49        2.0000           -0.4159878             -11.3196
        50        2.0000           -0.4137996             -11.2601
        51        2.0000           -0.4010617             -10.9134
        52        2.0000           -0.3966859             -10.7944
        53        1.0000           -0.3735449             -10.1647
        54        0.9842           -0.2970817              -8.0840 (HOMO)
        55        0.0158           -0.2892275              -7.8703 (LUMO)
        56                         -0.2628307              -7.1520
        57                         -0.2321626              -6.3175
        58                         -0.2196665              -5.9774
        59                         -0.2171307              -5.9084
        60                         -0.2168689              -5.9013
        61                         -0.1939585              -5.2779
        62                         -0.1822235              -4.9586
        63                         -0.1378351              -3.7507
        64                         -0.1344740              -3.6592
        65                         -0.1323241              -3.6007
       ...                                ...                  ...
       106                          0.7140535              19.4304
      -------------------------------------------------------------
                  HL-Gap            0.0078543 Eh            0.2137 eV

     #   Z          covCN         q      C6AA      α(0)
     1   8 O        0.859    -0.457    22.855     6.410
     2   6 C        2.765     0.267    22.494     7.767
     3   7 N        2.694    -0.128    23.776     7.242
     4   6 C        3.075     0.053    26.733     8.477
     5   6 C        3.050    -0.062    29.490     8.906
     6   6 C        2.943    -0.016    28.400     8.740
     7  16 S        2.228    -0.024   142.052    20.060
     8   6 C        2.992     0.013    27.713     8.635
     9   6 C        2.990     0.004    27.918     8.667
    10   6 C        2.917    -0.026    28.650     8.777
    11   6 C        2.973    -0.020    28.514     8.759
    12   6 C        2.765     0.267    22.494     7.767
    13   8 O        0.859    -0.457    22.855     6.410
    14   7 N        2.694    -0.128    23.776     7.242
    15   6 C        3.075     0.053    26.733     8.477
    16   6 C        3.050    -0.062    29.490     8.906
    17   6 C        2.943    -0.016    28.400     8.740
    18  16 S        2.228    -0.024   142.052    20.060
    19   6 C        2.992     0.013    27.713     8.635
    20   6 C        2.990     0.004    27.918     8.667
    21   6 C        2.917    -0.026    28.650     8.777
    22   6 C        2.973    -0.020    28.514     8.759
    23   1 H        0.860     0.199     1.110     1.650
    24   1 H        0.926     0.060     2.196     2.317
    25   1 H        0.926     0.069     2.098     2.265
    26   1 H        0.926     0.067     2.115     2.274
    27   1 H        0.860     0.199     1.110     1.650
    28   1 H        0.926     0.060     2.196     2.317
    29   1 H        0.926     0.069     2.098     2.265
    30   1 H        0.926     0.067     2.115     2.274

molecular dipole:
                 x           y           z       tot (Debye)
 q only:       -0.000       0.000      -0.017
   full:       -0.000      -0.000      -0.018       0.047

 projected vibrational frequencies (cm⁻¹)
eigval :       -0.00    -0.00    -0.00    -0.00    -0.00    -0.00
eigval :       25.90    57.11    80.56   100.02   102.01   116.88
eigval :      162.77   165.78   184.64   251.03   253.89   283.92
eigval :      306.32   324.01   345.62   371.72   395.05   411.85
eigval :      412.30   418.73   457.99   465.61   489.90   568.08
eigval :      568.77   573.90   582.79   607.87   613.23   632.23
eigval :      639.59   640.94   657.17   659.11   687.86   688.11
eigval :      701.89   703.13   710.59   718.45   803.71   809.01
eigval :      811.32   811.52   830.03   837.47   861.96   950.12
eigval :     1008.57  1022.78  1058.81  1069.02  1069.04  1088.56
eigval :     1165.78  1170.59  1183.85  1204.16  1210.85  1241.41
eigval :     1269.27  1277.72  1282.81  1283.95  1344.36  1355.35
eigval :     1407.71  1407.75  1436.44  1460.39  1485.35  1492.16
eigval :     1494.79  1531.31  1644.04  1651.83  3093.71  3094.06
eigval :     3136.07  3136.14  3172.76  3172.80  3379.08  3379.82

   temp. (K)  partition function   enthalpy   heat capacity  entropy
                                   cal/mol     cal/K/mol   cal/K/mol   J/K/mol
 298.15  VIB  0.443E+06             9187.583     62.771     54.249
         ROT  0.449E+07              888.752      2.981     33.422
         INT  0.199E+13            10076.335     65.752     87.671
         TR   0.565E+28             1481.254      4.968     43.206
         TOT                       11557.5888    70.7198   130.8771   547.5898

       T/K    H(0)-H(T)+PV         H(T)/Eh          T*S/Eh         G(T)/Eh
   ------------------------------------------------------------------------
    298.15    0.184182E-01    0.213738E+00    0.621839E-01    0.151554E+00
   ------------------------------------------------------------------------

         :::::::::::::::::::::::::::::::::::::::::::::::::::::
         ::                  THERMODYNAMIC                  ::
         :::::::::::::::::::::::::::::::::::::::::::::::::::::
         :: total free energy         -58.676300215272 Eh   ::
         ::.................................................::
         :: total energy              -58.827854378869 Eh   ::
         :: zero point energy           0.195319902754 Eh   ::
         :: G(RRHO) w/o ZPVE           -0.043765739157 Eh   ::
         :: G(RRHO) contrib.            0.151554163597 Eh   ::
         :::::::::::::::::::::::::::::::::::::::::::::::::::::

           -------------------------------------------------
          | TOTAL ENERGY              -58.827854378869 Eh   |
          | TOTAL ENTHALPY            -58.614116285957 Eh   |
          | TOTAL FREE ENERGY         -58.676300215272 Eh   |
          | GRADIENT NORM               0.000041743185 Eh/α |
          | HOMO-LUMO GAP               0.213725664157 eV   |
           -------------------------------------------------

 * finished run on 2025/09/02 at 22:26:28.591
