   * xtb version 6.7.1 (edcfbbe) compiled by 'albert@albert-system' on 2024-07-22

   ID    Z sym.   atoms
    1    8 O      1, 13
    2    6 C      2, 4-6, 8-12, 15-17, 19-22
    3    7 N      3, 14
    4   16 S      7, 18
    5    1 H      23-30

          program call               : xtb data2507/toluene/TPTI/TPTI_toluene_S0_finalOpt.xtbopt.xyz --gfn 2 --uhf 2 --gbsa toluene --ohess vtight --parallel 40 --molden --ceasefiles --namespace data2507/toluene/TPTI/TPTI_toluene_T1_preOpt
      * Solvation model:               GBSA
        Solvent                        toluene
        Solvent mass                       9.2140E+01 g/mol
          :  Hamiltonian                  GFN2-xTB          :
 * total energy  :   -58.8217032 Eh     change       -0.1059667E-07 Eh
 * total energy  :   -58.8258463 Eh     change       -0.4143080E-02 Eh
 * total energy  :   -58.8272612 Eh     change       -0.1414880E-02 Eh
 * total energy  :   -58.8275084 Eh     change       -0.2471889E-03 Eh
 * total energy  :   -58.8277254 Eh     change       -0.2169842E-03 Eh
 * total energy  :   -58.8278213 Eh     change       -0.9593310E-04 Eh
 * total energy  :   -58.8278501 Eh     change       -0.2881094E-04 Eh
 * total energy  :   -58.8278568 Eh     change       -0.6666971E-05 Eh
 * total energy  :   -58.8278578 Eh     change       -0.1061451E-05 Eh
 * total energy  :   -58.8278580 Eh     change       -0.1722061E-06 Eh
 * total energy  :   -58.8278579 Eh     change        0.8287424E-07 Eh
 * total energy  :   -58.8278580 Eh     change       -0.1209396E-06 Eh
 * total energy  :   -58.8278580 Eh     change        0.5570278E-07 Eh
 * total energy  :   -58.8278581 Eh     change       -0.6651239E-07 Eh
   *** GEOMETRY OPTIMIZATION CONVERGED AFTER 14 ITERATIONS ***

 final structure:
================
30
 xtb: 6.7.1 (edcfbbe)
O            1.32198618182435        3.46848558483480       -0.00476472895790
C            1.72586155375737        2.31432133479070       -0.00284183040920
N            3.07570951191100        2.06481278444649       -0.00072962998243
C            3.63954283149164        0.81880302987580        0.00121856753624
C            4.99451096300566        0.49009863743315        0.00399873652003
C            5.20031936533837       -0.86558825202801        0.00519689725956
S            3.73113476965590       -1.78816859833499        0.00279362101330
C            2.78412168403286       -0.32156156299986        0.00030490732999
C            1.40765585311094       -0.19440726145727       -0.00165295827415
C            0.50791169481180       -1.30768377294498       -0.00245322784893
C           -0.84633362542028       -1.12913626617779       -0.00248674294723
C           -1.72582864120230       -2.31435582492090       -0.00289518232930
O           -1.32195160793367       -3.46851947491341       -0.00472842964564
N           -3.07567696561819       -2.06484985125042       -0.00091206326981
C           -3.63951539146510       -0.81883469789422        0.00093364554120
C           -4.99448233734230       -0.49013059902366        0.00358066106785
C           -5.20029558394217        0.86555990080831        0.00470540464009
S           -3.73110954969368        1.78814279602020        0.00240130353822
C           -2.78409272092038        0.32153096304014        0.00005145448024
C           -1.40762634996100        0.19437552667644       -0.00178040980602
C           -0.50788072088335        1.30765323719386       -0.00254884238514
C            0.84636487548644        1.12910326533681       -0.00245990539629
H            3.68262253167489        2.87706823930757       -0.00072034776184
H            5.79231547365349        1.21029417770790        0.00515595420990
H            6.13717061750947       -1.38456837207608        0.00737767809179
H            0.91183707333711       -2.30903074454877       -0.00278413376884
H           -3.68258961373351       -2.87710474432062       -0.00091533269413
H           -5.79228513823690       -1.21032676983359        0.00469677594170
H           -6.13714734317653        1.38453735051822        0.00678305951071
H           -0.91180625807169        2.30900006852042       -0.00294743081313

          :  Hamiltonian                  GFN2-xTB          :
         :: gradient norm              0.000030151278 Eh/a0 ::
         :: HOMO-LUMO gap              0.213732870827 eV    ::
         :: SCC energy               -59.657810598956 Eh    ::
         :: -> dispersion             -0.042341183102 Eh    ::
         :: -> Gsolv                  -0.029251108069 Eh    ::
         :: repulsion energy           0.829952533589 Eh    ::

    * Orbital Energies and Occupations

         #    Occupation            Energy/Eh            Energy/eV
      -------------------------------------------------------------
         1        2.0000           -0.7410536             -20.1651
       ...           ...                  ...                  ...
        42        2.0000           -0.4702040             -12.7949
        43        2.0000           -0.4679597             -12.7338
        44        2.0000           -0.4604398             -12.5292
        45        2.0000           -0.4538581             -12.3501
        46        2.0000           -0.4469292             -12.1616
        47        2.0000           -0.4356999             -11.8560
        48        2.0000           -0.4215940             -11.4722
        49        2.0000           -0.4159865             -11.3196
        50        2.0000           -0.4137991             -11.2600
        51        2.0000           -0.4010612             -10.9134
        52        2.0000           -0.3966850             -10.7943
        53        1.0000           -0.3735438             -10.1646
        54        0.9842           -0.2970812              -8.0840 (HOMO)
        55        0.0158           -0.2892267              -7.8703 (LUMO)
        56                         -0.2628308              -7.1520
        57                         -0.2321633              -6.3175
        58                         -0.2196668              -5.9774
        59                         -0.2171276              -5.9083
        60                         -0.2168718              -5.9014
        61                         -0.1939599              -5.2779
        62                         -0.1822231              -4.9585
        63                         -0.1378339              -3.7507
        64                         -0.1344746              -3.6592
        65                         -0.1323236              -3.6007
       ...                                ...                  ...
       106                          0.7140503              19.4303
      -------------------------------------------------------------
                  HL-Gap            0.0078545 Eh            0.2137 eV

     #   Z          covCN         q      C6AA      α(0)
     1   8 O        0.859    -0.457    22.855     6.410
     2   6 C        2.765     0.267    22.494     7.767
     3   7 N        2.694    -0.128    23.776     7.242
     4   6 C        3.075     0.053    26.733     8.477
     5   6 C        3.050    -0.062    29.490     8.906
     6   6 C        2.943    -0.016    28.400     8.740
     7  16 S        2.228    -0.024   142.052    20.060
     8   6 C        2.992     0.013    27.713     8.635
     9   6 C        2.990     0.004    27.918     8.667
    10   6 C        2.917    -0.026    28.651     8.777
    11   6 C        2.973    -0.020    28.514     8.759
    12   6 C        2.765     0.267    22.494     7.767
    13   8 O        0.859    -0.457    22.855     6.410
    14   7 N        2.694    -0.128    23.776     7.242
    15   6 C        3.075     0.053    26.733     8.477
    16   6 C        3.050    -0.062    29.490     8.906
    17   6 C        2.943    -0.016    28.400     8.740
    18  16 S        2.228    -0.024   142.052    20.060
    19   6 C        2.992     0.013    27.713     8.635
    20   6 C        2.990     0.004    27.918     8.667
    21   6 C        2.917    -0.026    28.651     8.777
    22   6 C        2.973    -0.020    28.514     8.759
    23   1 H        0.860     0.199     1.110     1.650
    24   1 H        0.926     0.060     2.196     2.317
    25   1 H        0.926     0.069     2.098     2.265
    26   1 H        0.926     0.067     2.115     2.274
    27   1 H        0.860     0.199     1.110     1.650
    28   1 H        0.926     0.060     2.196     2.317
    29   1 H        0.926     0.069     2.098     2.265
    30   1 H        0.926     0.067     2.115     2.274

molecular dipole:
                 x           y           z       tot (Debye)
 q only:        0.000       0.000       0.007
   full:        0.000       0.000       0.007       0.017

 projected vibrational frequencies (cm⁻¹)
eigval :       -0.00    -0.00    -0.00     0.00     0.00     0.00
eigval :       25.55    56.85    80.48   100.29   101.75   116.70
eigval :      162.59   165.39   184.57   251.22   253.88   284.09
eigval :      306.15   324.03   345.52   371.80   395.02   411.85
eigval :      412.29   418.62   457.98   465.59   489.85   568.02
eigval :      568.69   573.69   582.55   607.79   613.21   632.19
eigval :      639.50   640.82   656.96   659.07   687.05   687.27
eigval :      701.96   703.21   710.55   718.36   803.43   808.76
eigval :      811.34   811.56   829.91   837.36   861.91   950.06
eigval :     1008.42  1022.55  1057.78  1066.62  1067.51  1088.27
eigval :     1163.95  1168.62  1183.67  1204.13  1210.61  1241.14
eigval :     1269.19  1277.61  1282.28  1283.49  1344.27  1355.12
eigval :     1406.95  1407.15  1436.36  1460.36  1485.26  1492.14
eigval :     1494.72  1531.27  1644.06  1651.85  3093.61  3093.96
eigval :     3135.60  3135.65  3172.72  3172.76  3379.02  3379.76

   temp. (K)  partition function   enthalpy   heat capacity  entropy
                                   cal/mol     cal/K/mol   cal/K/mol   J/K/mol
 298.15  VIB  0.453E+06             9190.944     62.781     54.278
         ROT  0.449E+07              888.752      2.981     33.422
         INT  0.203E+13            10079.696     65.762     87.699
         TR   0.565E+28             1481.254      4.968     43.206
         TOT                       11560.9502    70.7297   130.9051   547.7071

       T/K    H(0)-H(T)+PV         H(T)/Eh          T*S/Eh         G(T)/Eh
   ------------------------------------------------------------------------
    298.15    0.184235E-01    0.213698E+00    0.621973E-01    0.151501E+00
   ------------------------------------------------------------------------

         :::::::::::::::::::::::::::::::::::::::::::::::::::::
         ::                  THERMODYNAMIC                  ::
         :::::::::::::::::::::::::::::::::::::::::::::::::::::
         :: total free energy         -58.676356969082 Eh   ::
         ::.................................................::
         :: total energy              -58.827858061107 Eh   ::
         :: zero point energy           0.195274804923 Eh   ::
         :: G(RRHO) w/o ZPVE           -0.043773712898 Eh   ::
         :: G(RRHO) contrib.            0.151501092025 Eh   ::
         :::::::::::::::::::::::::::::::::::::::::::::::::::::

           -------------------------------------------------
          | TOTAL ENERGY              -58.827858061107 Eh   |
          | TOTAL ENTHALPY            -58.614159709305 Eh   |
          | TOTAL FREE ENERGY         -58.676356969082 Eh   |
          | GRADIENT NORM               0.000030243056 Eh/α |
          | HOMO-LUMO GAP               0.213732454013 eV   |
           -------------------------------------------------

 * finished run on 2025/09/02 at 22:25:24.347
