   * xtb version 6.7.1 (edcfbbe) compiled by 'albert@albert-system' on 2024-07-22

   ID    Z sym.   atoms
    1    8 O      1, 13
    2    6 C      2, 4-6, 8-12, 15-17, 19-22
    3    7 N      3, 14
    4   16 S      7, 18
    5    1 H      23-30

          program call               : xtb data2507/toluene/TPTI/TPTI.xyz --gfn 2 --gbsa toluene --ohess vtight --parallel 40 --molden --ceasefiles --namespace data2507/toluene/TPTI/TPTI_toluene_S0_preOpt
      * Solvation model:               GBSA
        Solvent                        toluene
        Solvent mass                       9.2140E+01 g/mol
          :  Hamiltonian                  GFN2-xTB          :
 * total energy  :   -58.9032733 Eh     change       -0.3067129E-09 Eh
 * total energy  :   -58.9092610 Eh     change       -0.5987756E-02 Eh
 * total energy  :   -58.9108311 Eh     change       -0.1570024E-02 Eh
 * total energy  :   -58.9108903 Eh     change       -0.5927694E-04 Eh
 * total energy  :   -58.9109074 Eh     change       -0.1707067E-04 Eh
 * total energy  :   -58.9109084 Eh     change       -0.9787318E-06 Eh
 * total energy  :   -58.9109085 Eh     change       -0.9656264E-07 Eh
   *** GEOMETRY OPTIMIZATION CONVERGED AFTER 7 ITERATIONS ***

 final structure:
================
30
 xtb: 6.7.1 (edcfbbe)
O            1.65735911644909        3.29740028085567        0.00000071621522
C            1.94769899449313        2.10932478864124        0.00000031713302
N            3.26288967327195        1.72234446375974        0.00000003343345
C            3.68668420739241        0.41766978759399       -0.00000014034495
C            5.02541451719729       -0.03876791288879       -0.00000054895661
C            5.09252113034918       -1.39548507746864       -0.00000068351091
S            3.54810733177853       -2.15486742830363       -0.00000012453055
C            2.76069976567582       -0.61154473998315        0.00000008283796
C            1.36298558698656       -0.34434045857183        0.00000034047792
C            0.38610538636345       -1.33722611005626        0.00000051705351
C           -0.96180952655072       -1.01596857489329        0.00000026802567
C           -1.94769885512485       -2.10932471973061        0.00000015642621
O           -1.65735896305752       -3.29740020833904        0.00000022907419
N           -3.26288953169750       -1.72234440032502        0.00000051590500
C           -3.68668406767536       -0.41766972253669        0.00000013275792
C           -5.02541438044787        0.03876796754431       -0.00000003816153
C           -5.09252100233290        1.39548513249505       -0.00000058702837
S           -3.54810721242251        2.15486749254579       -0.00000051246501
C           -2.76069963386781        0.61154481300834       -0.00000004725800
C           -1.36298545320351        0.34434053602610        0.00000003794502
C           -0.38610525300618        1.33722618685429        0.00000019352168
C            0.96180966118803        1.01596865179126        0.00000022766855
H            3.95306233499621        2.46392852451831        0.00000007258356
H            5.88240922427503        0.60944767807318       -0.00000084780832
H            5.97237714056603       -2.00760157067855       -0.00000094544832
H            0.66939977644432       -2.37982395518854        0.00000064549915
H           -3.95306221496586       -2.46392844008836        0.00000062529040
H           -5.88240908582987       -0.60944762495834        0.00000004233083
H           -5.97237702441003        2.00760160859953       -0.00000090200542
H           -0.66939964283452        2.37982403170393        0.00000022333873

          :  Hamiltonian                  GFN2-xTB          :
         :: gradient norm              0.000071268802 Eh/a0 ::
         :: HOMO-LUMO gap              2.389755810567 eV    ::
         :: SCC energy               -59.756162221939 Eh    ::
         :: -> dispersion             -0.042443948618 Eh    ::
         :: -> Gsolv                  -0.030485459705 Eh    ::
         :: repulsion energy           0.845253742831 Eh    ::

    * Orbital Energies and Occupations

         #    Occupation            Energy/Eh            Energy/eV
      -------------------------------------------------------------
         1        2.0000           -0.7446826             -20.2638
       ...           ...                  ...                  ...
        41        2.0000           -0.4710097             -12.8168
        42        2.0000           -0.4676100             -12.7243
        43        2.0000           -0.4653784             -12.6636
        44        2.0000           -0.4601597             -12.5216
        45        2.0000           -0.4559541             -12.4071
        46        2.0000           -0.4458364             -12.1318
        47        2.0000           -0.4325476             -11.7702
        48        2.0000           -0.4154776             -11.3057
        49        2.0000           -0.4152806             -11.3004
        50        2.0000           -0.4097749             -11.1505
        51        2.0000           -0.4024991             -10.9526
        52        2.0000           -0.3958492             -10.7716
        53        2.0000           -0.3788975             -10.3103 (HOMO)
        54                         -0.2910756              -7.9206 (LUMO)
        55                         -0.2891175              -7.8673
        56                         -0.2585335              -7.0351
        57                         -0.2283997              -6.2151
        58                         -0.2180040              -5.9322
        59                         -0.2173451              -5.9143
        60                         -0.2157233              -5.8701
        61                         -0.1933992              -5.2627
        62                         -0.1809694              -4.9244
        63                         -0.1356111              -3.6902
        64                         -0.1339453              -3.6448
       ...                                ...                  ...
       106                          0.7018002              19.0970
      -------------------------------------------------------------
                  HL-Gap            0.0878219 Eh            2.3898 eV

     #   Z          covCN         q      C6AA      α(0)
     1   8 O        0.859    -0.476    23.257     6.466
     2   6 C        2.765     0.267    22.486     7.766
     3   7 N        2.697    -0.138    23.999     7.276
     4   6 C        3.110     0.055    26.614     8.452
     5   6 C        3.081    -0.063    29.478     8.901
     6   6 C        2.947    -0.015    28.384     8.738
     7  16 S        2.283     0.010   140.652    19.961
     8   6 C        3.002    -0.005    28.129     8.700
     9   6 C        2.991     0.013    27.720     8.637
    10   6 C        2.923    -0.025    28.634     8.775
    11   6 C        2.982    -0.022    28.540     8.763
    12   6 C        2.765     0.267    22.486     7.766
    13   8 O        0.859    -0.476    23.257     6.466
    14   7 N        2.697    -0.138    23.999     7.276
    15   6 C        3.110     0.055    26.614     8.452
    16   6 C        3.081    -0.063    29.478     8.901
    17   6 C        2.947    -0.015    28.384     8.738
    18  16 S        2.283     0.010   140.652    19.961
    19   6 C        3.002    -0.005    28.129     8.700
    20   6 C        2.991     0.013    27.720     8.637
    21   6 C        2.923    -0.025    28.634     8.775
    22   6 C        2.982    -0.022    28.540     8.763
    23   1 H        0.860     0.196     1.125     1.661
    24   1 H        0.926     0.061     2.188     2.313
    25   1 H        0.926     0.073     2.058     2.243
    26   1 H        0.926     0.069     2.098     2.265
    27   1 H        0.860     0.196     1.125     1.661
    28   1 H        0.926     0.061     2.188     2.313
    29   1 H        0.926     0.073     2.058     2.243
    30   1 H        0.926     0.069     2.098     2.265

molecular dipole:
                 x           y           z       tot (Debye)
 q only:       -0.000       0.000      -0.000
   full:       -0.000       0.000      -0.000       0.000

 projected vibrational frequencies (cm⁻¹)
eigval :       -0.00    -0.00    -0.00    -0.00     0.00     0.00
eigval :       29.60    54.16    82.64   100.90   102.76   119.75
eigval :      165.15   190.16   201.37   257.61   273.18   303.85
eigval :      305.36   352.15   364.10   392.08   406.17   420.29
eigval :      426.58   465.98   472.69   474.17   536.90   570.38
eigval :      590.16   599.79   602.28   627.70   628.07   639.37
eigval :      658.82   659.02   664.39   665.15   713.78   728.13
eigval :      731.34   747.17   754.65   754.78   818.29   818.42
eigval :      836.81   837.35   874.73   879.20   891.50   971.96
eigval :     1042.06  1042.57  1088.63  1092.04  1100.56  1116.37
eigval :     1170.52  1171.77  1211.76  1219.52  1258.10  1260.62
eigval :     1281.93  1284.13  1353.73  1356.27  1385.29  1428.27
eigval :     1443.04  1463.75  1470.99  1494.99  1506.32  1541.15
eigval :     1545.92  1580.11  1660.97  1669.60  3090.24  3090.56
eigval :     3138.12  3138.15  3167.02  3167.07  3392.86  3393.58

   temp. (K)  partition function   enthalpy   heat capacity  entropy
                                   cal/mol     cal/K/mol   cal/K/mol   J/K/mol
 298.15  VIB  0.238E+06             8807.660     60.669     51.876
         ROT  0.447E+07              888.752      2.981     33.411
         INT  0.106E+13             9696.412     63.650     85.287
         TR   0.565E+28             1481.254      4.968     43.206
         TOT                       11177.6662    68.6179   128.4927   537.6134

       T/K    H(0)-H(T)+PV         H(T)/Eh          T*S/Eh         G(T)/Eh
   ------------------------------------------------------------------------
    298.15    0.178127E-01    0.217333E+00    0.610510E-01    0.156282E+00
   ------------------------------------------------------------------------

         :::::::::::::::::::::::::::::::::::::::::::::::::::::
         ::                  THERMODYNAMIC                  ::
         :::::::::::::::::::::::::::::::::::::::::::::::::::::
         :: total free energy         -58.754626221841 Eh   ::
         ::.................................................::
         :: total energy              -58.910908481095 Eh   ::
         :: zero point energy           0.199520534173 Eh   ::
         :: G(RRHO) w/o ZPVE           -0.043238274919 Eh   ::
         :: G(RRHO) contrib.            0.156282259254 Eh   ::
         :::::::::::::::::::::::::::::::::::::::::::::::::::::

           -------------------------------------------------
          | TOTAL ENERGY              -58.910908481095 Eh   |
          | TOTAL ENTHALPY            -58.693575202004 Eh   |
          | TOTAL FREE ENERGY         -58.754626221841 Eh   |
          | GRADIENT NORM               0.000071236040 Eh/α |
          | HOMO-LUMO GAP               2.389756298837 eV   |
           -------------------------------------------------

 * finished run on 2025/09/02 at 22:24:23.263
