   * xtb version 6.7.1 (edcfbbe) compiled by 'albert@albert-system' on 2024-07-22

   ID    Z sym.   atoms
    1    8 O      1, 13
    2    6 C      2, 4-6, 8-12, 15-17, 19-22
    3    7 N      3, 14
    4   16 S      7, 18
    5    1 H      23-30

          program call               : xtb data2507/toluene/TPTI/TPTI_toluene_S0_crest.xyz --gfn 2 --gbsa toluene --ohess vtight --parallel 40 --molden --ceasefiles --namespace data2507/toluene/TPTI/TPTI_toluene_S0_finalOpt
      * Solvation model:               GBSA
        Solvent                        toluene
        Solvent mass                       9.2140E+01 g/mol
          :  Hamiltonian                  GFN2-xTB          :
 * total energy  :   -58.9108514 Eh     change       -0.6613448E-09 Eh
 * total energy  :   -58.9108949 Eh     change       -0.4350696E-04 Eh
 * total energy  :   -58.9109053 Eh     change       -0.1034338E-04 Eh
 * total energy  :   -58.9109064 Eh     change       -0.1122100E-05 Eh
 * total energy  :   -58.9109071 Eh     change       -0.7371807E-06 Eh
 * total energy  :   -58.9109079 Eh     change       -0.8065821E-06 Eh
 * total energy  :   -58.9109087 Eh     change       -0.7419292E-06 Eh
 * total energy  :   -58.9109093 Eh     change       -0.5817504E-06 Eh
 * total energy  :   -58.9109096 Eh     change       -0.3365095E-06 Eh
 * total energy  :   -58.9109098 Eh     change       -0.1821260E-06 Eh
 * total energy  :   -58.9109099 Eh     change       -0.1228522E-06 Eh
 * total energy  :   -58.9109100 Eh     change       -0.1211757E-06 Eh
 * total energy  :   -58.9109102 Eh     change       -0.1292449E-06 Eh
 * total energy  :   -58.9109103 Eh     change       -0.1386986E-06 Eh
 * total energy  :   -58.9109104 Eh     change       -0.1196440E-06 Eh
 * total energy  :   -58.9109105 Eh     change       -0.7932988E-07 Eh
   *** GEOMETRY OPTIMIZATION CONVERGED AFTER 16 ITERATIONS ***

 final structure:
================
30
 xtb: 6.7.1 (edcfbbe)
O            1.30783516068819        3.45083040585864       -0.00662901929110
C            1.71939000907470        2.29911088476639       -0.00431036871550
N            3.06748522025210        2.05001397312727       -0.00156836806576
C            3.62381651549723        0.79616075360956        0.00113503865251
C            5.00262829312603        0.48087870676179        0.00567181220731
C            5.20983775013412       -0.86151801739630        0.00759909864018
S            3.75248640219635       -1.77695432494378        0.00378257343452
C            2.80934859118166       -0.32338341845710       -0.00035365798966
C            1.39144160130840       -0.20193250537594       -0.00314107750822
C            0.52205287292523       -1.29017458503106       -0.00406887776313
C           -0.85184390790462       -1.10971961461805       -0.00404943313060
C           -1.71935735506202       -2.29914050401765       -0.00434979581509
O           -1.30779987193344       -3.45085891409007       -0.00667217325218
N           -3.06745268112946       -2.05004514207740       -0.00155274871347
C           -3.62378536520875       -0.79619287102489        0.00098251346794
C           -5.00259902727326       -0.48091523755486        0.00514809481806
C           -5.20981300609880        0.86148038302026        0.00694258416868
S           -3.75246416698303        1.77692143442130        0.00346475407321
C           -2.80932002369939        0.32335380897338       -0.00036175338849
C           -1.39141196073193        0.20190485449033       -0.00306128797872
C           -0.52202309447698        1.29014706392985       -0.00391689352076
C            0.85187414361391        1.10969177399609       -0.00400330115498
H            3.67730359524651        2.85890645434175       -0.00134639969489
H            5.78785078192881        1.21439016831866        0.00757128305895
H            6.14824152707567       -1.37931008453452        0.01116617187120
H            0.91116911391399       -2.29804841459552       -0.00426534798755
H           -3.67727207995204       -2.85893670280676       -0.00130994481124
H           -5.78781771245207       -1.21443142069432        0.00685940669391
H           -6.14821854223342        1.37927047509576        0.01020560124747
H           -0.91113968792371        2.29802070240720       -0.00399101245256

          :  Hamiltonian                  GFN2-xTB          :
         :: gradient norm              0.000026487840 Eh/a0 ::
         :: HOMO-LUMO gap              2.389873488835 eV    ::
         :: SCC energy               -59.756182909992 Eh    ::
         :: -> dispersion             -0.042442235371 Eh    ::
         :: -> Gsolv                  -0.030488952647 Eh    ::
         :: repulsion energy           0.845272416323 Eh    ::

    * Orbital Energies and Occupations

         #    Occupation            Energy/Eh            Energy/eV
      -------------------------------------------------------------
         1        2.0000           -0.7446754             -20.2636
       ...           ...                  ...                  ...
        41        2.0000           -0.4710141             -12.8169
        42        2.0000           -0.4676034             -12.7241
        43        2.0000           -0.4653782             -12.6636
        44        2.0000           -0.4601639             -12.5217
        45        2.0000           -0.4559605             -12.4073
        46        2.0000           -0.4458324             -12.1317
        47        2.0000           -0.4325355             -11.7699
        48        2.0000           -0.4154776             -11.3057
        49        2.0000           -0.4152754             -11.3002
        50        2.0000           -0.4097765             -11.1506
        51        2.0000           -0.4024998             -10.9526
        52        2.0000           -0.3958525             -10.7717
        53        2.0000           -0.3789029             -10.3105 (HOMO)
        54                         -0.2910766              -7.9206 (LUMO)
        55                         -0.2891138              -7.8672
        56                         -0.2585327              -7.0350
        57                         -0.2283987              -6.2150
        58                         -0.2180265              -5.9328
        59                         -0.2173459              -5.9143
        60                         -0.2157491              -5.8708
        61                         -0.1933941              -5.2625
        62                         -0.1809624              -4.9242
        63                         -0.1356110              -3.6902
        64                         -0.1339568              -3.6452
       ...                                ...                  ...
       106                          0.7017588              19.0958
      -------------------------------------------------------------
                  HL-Gap            0.0878262 Eh            2.3899 eV

     #   Z          covCN         q      C6AA      α(0)
     1   8 O        0.859    -0.476    23.257     6.466
     2   6 C        2.765     0.267    22.486     7.766
     3   7 N        2.697    -0.138    23.998     7.276
     4   6 C        3.110     0.055    26.614     8.452
     5   6 C        3.081    -0.063    29.478     8.901
     6   6 C        2.947    -0.015    28.383     8.738
     7  16 S        2.282     0.010   140.653    19.961
     8   6 C        3.002    -0.005    28.130     8.700
     9   6 C        2.991     0.013    27.720     8.637
    10   6 C        2.923    -0.025    28.634     8.775
    11   6 C        2.982    -0.022    28.540     8.763
    12   6 C        2.765     0.267    22.486     7.766
    13   8 O        0.859    -0.476    23.257     6.466
    14   7 N        2.697    -0.138    23.998     7.276
    15   6 C        3.110     0.055    26.614     8.452
    16   6 C        3.081    -0.063    29.478     8.901
    17   6 C        2.947    -0.015    28.383     8.738
    18  16 S        2.282     0.010   140.653    19.961
    19   6 C        3.002    -0.005    28.130     8.700
    20   6 C        2.991     0.013    27.720     8.637
    21   6 C        2.923    -0.025    28.634     8.775
    22   6 C        2.982    -0.022    28.540     8.763
    23   1 H        0.860     0.196     1.125     1.661
    24   1 H        0.926     0.061     2.187     2.313
    25   1 H        0.926     0.073     2.058     2.243
    26   1 H        0.926     0.069     2.098     2.265
    27   1 H        0.860     0.196     1.125     1.661
    28   1 H        0.926     0.061     2.187     2.313
    29   1 H        0.926     0.073     2.058     2.243
    30   1 H        0.926     0.069     2.098     2.265

molecular dipole:
                 x           y           z       tot (Debye)
 q only:       -0.000      -0.000       0.010
   full:       -0.000      -0.000       0.011       0.027

 projected vibrational frequencies (cm⁻¹)
eigval :       -0.00    -0.00     0.00     0.00     0.00     0.00
eigval :       31.86    55.40    83.99   101.95   102.40   118.99
eigval :      164.72   190.42   201.90   258.10   273.35   303.68
eigval :      305.89   351.19   364.46   390.20   406.15   420.06
eigval :      427.54   466.36   472.09   474.27   536.03   569.70
eigval :      589.35   601.09   603.53   625.85   627.03   639.27
eigval :      654.14   658.65   663.55   664.30   714.42   728.23
eigval :      731.18   746.97   758.48   758.68   821.35   821.56
eigval :      836.18   836.65   871.24   878.36   888.08   971.97
eigval :     1039.60  1040.05  1086.50  1089.44  1099.74  1116.09
eigval :     1168.94  1170.46  1212.62  1219.62  1257.40  1260.54
eigval :     1279.72  1282.65  1353.47  1356.18  1385.38  1428.19
eigval :     1443.14  1463.78  1470.93  1494.92  1506.16  1541.10
eigval :     1545.90  1580.08  1661.02  1669.68  3089.93  3090.25
eigval :     3138.06  3138.17  3167.31  3167.35  3393.34  3394.05

   temp. (K)  partition function   enthalpy   heat capacity  entropy
                                   cal/mol     cal/K/mol   cal/K/mol   J/K/mol
 298.15  VIB  0.215E+06             8803.830     60.752     51.825
         ROT  0.447E+07              888.752      2.981     33.411
         INT  0.961E+12             9692.582     63.733     85.236
         TR   0.565E+28             1481.254      4.968     43.206
         TOT                       11173.8359    68.7011   128.4423   537.4027

       T/K    H(0)-H(T)+PV         H(T)/Eh          T*S/Eh         G(T)/Eh
   ------------------------------------------------------------------------
    298.15    0.178066E-01    0.217289E+00    0.610271E-01    0.156262E+00
   ------------------------------------------------------------------------

         :::::::::::::::::::::::::::::::::::::::::::::::::::::
         ::                  THERMODYNAMIC                  ::
         :::::::::::::::::::::::::::::::::::::::::::::::::::::
         :: total free energy         -58.754648634798 Eh   ::
         ::.................................................::
         :: total energy              -58.910910489926 Eh   ::
         :: zero point energy           0.199482304618 Eh   ::
         :: G(RRHO) w/o ZPVE           -0.043220449490 Eh   ::
         :: G(RRHO) contrib.            0.156261855128 Eh   ::
         :::::::::::::::::::::::::::::::::::::::::::::::::::::

           -------------------------------------------------
          | TOTAL ENERGY              -58.910910489926 Eh   |
          | TOTAL ENTHALPY            -58.693621544286 Eh   |
          | TOTAL FREE ENERGY         -58.754648634798 Eh   |
          | GRADIENT NORM               0.000026483428 Eh/α |
          | HOMO-LUMO GAP               2.389873011415 eV   |
           -------------------------------------------------

 * finished run on 2025/09/02 at 22:25:23.280
