   * xtb version 6.7.1 (edcfbbe) compiled by 'albert@albert-system' on 2024-07-22

   ID    Z sym.   atoms
    1    7 N      1, 13, 35
    2    6 C      2-12, 14-34, 36-46
    3    1 H      47-73

          program call               : xtb data2507/toluene/BPCN-2Cz/BPCN-2Cz_toluene_S0_finalOpt.xtbopt.xyz --gfn 2 --uhf 2 --gbsa toluene --ohess vtight --parallel 40 --molden --ceasefiles --namespace data2507/toluene/BPCN-2Cz/BPCN-2Cz_toluene_T1_preOpt
      * Solvation model:               GBSA
        Solvent                        toluene
        Solvent mass                       9.2140E+01 g/mol
          :  Hamiltonian                  GFN2-xTB          :
 * total energy  :  -114.5970171 Eh     change       -0.2131344E-08 Eh
 * total energy  :  -114.5999617 Eh     change       -0.2944595E-02 Eh
 * total energy  :  -114.6015421 Eh     change       -0.1580366E-02 Eh
 * total energy  :  -114.6020310 Eh     change       -0.4889374E-03 Eh
 * total energy  :  -114.6027245 Eh     change       -0.6935413E-03 Eh
 * total energy  :  -114.6033263 Eh     change       -0.6017834E-03 Eh
 * total energy  :  -114.6038515 Eh     change       -0.5251919E-03 Eh
 * total energy  :  -114.6040886 Eh     change       -0.2370751E-03 Eh
 * total energy  :  -114.6042611 Eh     change       -0.1725223E-03 Eh
 * total energy  :  -114.6043703 Eh     change       -0.1092103E-03 Eh
 * total energy  :  -114.6048272 Eh     change       -0.1633411E-05 Eh
 * total energy  :  -114.6048285 Eh     change       -0.1352650E-05 Eh
 * total energy  :  -114.6048298 Eh     change       -0.1243550E-05 Eh
 * total energy  :  -114.6048310 Eh     change       -0.1176440E-05 Eh
 * total energy  :  -114.6048321 Eh     change       -0.1176254E-05 Eh
 * total energy  :  -114.6048332 Eh     change       -0.1083164E-05 Eh
 * total energy  :  -114.6048344 Eh     change       -0.1129996E-05 Eh
 * total energy  :  -114.6048358 Eh     change       -0.1393583E-05 Eh
 * total energy  :  -114.6048358 Eh     change       -0.1067821E-07 Eh
   *** GEOMETRY OPTIMIZATION CONVERGED AFTER 44 ITERATIONS ***

 final structure:
================
73
 xtb: 6.7.1 (edcfbbe)
N            9.47931353357526        0.90010380691800        0.94264700107704
C            9.15501206350469       -0.12990929510590        0.51791027533123
C            8.89583060558144       -1.38758799122644       -0.01484082811908
C           10.01181190542636       -2.22622711259261       -0.16296389693286
C            9.91667804143720       -3.44342295794005       -0.78729893209282
C            8.67080947344820       -3.85834114035835       -1.30283762802174
C            7.56794261473429       -3.06435988934625       -1.17002290482844
C            7.59837225374617       -1.81304261329290       -0.50370039395012
C            6.41568650872132       -1.05372539469426       -0.31400941204611
C            6.28505689017589       -0.09724018832105        0.73858293994435
C            5.16111734065511        0.65475633896548        0.89994010693175
C            4.05675140245875        0.50342281939150        0.03192165414365
N            2.92222231886414        1.28013361365967        0.17925051678911
C            2.90608432053739        2.65153402679363        0.40478892312869
C            3.96381725335346        3.54399920133098        0.48853563200787
C            3.66699063239160        4.88260057333867        0.69039954320984
C            2.35113507349419        5.32600942320005        0.78884805694811
C            1.28974922296770        4.44467907799325        0.66722098090286
C            1.56416952245411        3.10052729890990        0.46642336663243
C            0.73620806295409        1.94201246124022        0.26110204792410
C           -0.62936489287911        1.75136332724419        0.21854219651736
C           -1.13949310434127        0.46060508761352        0.04410421894627
C           -2.58052421767661        0.23669265843023       -0.00790113793895
C           -3.41845662369534        1.18217563723188       -0.62975223423654
C           -4.78180553528584        1.01367914317108       -0.71339470854844
C           -5.33841649857843       -0.12438117479993       -0.13656226361511
C           -4.51358697499726       -1.09671561363447        0.48350026504266
C           -3.14477395015208       -0.91676622563922        0.54283221992633
C           -5.39222004727432       -2.14494573763563        0.93285725659180
C           -5.18831359439907       -3.33874861037897        1.60977458000861
C           -6.28624092204057       -4.12543148573257        1.90753438642085
C           -7.57208397700632       -3.72717152226801        1.55091129757999
C           -7.79946278965586       -2.54191665929407        0.87476682013086
C           -6.69908412092254       -1.76035383284646        0.55370127380147
N           -6.64633889644049       -0.53731672877483       -0.09017334685040
C           -7.74718787351014        0.16143727075929       -0.61472359314655
C           -8.62906202423316       -0.47748632614527       -1.48160681626097
C           -9.71023702427531        0.21446428420349       -1.99641807460899
C           -9.91517840827232        1.54244971756312       -1.65820048330133
C           -9.03552910223113        2.17937124934286       -0.79782055856369
C           -7.95534272406558        1.49421713234682       -0.27180972668684
C           -0.24409075304317       -0.62308875869261       -0.06347578585086
C            1.12149636970549       -0.45123741395548       -0.04147133872825
C            1.62282768447385        0.84141261350556        0.09451447472131
C            4.14619433196635       -0.46206407449950       -0.99662943256847
C            5.27468440536962       -1.20552353204502       -1.16278154963249
H           10.96293501222664       -1.88014043504264        0.22167309043089
H           10.78484979071131       -4.07661507894673       -0.89034394068575
H            8.59374062622390       -4.81761617696938       -1.79371835374124
H            6.62040896141110       -3.42839630494934       -1.53801362012316
H            7.08323602831437       -0.00482799429854        1.45793574297970
H            5.07966690195086        1.32899913412710        1.73984091382804
H            4.98685130255142        3.21690779658074        0.38540529562972
H            4.47523923536658        5.59441114006161        0.76449199085365
H            2.15859216296769        6.37627700694913        0.94946330108919
H            0.27048878166872        4.79510513278038        0.72105748220594
H           -1.29680048519271        2.58703258567313        0.36067930967665
H           -2.97083181376778        2.04938988837350       -1.09078641717055
H           -5.39804692156351        1.73750879106155       -1.22438948161017
H           -2.52421932688322       -1.64718021961513        1.03793933391736
H           -4.19429575755735       -3.64214498278300        1.90158472837134
H           -6.14915953588035       -5.05893852323780        2.43291370250465
H           -8.41102428083559       -4.35570316171139        1.81079039876027
H           -8.80089653096721       -2.23461762289840        0.61504824441357
H           -8.45332192113388       -1.50607808894895       -1.75943320696352
H          -10.39075881920608       -0.28394117490831       -2.67064899955405
H          -10.75848668591663        2.07998237472042       -2.06486540013170
H           -9.19454420240098        3.21294233956078       -0.52839883932444
H           -7.27910530618774        1.98027977199941        0.41553101903146
H           -0.64182798441205       -1.61763364695921       -0.19254830449703
H            1.78298328803074       -1.30037798029195       -0.11406498822538
H            3.33058456192688       -0.55176776774204       -1.69930679867101
H            5.33197965773893       -1.87995711926607       -2.00270113069980

          :  Hamiltonian                  GFN2-xTB          :
         :: gradient norm              0.000129219472 Eh/a0 ::
         :: HOMO-LUMO gap              0.377485340022 eV    ::
         :: SCC energy              -116.803887951966 Eh    ::
         :: -> dispersion             -0.100128404380 Eh    ::
         :: -> Gsolv                  -0.058402390164 Eh    ::
         :: repulsion energy           2.199052183468 Eh    ::

    * Orbital Energies and Occupations

         #    Occupation            Energy/Eh            Energy/eV
      -------------------------------------------------------------
         1        2.0000           -0.6900905             -18.7783
       ...           ...                  ...                  ...
        96        2.0000           -0.4176784             -11.3656
        97        2.0000           -0.4164118             -11.3311
        98        2.0000           -0.4104095             -11.1678
        99        2.0000           -0.4086746             -11.1206
       100        2.0000           -0.4079656             -11.1013
       101        2.0000           -0.3971366             -10.8066
       102        2.0000           -0.3965364             -10.7903
       103        2.0000           -0.3911180             -10.6429
       104        2.0000           -0.3889963             -10.5851
       105        2.0000           -0.3844372             -10.4611
       106        1.9963           -0.3703911             -10.0789
       107        1.0037           -0.3597819              -9.7902
       108        0.9992           -0.2691719              -7.3245 (HOMO)
       109        0.0006           -0.2553008              -6.9471 (LUMO)
       110        0.0003           -0.2545980              -6.9280
       111        0.0000           -0.2517167              -6.8496
       112                         -0.2388982              -6.5007
       113                         -0.2364986              -6.4355
       114                         -0.2364823              -6.4350
       115                         -0.2260206              -6.1503
       116                         -0.2202346              -5.9929
       117                         -0.2141214              -5.8265
       118                         -0.2016632              -5.4875
       119                         -0.1963860              -5.3439
       ...                                ...                  ...
       211                          1.1557835              31.4505
      -------------------------------------------------------------
                  HL-Gap            0.0138711 Eh            0.3775 eV

     #   Z          covCN         q      C6AA      α(0)
     1   7 N        0.911    -0.363    29.359     7.837
     2   6 C        1.920     0.104    28.514     8.624
     3   6 C        2.966    -0.019    28.481     8.754
     4   6 C        2.934    -0.025    28.629     8.775
     5   6 C        2.913    -0.042    29.039     8.837
     6   6 C        2.912    -0.040    29.006     8.831
     7   6 C        2.918    -0.036    28.885     8.813
     8   6 C        2.966    -0.009    28.238     8.716
     9   6 C        2.967     0.000    28.017     8.682
    10   6 C        2.917    -0.040    29.002     8.831
    11   6 C        2.911    -0.041    29.025     8.834
    12   6 C        2.911     0.036    27.190     8.550
    13   7 N        2.796     0.008    21.117     6.825
    14   6 C        3.072     0.043    26.960     8.513
    15   6 C        2.909    -0.038    28.946     8.822
    16   6 C        2.922    -0.032    28.809     8.802
    17   6 C        2.919    -0.032    28.791     8.799
    18   6 C        2.912    -0.030    28.739     8.791
    19   6 C        3.060    -0.012    28.245     8.715
    20   6 C        3.058    -0.011    28.221     8.712
    21   6 C        2.916    -0.033    28.816     8.803
    22   6 C        2.975     0.013    27.725     8.637
    23   6 C        2.976     0.007    27.849     8.656
    24   6 C        2.927    -0.036    28.896     8.816
    25   6 C        2.907    -0.047    29.156     8.854
    26   6 C        3.075     0.049    26.827     8.492
    27   6 C        3.063    -0.013    28.274     8.720
    28   6 C        2.916    -0.034    28.853     8.808
    29   6 C        3.065    -0.015    28.308     8.725
    30   6 C        2.912    -0.031    28.771     8.795
    31   6 C        2.920    -0.037    28.929     8.820
    32   6 C        2.924    -0.032    28.791     8.799
    33   6 C        2.909    -0.046    29.152     8.853
    34   6 C        3.077     0.047    26.875     8.499
    35   7 N        2.802    -0.025    21.724     6.922
    36   6 C        2.914     0.062    26.612     8.459
    37   6 C        2.922    -0.040    28.988     8.829
    38   6 C        2.920    -0.026    28.654     8.778
    39   6 C        2.919    -0.030    28.741     8.791
    40   6 C        2.920    -0.026    28.655     8.778
    41   6 C        2.922    -0.040    28.995     8.830
    42   6 C        2.925    -0.040    28.998     8.831
    43   6 C        2.906    -0.039    28.979     8.827
    44   6 C        3.070     0.041    27.003     8.520
    45   6 C        2.911    -0.043    29.075     8.842
    46   6 C        2.917    -0.043    29.061     8.840
    47   1 H        0.925     0.014     2.826     2.629
    48   1 H        0.926     0.022     2.707     2.573
    49   1 H        0.926     0.023     2.688     2.564
    50   1 H        0.926     0.029     2.599     2.521
    51   1 H        0.926     0.029     2.606     2.525
    52   1 H        0.926     0.036     2.504     2.475
    53   1 H        0.926     0.042     2.426     2.436
    54   1 H        0.926     0.040     2.448     2.447
    55   1 H        0.926     0.042     2.424     2.435
    56   1 H        0.926     0.045     2.381     2.413
    57   1 H        0.926     0.049     2.329     2.386
    58   1 H        0.926     0.044     2.393     2.419
    59   1 H        0.926     0.041     2.429     2.437
    60   1 H        0.926     0.044     2.392     2.419
    61   1 H        0.926     0.038     2.478     2.461
    62   1 H        0.926     0.035     2.521     2.483
    63   1 H        0.926     0.037     2.494     2.470
    64   1 H        0.926     0.038     2.477     2.461
    65   1 H        0.926     0.046     2.377     2.411
    66   1 H        0.926     0.044     2.400     2.422
    67   1 H        0.926     0.043     2.415     2.430
    68   1 H        0.926     0.044     2.394     2.420
    69   1 H        0.926     0.046     2.367     2.406
    70   1 H        0.926     0.045     2.382     2.414
    71   1 H        0.926     0.045     2.389     2.417
    72   1 H        0.926     0.040     2.445     2.445
    73   1 H        0.926     0.035     2.514     2.479

molecular dipole:
                 x           y           z       tot (Debye)
 q only:       -8.294       0.467      -0.618
   full:       -8.196       0.060      -0.766      20.923

 projected vibrational frequencies (cm⁻¹)
eigval :       -0.00    -0.00     0.00     0.00     0.00     0.00
eigval :        9.58    13.06    17.06    26.19    31.65    37.17
eigval :       53.49    61.35    63.57    69.27    80.02    91.37
eigval :       99.12   111.75   119.84   129.82   142.19   150.03
eigval :      162.99   174.97   181.87   192.22   212.44   230.41
eigval :      255.66   264.22   264.78   278.77   286.41   319.07
eigval :      341.26   347.38   364.77   369.43   380.04   385.05
eigval :      389.95   394.28   400.24   403.38   410.20   419.73
eigval :      428.30   438.14   441.54   468.76   470.42   488.13
eigval :      489.18   501.13   522.82   539.35   547.12   553.24
eigval :      564.36   569.65   575.61   582.20   591.02   594.28
eigval :      596.56   611.09   615.32   621.27   634.57   642.50
eigval :      660.51   668.58   675.34   681.68   688.33   702.81
eigval :      708.61   717.69   730.81   739.36   762.61   764.26
eigval :      770.90   773.55   782.65   793.20   811.82   818.72
eigval :      830.79   842.30   845.23   866.92   869.42   870.29
eigval :      871.60   881.42   891.65   896.43   897.72   899.52
eigval :      899.91   902.06   904.19   905.99   912.22   915.14
eigval :      916.87   919.17   921.71   923.18   927.63   933.27
eigval :      933.97   963.55   992.16   996.65  1008.36  1024.58
eigval :     1057.33  1065.30  1068.76  1069.49  1079.13  1111.93
eigval :     1118.02  1119.03  1120.46  1138.37  1143.57  1151.90
eigval :     1169.69  1173.65  1174.68  1179.76  1181.21  1182.02
eigval :     1197.66  1204.26  1209.35  1219.06  1225.14  1228.82
eigval :     1238.01  1240.63  1246.53  1253.57  1262.96  1270.81
eigval :     1273.19  1283.59  1297.64  1310.57  1314.92  1319.41
eigval :     1335.99  1343.94  1345.73  1352.31  1356.74  1366.04
eigval :     1369.45  1379.02  1385.88  1407.66  1409.77  1418.37
eigval :     1423.53  1428.97  1433.50  1441.28  1446.23  1461.30
eigval :     1466.17  1473.10  1476.39  1477.99  1480.87  1521.00
eigval :     1526.98  1539.56  1545.77  1561.68  1572.07  1577.96
eigval :     1578.86  1581.23  1588.09  1589.52  1602.74  2234.26
eigval :     3051.35  3069.35  3075.69  3076.82  3079.11  3080.22
eigval :     3081.59  3081.89  3082.08  3082.68  3085.72  3087.95
eigval :     3089.00  3089.68  3090.40  3091.39  3093.34  3094.27
eigval :     3095.61  3096.24  3096.67  3097.28  3098.57  3099.66
eigval :     3101.17  3103.05  3107.54

   temp. (K)  partition function   enthalpy   heat capacity  entropy
                                   cal/mol     cal/K/mol   cal/K/mol   J/K/mol
 298.15  VIB  0.814E+16            20873.808    134.457    128.959
         ROT  0.110E+09              888.752      2.981     39.773
         INT  0.894E+24            21762.561    137.438    168.732
         TR   0.137E+29             1481.254      4.968     44.967
         TOT                       23243.8145   142.4062   213.6987   894.1155

       T/K    H(0)-H(T)+PV         H(T)/Eh          T*S/Eh         G(T)/Eh
   ------------------------------------------------------------------------
    298.15    0.370414E-01    0.588851E+00    0.101535E+00    0.487316E+00
   ------------------------------------------------------------------------

         :::::::::::::::::::::::::::::::::::::::::::::::::::::
         ::                  THERMODYNAMIC                  ::
         :::::::::::::::::::::::::::::::::::::::::::::::::::::
         :: total free energy        -114.117519477913 Eh   ::
         ::.................................................::
         :: total energy             -114.604835769164 Eh   ::
         :: zero point energy           0.551810074105 Eh   ::
         :: G(RRHO) w/o ZPVE           -0.064493782854 Eh   ::
         :: G(RRHO) contrib.            0.487316291251 Eh   ::
         :::::::::::::::::::::::::::::::::::::::::::::::::::::

           -------------------------------------------------
          | TOTAL ENERGY             -114.604835769164 Eh   |
          | TOTAL ENTHALPY           -114.015984318891 Eh   |
          | TOTAL FREE ENERGY        -114.117519477913 Eh   |
          | GRADIENT NORM               0.000130257319 Eh/α |
          | HOMO-LUMO GAP               0.377451954275 eV   |
           -------------------------------------------------

 * finished run on 2025/08/25 at 09:03:44.028
