   * xtb version 6.7.1 (edcfbbe) compiled by 'albert@albert-system' on 2024-07-22

   ID    Z sym.   atoms
    1    7 N      1, 13, 35
    2    6 C      2-12, 14-34, 36-46
    3    1 H      47-73

          program call               : xtb data2507/toluene/BPCN-2Cz/BPCN-2Cz_toluene_T1_crest.xyz --gfn 2 --uhf 2 --gbsa toluene --ohess vtight --parallel 40 --molden --ceasefiles --namespace data2507/toluene/BPCN-2Cz/BPCN-2Cz_toluene_T1_finalOpt
      * Solvation model:               GBSA
        Solvent                        toluene
        Solvent mass                       9.2140E+01 g/mol
          :  Hamiltonian                  GFN2-xTB          :
 * total energy  :  -114.6048174 Eh     change       -0.2346120E-07 Eh
 * total energy  :  -114.6049056 Eh     change       -0.8814801E-04 Eh
 * total energy  :  -114.6049375 Eh     change       -0.3193515E-04 Eh
 * total energy  :  -114.6049231 Eh     change        0.1444664E-04 Eh
 * total energy  :  -114.6049457 Eh     change       -0.2268237E-04 Eh
 * total energy  :  -114.6049514 Eh     change       -0.5649362E-05 Eh
 * total energy  :  -114.6049541 Eh     change       -0.2738645E-05 Eh
 * total energy  :  -114.6049577 Eh     change       -0.3596894E-05 Eh
 * total energy  :  -114.6049589 Eh     change       -0.1134067E-05 Eh
 * total energy  :  -114.6049599 Eh     change       -0.1079329E-05 Eh
 * total energy  :  -114.6049723 Eh     change       -0.3141645E-06 Eh
 * total energy  :  -114.6049726 Eh     change       -0.2852416E-06 Eh
 * total energy  :  -114.6049729 Eh     change       -0.2777492E-06 Eh
 * total energy  :  -114.6049732 Eh     change       -0.2780316E-06 Eh
 * total energy  :  -114.6049735 Eh     change       -0.3064587E-06 Eh
 * total energy  :  -114.6049738 Eh     change       -0.3400543E-06 Eh
 * total energy  :  -114.6049742 Eh     change       -0.3926871E-06 Eh
 * total energy  :  -114.6049746 Eh     change       -0.4353616E-06 Eh
 * total energy  :  -114.6049746 Eh     change       -0.1120483E-08 Eh
   *** GEOMETRY OPTIMIZATION CONVERGED AFTER 44 ITERATIONS ***

 final structure:
================
73
 xtb: 6.7.1 (edcfbbe)
N            9.48444179318082        1.25031248606663        0.47843639280023
C            9.19640710215811        0.12689829114546        0.51706095866315
C            8.97826111570703       -1.24573890441479        0.54904413329206
C           10.11723730659367       -2.03954787995194        0.75669497180883
C           10.06043400998536       -3.40784658221199        0.68506757754008
C            8.83173757995281       -4.03252166264789        0.38463125389068
C            7.70730810185464       -3.28518558822610        0.18069623427733
C            7.69801286294853       -1.87080797180374        0.27824741756608
C            6.49332495581538       -1.13405970480169        0.14612792265104
C            6.32536066759320        0.15981769439048        0.72685678084072
C            5.17792546099613        0.87768029824764        0.57803185126854
C            4.08639980845760        0.35809453358981       -0.15395269372880
N            2.92730983357746        1.09395918157573       -0.31750059116103
C            2.86904225318864        2.44600564154880       -0.63546910635703
C            3.89781763541918        3.33206736309855       -0.91688386164091
C            3.55870098046766        4.63568483451841       -1.24290079701473
C            2.22983634530615        5.04613966157363       -1.30149597609310
C            1.19688957870533        4.15610097061866       -1.05950847233551
C            1.51380577918464        2.84614759684513       -0.73383704366072
C            0.72233877468314        1.67587723375305       -0.46390829035250
C           -0.63699644574794        1.44872538499163       -0.40337716653563
C           -1.10830724890952        0.16831783055963       -0.09642761964593
C           -2.54260024530050       -0.09629083297807       -0.05383495683215
C           -3.05012345464272       -1.33835015957586       -0.48003662006082
C           -4.39710189748319       -1.62182731402893       -0.47703595897052
C           -5.27353084123725       -0.63941632646636       -0.02482051901204
C           -4.78246623779435        0.60609493147942        0.44244749894678
C           -3.42825431175788        0.87774620846499        0.41477240877642
C           -5.93096763971627        1.35491597933356        0.88123991239388
C           -6.09669721529607        2.62417515688897        1.41634020980660
C           -7.37725023681582        3.05363900779735        1.71395338410550
C           -8.48130935871686        2.24111610824505        1.46909561562052
C           -8.34028722369754        0.97264881124408        0.93526987662035
C           -7.05579182110635        0.52790981338276        0.65779470682908
N           -6.63876970554390       -0.67232784996265        0.11062165052029
C           -7.47709805639345       -1.73862877289113       -0.25756971235948
C           -8.39402735088009       -2.25265025135769        0.65465048121246
C           -9.22154533600835       -3.29706880415025        0.28391505443120
C           -9.13707750108678       -3.83761962798592       -0.98906786346329
C           -8.22068976589028       -3.32922303829300       -1.89551066501214
C           -7.39339792749297       -2.28053509620982       -1.53693817563822
C           -0.18090668099276       -0.85581169891514        0.18524238632467
C            1.17878793859227       -0.64492130069296        0.14506628920351
C            1.64178139726049        0.61919163264079       -0.21386081700747
C            4.21573253289771       -0.93346036514834       -0.71353832720305
C            5.36675937921057       -1.64672794530099       -0.57000507572234
H           11.05504442331793       -1.53988910947252        0.96468342096511
H           10.94568733067534       -4.00320363946141        0.84976036523818
H            8.78563943078350       -5.11043812003438        0.32895618606560
H            6.77327737399669       -3.79358231715569       -0.00623941992247
H            7.11368249328186        0.55659550297421        1.34682430144203
H            5.06697154533816        1.82727827770303        1.08064154068872
H            4.93089604480870        3.02138976872584       -0.89999448632204
H            4.34427740083322        5.34319630583645       -1.46133826503458
H            2.00450716339524        6.07121791751146       -1.55527561603991
H            0.16709648326957        4.47069304771235       -1.13110239786028
H           -1.32864033424030        2.24769154331843       -0.62049449890365
H           -2.36157641010356       -2.08213041660589       -0.85079634698415
H           -4.76004117689848       -2.58172359369934       -0.81107369912997
H           -3.05729611210682        1.81878716395751        0.78991843559545
H           -5.24359964958076        3.26127066777506        1.59369189969336
H           -7.52798928324122        4.03678071538152        2.13461063008871
H           -9.47017190059698        2.61024991022744        1.69796061320795
H           -9.20311764093446        0.35655110901982        0.73355626145487
H           -8.44263881108000       -1.84173104800731        1.65207225392140
H           -9.93073604863409       -3.69422049842529        0.99488390943785
H           -9.78379226874648       -4.65373111155732       -1.27394827768640
H           -8.15451889222710       -3.74523568036532       -2.88986339818532
H           -6.69214840435953       -1.86749789857240       -2.24667014903028
H           -0.54979266428680       -1.82508047522652        0.48293820817873
H            1.86493820734327       -1.43481019176036        0.40835036037201
H            3.41188663236073       -1.32046261991754       -1.32255266498500
H            5.45353640490387       -2.59808790747116       -1.07108213805413

          :  Hamiltonian                  GFN2-xTB          :
         :: gradient norm              0.000031756044 Eh/a0 ::
         :: HOMO-LUMO gap              0.380578479169 eV    ::
         :: SCC energy              -116.804125453647 Eh    ::
         :: -> dispersion             -0.100158270185 Eh    ::
         :: -> Gsolv                  -0.058434215479 Eh    ::
         :: repulsion energy           2.199150825581 Eh    ::

    * Orbital Energies and Occupations

         #    Occupation            Energy/Eh            Energy/eV
      -------------------------------------------------------------
         1        2.0000           -0.6900250             -18.7765
       ...           ...                  ...                  ...
        96        2.0000           -0.4176029             -11.3636
        97        2.0000           -0.4161659             -11.3245
        98        2.0000           -0.4104148             -11.1680
        99        2.0000           -0.4089766             -11.1288
       100        2.0000           -0.4076886             -11.0938
       101        2.0000           -0.3971424             -10.8068
       102        2.0000           -0.3965552             -10.7908
       103        2.0000           -0.3911382             -10.6434
       104        2.0000           -0.3889297             -10.5833
       105        2.0000           -0.3844002             -10.4601
       106        1.9967           -0.3705132             -10.0822
       107        1.0033           -0.3596759              -9.7873
       108        0.9992           -0.2690897              -7.3223 (HOMO)
       109        0.0005           -0.2551040              -6.9417 (LUMO)
       110        0.0004           -0.2548301              -6.9343
       111        0.0000           -0.2516768              -6.8485
       112                         -0.2388304              -6.4989
       113                         -0.2365148              -6.4359
       114                         -0.2364841              -6.4351
       115                         -0.2258960              -6.1469
       116                         -0.2202691              -5.9938
       117                         -0.2141715              -5.8279
       118                         -0.2016771              -5.4879
       119                         -0.1964860              -5.3467
       ...                                ...                  ...
       211                          1.1559403              31.4547
      -------------------------------------------------------------
                  HL-Gap            0.0139858 Eh            0.3806 eV

     #   Z          covCN         q      C6AA      α(0)
     1   7 N        0.911    -0.363    29.356     7.836
     2   6 C        1.920     0.104    28.516     8.624
     3   6 C        2.966    -0.019    28.482     8.754
     4   6 C        2.934    -0.025    28.630     8.775
     5   6 C        2.913    -0.042    29.040     8.837
     6   6 C        2.912    -0.041    29.007     8.832
     7   6 C        2.918    -0.036    28.884     8.813
     8   6 C        2.967    -0.009    28.239     8.716
     9   6 C        2.967     0.000    28.017     8.682
    10   6 C        2.917    -0.040    28.995     8.830
    11   6 C        2.911    -0.041    29.028     8.835
    12   6 C        2.911     0.036    27.187     8.550
    13   7 N        2.796     0.008    21.115     6.825
    14   6 C        3.072     0.043    26.963     8.514
    15   6 C        2.909    -0.038    28.947     8.822
    16   6 C        2.922    -0.033    28.812     8.802
    17   6 C        2.919    -0.032    28.791     8.799
    18   6 C        2.912    -0.030    28.739     8.791
    19   6 C        3.060    -0.012    28.244     8.715
    20   6 C        3.059    -0.011    28.220     8.712
    21   6 C        2.916    -0.033    28.814     8.802
    22   6 C        2.976     0.013    27.726     8.637
    23   6 C        2.976     0.007    27.848     8.656
    24   6 C        2.927    -0.036    28.893     8.815
    25   6 C        2.907    -0.046    29.154     8.854
    26   6 C        3.075     0.049    26.827     8.492
    27   6 C        3.063    -0.013    28.272     8.719
    28   6 C        2.917    -0.034    28.855     8.809
    29   6 C        3.065    -0.014    28.306     8.724
    30   6 C        2.912    -0.031    28.770     8.795
    31   6 C        2.920    -0.037    28.928     8.820
    32   6 C        2.924    -0.032    28.790     8.799
    33   6 C        2.909    -0.046    29.152     8.853
    34   6 C        3.077     0.047    26.874     8.499
    35   7 N        2.802    -0.025    21.725     6.923
    36   6 C        2.914     0.062    26.612     8.459
    37   6 C        2.922    -0.040    28.989     8.829
    38   6 C        2.920    -0.026    28.656     8.778
    39   6 C        2.919    -0.030    28.742     8.792
    40   6 C        2.920    -0.026    28.655     8.778
    41   6 C        2.922    -0.040    28.996     8.830
    42   6 C        2.925    -0.040    29.000     8.831
    43   6 C        2.906    -0.039    28.980     8.827
    44   6 C        3.069     0.041    27.006     8.521
    45   6 C        2.911    -0.043    29.075     8.842
    46   6 C        2.916    -0.043    29.065     8.841
    47   1 H        0.925     0.014     2.826     2.629
    48   1 H        0.926     0.022     2.708     2.573
    49   1 H        0.926     0.023     2.688     2.564
    50   1 H        0.926     0.029     2.600     2.521
    51   1 H        0.926     0.029     2.608     2.525
    52   1 H        0.926     0.036     2.502     2.474
    53   1 H        0.926     0.042     2.425     2.435
    54   1 H        0.926     0.040     2.450     2.448
    55   1 H        0.926     0.042     2.425     2.435
    56   1 H        0.926     0.045     2.382     2.414
    57   1 H        0.926     0.049     2.328     2.386
    58   1 H        0.926     0.044     2.400     2.423
    59   1 H        0.926     0.041     2.437     2.441
    60   1 H        0.926     0.045     2.384     2.414
    61   1 H        0.926     0.039     2.468     2.457
    62   1 H        0.926     0.035     2.516     2.480
    63   1 H        0.926     0.037     2.494     2.469
    64   1 H        0.926     0.038     2.479     2.462
    65   1 H        0.926     0.046     2.374     2.409
    66   1 H        0.926     0.044     2.400     2.422
    67   1 H        0.926     0.042     2.417     2.431
    68   1 H        0.926     0.044     2.397     2.421
    69   1 H        0.926     0.046     2.372     2.409
    70   1 H        0.926     0.045     2.383     2.414
    71   1 H        0.926     0.045     2.387     2.416
    72   1 H        0.926     0.041     2.440     2.443
    73   1 H        0.926     0.035     2.515     2.480

molecular dipole:
                 x           y           z       tot (Debye)
 q only:       -8.222      -0.472      -0.583
   full:       -8.103      -0.944      -0.546      20.781

 projected vibrational frequencies (cm⁻¹)
eigval :       -0.00    -0.00    -0.00     0.00     0.00     0.00
eigval :        9.35    11.85    18.06    26.45    31.21    45.81
eigval :       53.41    59.28    62.35    70.10    72.21    93.73
eigval :      101.57   109.57   121.71   131.87   145.13   151.36
eigval :      163.05   172.20   186.53   199.53   218.36   236.52
eigval :      240.00   266.10   269.39   280.34   289.14   317.70
eigval :      336.32   349.54   359.45   376.04   377.30   386.22
eigval :      390.36   393.21   395.91   402.89   414.44   424.40
eigval :      426.16   433.71   443.78   466.61   473.55   481.29
eigval :      490.18   501.57   529.09   539.30   547.52   554.50
eigval :      566.59   567.78   575.61   582.52   590.21   595.36
eigval :      597.01   609.90   615.50   621.84   636.69   643.57
eigval :      662.85   667.94   675.73   681.83   688.83   706.00
eigval :      708.22   717.60   731.25   738.46   764.72   767.26
eigval :      771.27   774.62   782.44   795.41   809.48   819.00
eigval :      829.69   842.13   842.73   859.34   867.91   870.06
eigval :      876.52   879.85   891.88   894.96   897.84   898.82
eigval :      900.52   901.88   904.56   905.98   909.79   914.04
eigval :      917.89   920.36   923.42   924.43   927.07   932.27
eigval :      936.48   963.43   992.01   996.54  1008.21  1024.71
eigval :     1056.88  1065.09  1068.67  1069.69  1078.56  1112.08
eigval :     1117.22  1119.50  1119.99  1139.47  1144.17  1150.03
eigval :     1167.96  1172.35  1176.67  1179.77  1180.31  1181.70
eigval :     1197.16  1206.81  1213.27  1218.47  1220.61  1230.17
eigval :     1238.77  1239.25  1247.11  1252.49  1266.63  1269.31
eigval :     1272.20  1279.48  1296.83  1311.03  1314.87  1318.57
eigval :     1337.26  1344.13  1345.48  1353.52  1357.56  1362.53
eigval :     1369.07  1379.08  1385.82  1405.27  1411.15  1417.06
eigval :     1424.05  1429.53  1433.40  1442.93  1453.38  1461.52
eigval :     1464.67  1473.56  1474.36  1478.14  1478.38  1523.16
eigval :     1526.94  1537.61  1546.66  1561.63  1572.31  1577.84
eigval :     1579.23  1581.45  1588.13  1589.68  1602.95  2233.94
eigval :     3050.74  3068.47  3075.31  3077.49  3079.00  3079.93
eigval :     3080.95  3081.15  3081.33  3083.53  3086.54  3088.30
eigval :     3088.48  3089.32  3090.84  3091.14  3092.50  3094.30
eigval :     3095.91  3096.74  3097.15  3097.87  3098.90  3099.55
eigval :     3101.34  3102.51  3108.43

   temp. (K)  partition function   enthalpy   heat capacity  entropy
                                   cal/mol     cal/K/mol   cal/K/mol   J/K/mol
 298.15  VIB  0.732E+16            20848.619    134.514    128.885
         ROT  0.110E+09              888.752      2.981     39.773
         INT  0.803E+24            21737.371    137.495    168.659
         TR   0.137E+29             1481.254      4.968     44.967
         TOT                       23218.6251   142.4633   213.6252   893.8080

       T/K    H(0)-H(T)+PV         H(T)/Eh          T*S/Eh         G(T)/Eh
   ------------------------------------------------------------------------
    298.15    0.370012E-01    0.588870E+00    0.101500E+00    0.487370E+00
   ------------------------------------------------------------------------

         :::::::::::::::::::::::::::::::::::::::::::::::::::::
         ::                  THERMODYNAMIC                  ::
         :::::::::::::::::::::::::::::::::::::::::::::::::::::
         :: total free energy        -114.117605087139 Eh   ::
         ::.................................................::
         :: total energy             -114.604974630995 Eh   ::
         :: zero point energy           0.551868556235 Eh   ::
         :: G(RRHO) w/o ZPVE           -0.064499012378 Eh   ::
         :: G(RRHO) contrib.            0.487369543857 Eh   ::
         :::::::::::::::::::::::::::::::::::::::::::::::::::::

           -------------------------------------------------
          | TOTAL ENERGY             -114.604974630995 Eh   |
          | TOTAL ENTHALPY           -114.016104840368 Eh   |
          | TOTAL FREE ENERGY        -114.117605087139 Eh   |
          | GRADIENT NORM               0.000031779969 Eh/α |
          | HOMO-LUMO GAP               0.380572085061 eV   |
           -------------------------------------------------

 * finished run on 2025/08/25 at 09:08:04.320
