   * xtb version 6.7.1 (edcfbbe) compiled by 'albert@albert-system' on 2024-07-22

   ID    Z sym.   atoms
    1    7 N      1, 13, 35
    2    6 C      2-12, 14-34, 36-46
    3    1 H      47-73

          program call               : xtb data2507/toluene/BPCN-2Cz/BPCN-2Cz_toluene_S0_crest.xyz --gfn 2 --gbsa toluene --ohess vtight --parallel 40 --molden --ceasefiles --namespace data2507/toluene/BPCN-2Cz/BPCN-2Cz_toluene_S0_finalOpt
      * Solvation model:               GBSA
        Solvent                        toluene
        Solvent mass                       9.2140E+01 g/mol
          :  Hamiltonian                  GFN2-xTB          :
 * total energy  :  -114.6968372 Eh     change       -0.1645247E-08 Eh
 * total energy  :  -114.6968696 Eh     change       -0.3240296E-04 Eh
 * total energy  :  -114.6968722 Eh     change       -0.2614505E-05 Eh
 * total energy  :  -114.6968797 Eh     change       -0.7430051E-05 Eh
 * total energy  :  -114.6968922 Eh     change       -0.1252375E-04 Eh
 * total energy  :  -114.6968949 Eh     change       -0.2708426E-05 Eh
 * total energy  :  -114.6968988 Eh     change       -0.3934365E-05 Eh
 * total energy  :  -114.6969007 Eh     change       -0.1886999E-05 Eh
 * total energy  :  -114.6969019 Eh     change       -0.1198264E-05 Eh
 * total energy  :  -114.6969030 Eh     change       -0.1047254E-05 Eh
 * total energy  :  -114.6969065 Eh     change       -0.8881486E-06 Eh
 * total energy  :  -114.6969072 Eh     change       -0.7435988E-06 Eh
 * total energy  :  -114.6969078 Eh     change       -0.5486246E-06 Eh
 * total energy  :  -114.6969082 Eh     change       -0.4565851E-06 Eh
 * total energy  :  -114.6969085 Eh     change       -0.3272201E-06 Eh
 * total energy  :  -114.6969089 Eh     change       -0.3056010E-06 Eh
 * total energy  :  -114.6969092 Eh     change       -0.3357027E-06 Eh
 * total energy  :  -114.6969096 Eh     change       -0.4591474E-06 Eh
 * total energy  :  -114.6969097 Eh     change       -0.8987072E-08 Eh
   *** GEOMETRY OPTIMIZATION CONVERGED AFTER 22 ITERATIONS ***

 final structure:
================
73
 xtb: 6.7.1 (edcfbbe)
N            9.25662305467381        1.16332149582770        0.15516895967815
C            9.05227567315685        0.04871070189714       -0.03293276437520
C            8.86991612966889       -1.32738261079634       -0.29373973368982
C           10.00734485757350       -2.12586526166171       -0.43675467042220
C            9.87634109172912       -3.46563251566589       -0.74389012061282
C            8.61338043453189       -4.01267163317244       -0.92118916500486
C            7.48486799211961       -3.22479605645625       -0.78333840766717
C            7.58692935305822       -1.87530183748719       -0.45893133144646
C            6.38095681152238       -1.05206422396325       -0.29231709809968
C            6.23228693068929       -0.21766818299409        0.81361694837557
C            5.09536885833854        0.54866314281107        0.97069654864575
C            4.08505424240342        0.50897579125956        0.01251655716825
N            2.93861798149809        1.29830583169178        0.16250281233584
C            2.91994043289756        2.65140078780563        0.44520277363045
C            3.97666640331650        3.53974020536681        0.58817456438064
C            3.67610603661714        4.86416971918555        0.84532379438153
C            2.35816632926251        5.30508091715082        0.94757362339040
C            1.30250485451470        4.43063217136784        0.78050493338942
C            1.57926519878338        3.09421595928550        0.52285309391532
C            0.75365178938133        1.94351021779306        0.27810920662893
C           -0.61883837134134        1.74927133368316        0.24150940874226
C           -1.11997954325793        0.47639492408970       -0.00096967615071
C           -2.57242226418592        0.24355480402867       -0.05024439847160
C           -3.40381577187886        1.15418448367074       -0.71818501749870
C           -4.77090322316516        0.98336829275903       -0.79221780331107
C           -5.32459951696494       -0.12533213516645       -0.16689008292165
C           -4.50263240193005       -1.06706664218879        0.49395321839862
C           -3.12998238895594       -0.87734953147866        0.55144518162822
C           -5.37654602999844       -2.09731600009849        0.98302593704294
C           -5.16860417359597       -3.26228004343948        1.71036684175132
C           -6.26037484107776       -4.04016745877312        2.04134692658631
C           -7.54869463885196       -3.66241136942365        1.66741540098574
C           -7.78092379221071       -2.50878696487810        0.94288179575302
C           -6.68526411611573       -1.73446576423580        0.58710237918956
N           -6.63930239523298       -0.54089480857003       -0.10518308749238
C           -7.73954902509183        0.13286723556556       -0.65996905087619
C           -8.62556495719522       -0.54312607576954       -1.49388633161945
C           -9.70866107164414        0.12419043692703       -2.03644164398936
C           -9.91095638748749        1.46702863740148       -1.76245333166701
C           -9.02713612770430        2.14222690294375       -0.93654574496659
C           -7.94717345759959        1.48061177090412       -0.38089054470403
C           -0.23033535356167       -0.59019861926880       -0.19060502901124
C            1.13873820090434       -0.41926607270177       -0.16225300139858
C            1.63270965654209        0.85884295639482        0.05764034963446
C            4.22616455438819       -0.32525292436239       -1.09440065378709
C            5.35674754940553       -1.10366998215556       -1.23633600847794
H           10.98333194051279       -1.68037438997892       -0.30833160248803
H           10.75641378598083       -4.08150160265377       -0.84914937983594
H            8.50926036828977       -5.05942085944611       -1.16480543106189
H            6.50394892509061       -3.65878478802682       -0.90726364416388
H            7.00118249280113       -0.18823661529049        1.57176347361793
H            4.97835361504347        1.17192252749697        1.84429161610683
H            5.00173319152178        3.21418905156404        0.49234032910700
H            4.48213057206793        5.57351860491393        0.96481836107084
H            2.16465695148238        6.34798060752039        1.15211416304408
H            0.28102740327704        4.77513712904385        0.84384126839250
H           -1.28972350520074        2.57525909927492        0.42466903908895
H           -2.95326175185882        2.00375837982576       -1.21056909535387
H           -5.38648771644468        1.68706575452972       -1.33231175787626
H           -2.50509854609171       -1.58632992881516        1.07373681238072
H           -4.17204552264772       -3.54709704401950        2.01392483848804
H           -6.11993566500741       -4.95070462252274        2.60551925899569
H           -8.38502855258349       -4.28361956611093        1.95383388476850
H           -8.78437073125164       -2.21714216075506        0.67136650006159
H           -8.45303082244968       -1.58468642560814       -1.72156866481355
H          -10.39250954719317       -0.40555153794607       -2.68328401435358
H          -10.75499379747123        1.98590102224830       -2.19160061362956
H           -9.18287206562874        3.18825019504106       -0.71663871206386
H           -7.26708977805926        1.99844987593216        0.27915004923132
H           -0.63210136858985       -1.57449113031388       -0.38197964716156
H            1.80084071905532       -1.26073194760096       -0.29985641056349
H            3.45397684125942       -0.34513025183880       -1.84866104279582
H            5.46475772336823       -1.73446248856656       -2.10642332896373

          :  Hamiltonian                  GFN2-xTB          :
         :: gradient norm              0.000079249250 Eh/a0 ::
         :: HOMO-LUMO gap              2.056143164233 eV    ::
         :: SCC energy              -116.918804229179 Eh    ::
         :: -> dispersion             -0.100423759467 Eh    ::
         :: -> Gsolv                  -0.051277813593 Eh    ::
         :: repulsion energy           2.221894572647 Eh    ::

    * Orbital Energies and Occupations

         #    Occupation            Energy/Eh            Energy/eV
      -------------------------------------------------------------
         1        2.0000           -0.6762647             -18.4021
       ...           ...                  ...                  ...
        95        2.0000           -0.4199243             -11.4267
        96        2.0000           -0.4172165             -11.3530
        97        2.0000           -0.4144431             -11.2776
        98        2.0000           -0.4136920             -11.2571
        99        2.0000           -0.4114403             -11.1959
       100        2.0000           -0.4091150             -11.1326
       101        2.0000           -0.4068676             -11.0714
       102        2.0000           -0.4036773             -10.9846
       103        2.0000           -0.3969538             -10.8017
       104        2.0000           -0.3789759             -10.3125
       105        2.0000           -0.3762160             -10.2374
       106        2.0000           -0.3657940              -9.9538
       107        2.0000           -0.3539065              -9.6303 (HOMO)
       108                         -0.2783446              -7.5741 (LUMO)
       109                         -0.2554877              -6.9522
       110                         -0.2445940              -6.6557
       111                         -0.2436725              -6.6307
       112                         -0.2363363              -6.4310
       113                         -0.2361569              -6.4262
       114                         -0.2304821              -6.2717
       115                         -0.2303252              -6.2675
       116                         -0.2220761              -6.0430
       117                         -0.2136277              -5.8131
       118                         -0.2118696              -5.7653
       ...                                ...                  ...
       211                          1.1542623              31.4091
      -------------------------------------------------------------
                  HL-Gap            0.0755619 Eh            2.0561 eV

     #   Z          covCN         q      C6AA      α(0)
     1   7 N        0.911    -0.281    27.258     7.551
     2   6 C        1.913     0.121    28.127     8.565
     3   6 C        2.976     0.010    27.791     8.647
     4   6 C        2.929    -0.019    28.478     8.752
     5   6 C        2.918    -0.026    28.654     8.778
     6   6 C        2.917    -0.020    28.500     8.754
     7   6 C        2.924    -0.030    28.745     8.792
     8   6 C        2.980     0.021    27.521     8.605
     9   6 C        2.976     0.005    27.905     8.665
    10   6 C        2.923    -0.029    28.719     8.788
    11   6 C        2.921    -0.041    29.022     8.834
    12   6 C        2.912     0.066    26.522     8.445
    13   7 N        2.801    -0.044    22.096     6.981
    14   6 C        3.074     0.047    26.871     8.499
    15   6 C        2.909    -0.051    29.272     8.872
    16   6 C        2.924    -0.035    28.860     8.810
    17   6 C        2.920    -0.042    29.047     8.838
    18   6 C        2.912    -0.035    28.864     8.810
    19   6 C        3.067    -0.018    28.387     8.736
    20   6 C        3.064    -0.019    28.405     8.740
    21   6 C        2.918    -0.040    28.996     8.830
    22   6 C        2.976    -0.001    28.056     8.688
    23   6 C        2.976    -0.002    28.078     8.692
    24   6 C        2.929    -0.040    28.990     8.830
    25   6 C        2.908    -0.053    29.310     8.877
    26   6 C        3.077     0.046    26.896     8.503
    27   6 C        3.064    -0.020    28.432     8.744
    28   6 C        2.918    -0.040    29.006     8.832
    29   6 C        3.068    -0.019    28.410     8.740
    30   6 C        2.912    -0.035    28.874     8.811
    31   6 C        2.920    -0.043    29.073     8.842
    32   6 C        2.924    -0.035    28.883     8.813
    33   6 C        2.909    -0.052    29.294     8.875
    34   6 C        3.076     0.048    26.854     8.496
    35   7 N        2.802    -0.047    22.152     6.990
    36   6 C        2.913     0.064    26.558     8.451
    37   6 C        2.922    -0.042    29.049     8.839
    38   6 C        2.920    -0.028    28.705     8.786
    39   6 C        2.919    -0.033    28.825     8.804
    40   6 C        2.920    -0.028    28.704     8.786
    41   6 C        2.922    -0.042    29.047     8.838
    42   6 C        2.929    -0.040    28.987     8.830
    43   6 C        2.908    -0.053    29.310     8.877
    44   6 C        3.074     0.045    26.919     8.507
    45   6 C        2.920    -0.043    29.056     8.839
    46   6 C        2.924    -0.032    28.801     8.801
    47   1 H        0.926     0.042     2.422     2.433
    48   1 H        0.926     0.048     2.344     2.394
    49   1 H        0.926     0.050     2.319     2.382
    50   1 H        0.926     0.050     2.325     2.385
    51   1 H        0.926     0.036     2.502     2.473
    52   1 H        0.926     0.045     2.377     2.411
    53   1 H        0.926     0.030     2.592     2.517
    54   1 H        0.926     0.030     2.579     2.511
    55   1 H        0.926     0.029     2.607     2.525
    56   1 H        0.926     0.031     2.572     2.508
    57   1 H        0.926     0.032     2.562     2.503
    58   1 H        0.926     0.031     2.569     2.507
    59   1 H        0.926     0.030     2.592     2.518
    60   1 H        0.926     0.031     2.574     2.509
    61   1 H        0.926     0.029     2.596     2.520
    62   1 H        0.926     0.027     2.631     2.537
    63   1 H        0.926     0.029     2.599     2.521
    64   1 H        0.926     0.029     2.598     2.521
    65   1 H        0.926     0.041     2.439     2.442
    66   1 H        0.926     0.040     2.452     2.449
    67   1 H        0.926     0.039     2.464     2.455
    68   1 H        0.926     0.040     2.452     2.449
    69   1 H        0.926     0.041     2.437     2.441
    70   1 H        0.926     0.032     2.554     2.499
    71   1 H        0.926     0.031     2.575     2.509
    72   1 H        0.926     0.048     2.347     2.396
    73   1 H        0.926     0.046     2.366     2.406

molecular dipole:
                 x           y           z       tot (Debye)
 q only:       -0.624      -1.374      -0.652
   full:       -0.619      -1.736      -0.720       5.029

 projected vibrational frequencies (cm⁻¹)
eigval :       -0.00     0.00     0.00     0.00     0.00     0.00
eigval :       -5.27    13.35    14.18    26.29    29.78    36.79
eigval :       51.31    54.46    64.85    73.56    74.85    90.28
eigval :       95.34   111.89   119.90   127.14   136.45   143.01
eigval :      146.45   168.54   182.65   203.42   213.20   230.13
eigval :      252.49   261.70   262.73   282.29   285.98   325.09
eigval :      352.21   357.41   369.26   379.92   381.03   383.99
eigval :      392.60   393.69   401.44   412.44   417.70   427.66
eigval :      434.88   443.37   467.30   470.25   487.06   500.22
eigval :      523.90   525.95   534.30   537.41   546.76   555.41
eigval :      568.63   574.15   583.20   588.90   592.89   601.84
eigval :      604.90   611.54   620.59   624.97   646.37   669.55
eigval :      676.33   682.30   686.98   693.77   706.90   707.35
eigval :      708.93   724.23   746.95   761.92   766.78   775.08
eigval :      776.02   777.97   784.75   809.31   822.53   831.80
eigval :      847.34   868.67   870.25   873.41   876.54   879.14
eigval :      882.24   886.17   893.89   901.15   902.96   905.22
eigval :      908.51   912.42   917.94   919.00   920.41   922.46
eigval :      924.94   926.17   931.23   931.47   932.89   933.46
eigval :      935.78   996.50   997.10  1012.01  1029.37  1043.83
eigval :     1069.49  1070.96  1072.06  1079.25  1089.76  1116.91
eigval :     1119.98  1123.41  1131.58  1138.72  1153.03  1155.26
eigval :     1176.08  1177.17  1178.65  1180.06  1182.47  1183.21
eigval :     1198.59  1201.93  1210.96  1220.15  1231.12  1239.96
eigval :     1241.36  1246.54  1255.01  1267.41  1272.62  1274.12
eigval :     1286.53  1291.40  1302.11  1312.08  1314.19  1315.49
eigval :     1318.03  1343.64  1351.57  1358.71  1360.21  1362.57
eigval :     1377.72  1400.47  1416.64  1420.12  1423.41  1427.39
eigval :     1432.95  1437.04  1453.70  1457.71  1479.60  1480.41
eigval :     1481.77  1498.40  1499.44  1552.32  1559.97  1563.78
eigval :     1568.85  1579.84  1581.23  1582.30  1583.70  1593.25
eigval :     1593.44  1595.14  1598.20  1610.25  1615.33  2356.38
eigval :     3069.46  3071.88  3074.76  3074.98  3075.92  3076.69
eigval :     3076.82  3077.76  3080.86  3081.55  3082.83  3083.18
eigval :     3083.48  3083.74  3083.96  3084.84  3086.48  3087.48
eigval :     3089.29  3089.98  3091.30  3091.67  3092.32  3095.40
eigval :     3096.56  3097.89  3100.23

   temp. (K)  partition function   enthalpy   heat capacity  entropy
                                   cal/mol     cal/K/mol   cal/K/mol   J/K/mol
 298.15  VIB  0.201E+17            20697.723    132.602    129.057
         ROT  0.109E+09              888.752      2.981     39.762
         INT  0.220E+25            21586.475    135.583    168.820
         TR   0.137E+29             1481.254      4.968     44.967
         TOT                       23067.7288   140.5512   213.7861   894.4808

       T/K    H(0)-H(T)+PV         H(T)/Eh          T*S/Eh         G(T)/Eh
   ------------------------------------------------------------------------
    298.15    0.367608E-01    0.592328E+00    0.101577E+00    0.490752E+00
   ------------------------------------------------------------------------

         :::::::::::::::::::::::::::::::::::::::::::::::::::::
         ::                  THERMODYNAMIC                  ::
         :::::::::::::::::::::::::::::::::::::::::::::::::::::
         :: total free energy        -114.206158036411 Eh   ::
         ::.................................................::
         :: total energy             -114.696909656287 Eh   ::
         :: zero point energy           0.555567505247 Eh   ::
         :: G(RRHO) w/o ZPVE           -0.064815885371 Eh   ::
         :: G(RRHO) contrib.            0.490751619876 Eh   ::
         :::::::::::::::::::::::::::::::::::::::::::::::::::::

           -------------------------------------------------
          | TOTAL ENERGY             -114.696909656287 Eh   |
          | TOTAL ENTHALPY           -114.104581385275 Eh   |
          | TOTAL FREE ENERGY        -114.206158036411 Eh   |
          | GRADIENT NORM               0.000079275279 Eh/α |
          | HOMO-LUMO GAP               2.056143173035 eV   |
           -------------------------------------------------

 * finished run on 2025/08/25 at 09:03:37.270
