   * xtb version 6.7.1 (edcfbbe) compiled by 'albert@albert-system' on 2024-07-22

   ID    Z sym.   atoms
    1    7 N      1, 13, 35
    2    6 C      2-12, 14-34, 36-46
    3    1 H      47-73

          program call               : xtb data2507/toluene/BPCN-2Cz/BPCN-2Cz.xyz --gfn 2 --gbsa toluene --ohess vtight --parallel 40 --molden --ceasefiles --namespace data2507/toluene/BPCN-2Cz/BPCN-2Cz_toluene_S0_preOpt
      * Solvation model:               GBSA
        Solvent                        toluene
        Solvent mass                       9.2140E+01 g/mol
          :  Hamiltonian                  GFN2-xTB          :
 * total energy  :  -114.6766047 Eh     change       -0.2175156E-08 Eh
 * total energy  :  -114.6898971 Eh     change       -0.1329238E-01 Eh
 * total energy  :  -114.6926189 Eh     change       -0.2721775E-02 Eh
 * total energy  :  -114.6922196 Eh     change        0.3992328E-03 Eh
 * total energy  :  -114.6937224 Eh     change       -0.1502827E-02 Eh
 * total energy  :  -114.6940712 Eh     change       -0.3487054E-03 Eh
 * total energy  :  -114.6943844 Eh     change       -0.3132048E-03 Eh
 * total energy  :  -114.6946043 Eh     change       -0.2199848E-03 Eh
 * total energy  :  -114.6948308 Eh     change       -0.2264653E-03 Eh
 * total energy  :  -114.6950482 Eh     change       -0.2174173E-03 Eh
 * total energy  :  -114.6968125 Eh     change       -0.7218792E-06 Eh
 * total energy  :  -114.6968133 Eh     change       -0.7590159E-06 Eh
 * total energy  :  -114.6968142 Eh     change       -0.8687768E-06 Eh
 * total energy  :  -114.6968151 Eh     change       -0.9074611E-06 Eh
 * total energy  :  -114.6968161 Eh     change       -0.9934124E-06 Eh
 * total energy  :  -114.6968171 Eh     change       -0.1008449E-05 Eh
 * total energy  :  -114.6968181 Eh     change       -0.9987344E-06 Eh
 * total energy  :  -114.6968190 Eh     change       -0.9360579E-06 Eh
 * total energy  :  -114.6968190 Eh     change       -0.6572989E-08 Eh
   *** GEOMETRY OPTIMIZATION CONVERGED AFTER 68 ITERATIONS ***

 final structure:
================
73
 xtb: 6.7.1 (edcfbbe)
N            9.38701890011646        1.41897685276353       -0.01159013845399
C            9.22343827529333        0.29608288259579       -0.19024432597012
C            9.08930906173312       -1.08697620343593       -0.44297175336351
C           10.25012799880050       -1.83227044989562       -0.66303623559058
C           10.16000797551586       -3.17639004756577       -0.96599068844439
C            8.91431927796203       -3.78077475488189       -1.06035208576771
C            7.76236907862772       -3.04525880615811       -0.84713995297204
C            7.82451523102921       -1.69233884219698       -0.52759813081768
C            6.59741207650845       -0.91794146065818       -0.29396486366253
C            6.47400329441000       -0.08688638865353        0.81737665717409
C            5.32272302067617        0.64552973688888        1.02551276226537
C            4.27300082777845        0.57635951554210        0.11245285354273
N            3.11837183892172        1.34519144906673        0.30038033107773
C            3.08591124697948        2.70424468568684        0.55399306463703
C            4.13221628185968        3.60858463406374        0.67126166546417
C            3.81699924724268        4.93401830624575        0.90488875890181
C            2.49460900243048        5.36087547697019        1.00856016591099
C            1.44890081821478        4.47048817934764        0.86512670326522
C            1.74060466365834        3.13294911861395        0.63100212903833
C            0.92681310627258        1.96906602654384        0.41094578040649
C           -0.44357409405330        1.76156696871649        0.37006772502538
C           -0.93080664416139        0.47955589764241        0.14968850916653
C           -2.38078861549743        0.23664433208831        0.07552239971910
C           -3.19343612384818        1.11069049171386       -0.66054899554633
C           -4.55618159381833        0.92728585201671       -0.77285309613947
C           -5.12489146212316       -0.15449053697331       -0.11481391667023
C           -4.32187838725337       -1.05604412483060        0.62132673170686
C           -2.95205224243973       -0.85721907956821        0.71229496904118
C           -5.20822596803252       -2.06311654760322        1.13560279516945
C           -5.02238228398694       -3.18190444253390        1.93762814136381
C           -6.12276030166549       -3.94426436570562        2.27626491358321
C           -7.39855890040348       -3.59572404481452        1.83662661370318
C           -7.60872685818696       -2.48840543772987        1.03705965731741
C           -6.50384537402816       -1.73002992083121        0.67550171182981
N           -6.43890749029904       -0.57530492881806       -0.07819474225212
C           -7.51962924355386        0.05391631445736       -0.71714142920248
C           -8.36387397487910       -0.67874786309557       -1.54655932593956
C           -9.42701938917097       -0.05515762882744       -2.17398478817763
C           -9.64966372335209        1.29985047614835       -1.99058086634091
C           -8.80764108619587        2.03105577377629       -1.16870772128914
C           -7.74859555160897        1.41373021072289       -0.52819926575600
C           -0.03114993140713       -0.58403197230761       -0.00474995126189
C            1.33623728188288       -0.39905601320485        0.02398387970583
C            1.81681568688992        0.88940268490205        0.21130918944373
C            4.38638794662402       -0.26081964770204       -0.99565740025556
C            5.53134496150476       -1.00645513680331       -1.18742816364394
H           11.21097967311515       -1.34236282323480       -0.59775744144863
H           11.05816777479233       -3.75123883848532       -1.13260191841981
H            8.84279890319404       -4.83116967040566       -1.29998777391763
H            6.79587007978236       -3.52289084979261       -0.90935809304258
H            7.27667602078408       -0.03083312727269        1.53825013209673
H            5.22794093518786        1.26747600333116        1.90267723500442
H            5.16072169733742        3.29507780274441        0.57310821315786
H            4.61513828242486        5.65526124031632        1.00437220778449
H            2.28964459211019        6.40497876717233        1.19495026683837
H            0.42354370402460        4.80326310431842        0.92857944494539
H           -1.12398168112552        2.58488804614233        0.52880230625713
H           -2.72994600994144        1.93970183431184       -1.17548643148120
H           -5.15609123149290        1.59993472163463       -1.36733656587416
H           -2.34044939213516       -1.53696982148757        1.28672734394249
H           -4.03614766089597       -3.44343238711273        2.29172040622969
H           -5.99946951125911       -4.81874650907770        2.89848773042562
H           -8.24254743926674       -4.20298535702517        2.13040300118827
H           -8.60300646933097       -2.21748443888644        0.71496189607906
H           -8.17463326526835       -1.73043318873365       -1.70341649317812
H          -10.07857067989428       -0.62887628865120       -2.81673482635828
H          -10.47720142506807        1.78455694874197       -2.48661557357881
H           -8.97955409159061        3.08690631505793       -1.01910004362753
H           -7.10191921379219        1.97593520455135        0.12909104633365
H           -0.42384204251085       -1.57649254876973       -0.17149261047856
H            2.00732322219387       -1.23690931848208       -0.09070299827325
H            3.58171977587755       -0.30598084311890       -1.71395157987175
H            5.61796859177702       -1.63763219951102       -2.05965815167829

          :  Hamiltonian                  GFN2-xTB          :
         :: gradient norm              0.000075594645 Eh/a0 ::
         :: HOMO-LUMO gap              2.064190900536 eV    ::
         :: SCC energy              -116.918751251614 Eh    ::
         :: -> dispersion             -0.100445606824 Eh    ::
         :: -> Gsolv                  -0.051273444968 Eh    ::
         :: repulsion energy           2.221932229415 Eh    ::

    * Orbital Energies and Occupations

         #    Occupation            Energy/Eh            Energy/eV
      -------------------------------------------------------------
         1        2.0000           -0.6762277             -18.4011
       ...           ...                  ...                  ...
        95        2.0000           -0.4198672             -11.4252
        96        2.0000           -0.4170780             -11.3493
        97        2.0000           -0.4145471             -11.2804
        98        2.0000           -0.4136639             -11.2564
        99        2.0000           -0.4114188             -11.1953
       100        2.0000           -0.4091200             -11.1327
       101        2.0000           -0.4067465             -11.0681
       102        2.0000           -0.4036153             -10.9829
       103        2.0000           -0.3970641             -10.8047
       104        2.0000           -0.3789505             -10.3118
       105        2.0000           -0.3762121             -10.2373
       106        2.0000           -0.3656498              -9.9498
       107        2.0000           -0.3540754              -9.6349 (HOMO)
       108                         -0.2782178              -7.5707 (LUMO)
       109                         -0.2554356              -6.9508
       110                         -0.2445924              -6.6557
       111                         -0.2436742              -6.6307
       112                         -0.2362006              -6.4273
       113                         -0.2359156              -6.4196
       114                         -0.2304088              -6.2697
       115                         -0.2303128              -6.2671
       116                         -0.2220999              -6.0436
       117                         -0.2137357              -5.8160
       118                         -0.2118567              -5.7649
       ...                                ...                  ...
       211                          1.1542028              31.4075
      -------------------------------------------------------------
                  HL-Gap            0.0758576 Eh            2.0642 eV

     #   Z          covCN         q      C6AA      α(0)
     1   7 N        0.911    -0.281    27.259     7.551
     2   6 C        1.913     0.121    28.127     8.565
     3   6 C        2.977     0.010    27.792     8.647
     4   6 C        2.929    -0.019    28.478     8.752
     5   6 C        2.918    -0.026    28.654     8.778
     6   6 C        2.917    -0.020    28.500     8.754
     7   6 C        2.923    -0.030    28.745     8.792
     8   6 C        2.980     0.022    27.520     8.605
     9   6 C        2.976     0.005    27.908     8.665
    10   6 C        2.923    -0.029    28.720     8.788
    11   6 C        2.921    -0.041    29.025     8.835
    12   6 C        2.912     0.066    26.522     8.445
    13   7 N        2.801    -0.044    22.096     6.981
    14   6 C        3.073     0.047    26.870     8.499
    15   6 C        2.909    -0.051    29.274     8.872
    16   6 C        2.924    -0.035    28.859     8.810
    17   6 C        2.920    -0.042    29.047     8.838
    18   6 C        2.912    -0.035    28.865     8.810
    19   6 C        3.067    -0.018    28.385     8.736
    20   6 C        3.064    -0.018    28.404     8.740
    21   6 C        2.918    -0.040    28.995     8.830
    22   6 C        2.977    -0.001    28.054     8.688
    23   6 C        2.977    -0.002    28.076     8.692
    24   6 C        2.929    -0.040    28.989     8.830
    25   6 C        2.908    -0.053    29.311     8.877
    26   6 C        3.077     0.046    26.895     8.503
    27   6 C        3.064    -0.020    28.432     8.744
    28   6 C        2.917    -0.040    29.004     8.831
    29   6 C        3.068    -0.019    28.410     8.740
    30   6 C        2.912    -0.035    28.874     8.811
    31   6 C        2.920    -0.043    29.073     8.842
    32   6 C        2.924    -0.035    28.883     8.813
    33   6 C        2.909    -0.052    29.293     8.875
    34   6 C        3.076     0.048    26.854     8.496
    35   7 N        2.801    -0.047    22.151     6.990
    36   6 C        2.913     0.064    26.558     8.451
    37   6 C        2.922    -0.042    29.049     8.839
    38   6 C        2.920    -0.028    28.705     8.786
    39   6 C        2.919    -0.033    28.825     8.804
    40   6 C        2.920    -0.028    28.704     8.786
    41   6 C        2.922    -0.042    29.049     8.838
    42   6 C        2.928    -0.040    28.986     8.829
    43   6 C        2.908    -0.053    29.306     8.877
    44   6 C        3.074     0.045    26.921     8.507
    45   6 C        2.921    -0.043    29.059     8.840
    46   6 C        2.924    -0.032    28.801     8.801
    47   1 H        0.926     0.042     2.421     2.433
    48   1 H        0.926     0.048     2.344     2.394
    49   1 H        0.926     0.050     2.320     2.382
    50   1 H        0.926     0.050     2.326     2.385
    51   1 H        0.926     0.036     2.502     2.474
    52   1 H        0.926     0.046     2.374     2.410
    53   1 H        0.926     0.030     2.587     2.515
    54   1 H        0.926     0.031     2.578     2.511
    55   1 H        0.926     0.029     2.606     2.525
    56   1 H        0.926     0.031     2.571     2.507
    57   1 H        0.926     0.032     2.563     2.504
    58   1 H        0.926     0.031     2.571     2.508
    59   1 H        0.926     0.030     2.590     2.517
    60   1 H        0.926     0.031     2.576     2.510
    61   1 H        0.926     0.029     2.596     2.520
    62   1 H        0.926     0.027     2.631     2.537
    63   1 H        0.926     0.029     2.599     2.521
    64   1 H        0.926     0.029     2.599     2.521
    65   1 H        0.926     0.041     2.440     2.443
    66   1 H        0.926     0.040     2.453     2.449
    67   1 H        0.926     0.039     2.464     2.455
    68   1 H        0.926     0.040     2.452     2.449
    69   1 H        0.926     0.041     2.436     2.440
    70   1 H        0.926     0.032     2.556     2.500
    71   1 H        0.926     0.031     2.574     2.509
    72   1 H        0.926     0.048     2.350     2.397
    73   1 H        0.926     0.046     2.369     2.407

molecular dipole:
                 x           y           z       tot (Debye)
 q only:       -0.564      -1.399      -0.677
   full:       -0.545      -1.761      -0.756       5.064

 projected vibrational frequencies (cm⁻¹)
eigval :       -0.00    -0.00     0.00     0.00     0.00     0.00
eigval :        9.43    12.89    19.92    28.71    29.75    37.44
eigval :       51.25    57.91    66.60    73.30    78.08    92.12
eigval :       95.49   110.63   122.42   128.35   136.71   143.16
eigval :      146.37   167.62   182.65   203.43   212.55   230.67
eigval :      253.39   262.56   262.82   282.28   286.62   325.15
eigval :      353.98   357.10   368.43   378.84   381.21   383.49
eigval :      392.04   394.86   401.53   413.14   417.91   428.20
eigval :      434.93   443.39   467.33   471.06   487.22   499.97
eigval :      524.16   525.96   535.30   538.27   549.01   554.77
eigval :      567.56   573.95   583.25   588.98   592.88   601.42
eigval :      604.57   611.17   620.67   624.70   646.29   670.17
eigval :      676.13   683.69   686.72   693.71   706.67   707.36
eigval :      709.04   724.28   747.35   764.82   766.68   773.79
eigval :      775.31   777.23   784.59   811.02   824.68   833.06
eigval :      847.32   866.41   869.27   875.03   877.75   880.58
eigval :      882.89   885.78   894.48   899.34   902.12   905.34
eigval :      909.52   913.96   917.94   918.89   920.71   923.63
eigval :      924.92   926.68   931.55   933.71   934.97   935.44
eigval :      936.79   996.36   997.02  1011.99  1029.15  1043.91
eigval :     1069.12  1071.13  1072.49  1079.28  1090.08  1116.96
eigval :     1119.83  1123.18  1131.76  1139.73  1152.91  1155.18
eigval :     1176.91  1177.47  1178.14  1181.61  1182.53  1183.37
eigval :     1198.24  1201.10  1210.42  1220.61  1230.55  1240.11
eigval :     1241.46  1246.05  1254.78  1267.37  1272.83  1274.34
eigval :     1287.25  1291.03  1302.00  1312.23  1314.30  1315.54
eigval :     1318.09  1343.56  1351.48  1358.58  1360.08  1362.26
eigval :     1377.51  1400.69  1416.40  1419.91  1423.32  1427.23
eigval :     1433.07  1437.14  1454.01  1457.94  1479.58  1480.42
eigval :     1481.81  1498.62  1499.85  1552.68  1560.05  1563.78
eigval :     1568.79  1580.14  1581.32  1582.38  1583.59  1593.25
eigval :     1593.45  1595.31  1598.17  1610.29  1615.20  2355.67
eigval :     3070.09  3071.80  3074.87  3075.17  3075.82  3076.44
eigval :     3077.19  3077.41  3079.35  3080.55  3081.96  3082.67
eigval :     3083.29  3083.78  3084.01  3085.13  3086.51  3087.75
eigval :     3089.07  3089.68  3091.24  3092.20  3092.50  3096.12
eigval :     3096.53  3098.22  3099.97

   temp. (K)  partition function   enthalpy   heat capacity  entropy
                                   cal/mol     cal/K/mol   cal/K/mol   J/K/mol
 298.15  VIB  0.666E+16            20658.672    132.717    127.956
         ROT  0.109E+09              888.752      2.981     39.764
         INT  0.728E+24            21547.425    135.698    167.720
         TR   0.137E+29             1481.254      4.968     44.967
         TOT                       23028.6785   140.6661   212.6868   889.8814

       T/K    H(0)-H(T)+PV         H(T)/Eh          T*S/Eh         G(T)/Eh
   ------------------------------------------------------------------------
    298.15    0.366985E-01    0.592376E+00    0.101054E+00    0.491322E+00
   ------------------------------------------------------------------------

         :::::::::::::::::::::::::::::::::::::::::::::::::::::
         ::                  THERMODYNAMIC                  ::
         :::::::::::::::::::::::::::::::::::::::::::::::::::::
         :: total free energy        -114.205496957316 Eh   ::
         ::.................................................::
         :: total energy             -114.696819022346 Eh   ::
         :: zero point energy           0.555677869422 Eh   ::
         :: G(RRHO) w/o ZPVE           -0.064355804392 Eh   ::
         :: G(RRHO) contrib.            0.491322065030 Eh   ::
         :::::::::::::::::::::::::::::::::::::::::::::::::::::

           -------------------------------------------------
          | TOTAL ENERGY             -114.696819022346 Eh   |
          | TOTAL ENTHALPY           -114.104442617813 Eh   |
          | TOTAL FREE ENERGY        -114.205496957316 Eh   |
          | GRADIENT NORM               0.000075604529 Eh/α |
          | HOMO-LUMO GAP               2.064191265995 eV   |
           -------------------------------------------------

 * finished run on 2025/08/25 at 09:00:06.858
