   * xtb version 6.7.1 (edcfbbe) compiled by 'albert@albert-system' on 2024-07-22

   ID    Z sym.   atoms
    1    6 C      1-5, 7, 8, 10-24, 26-38
    2    7 N      6, 9, 25
    3    1 H      39-61

          program call               : xtb data2507/toluene/CPPyC/CPPyC.xyz --gfn 2 --gbsa toluene --ohess vtight --parallel 40 --molden --ceasefiles --namespace data2507/toluene/CPPyC/CPPyC_toluene_S0_preOpt
      * Solvation model:               GBSA
        Solvent                        toluene
        Solvent mass                       9.2140E+01 g/mol
          :  Hamiltonian                  GFN2-xTB          :
 * total energy  :   -95.5308041 Eh     change       -0.3153033E-08 Eh
 * total energy  :   -95.5436333 Eh     change       -0.1282924E-01 Eh
 * total energy  :   -95.5461393 Eh     change       -0.2505933E-02 Eh
 * total energy  :   -95.5465373 Eh     change       -0.3980308E-03 Eh
 * total energy  :   -95.5468886 Eh     change       -0.3513631E-03 Eh
 * total energy  :   -95.5470221 Eh     change       -0.1334051E-03 Eh
 * total energy  :   -95.5471413 Eh     change       -0.1192657E-03 Eh
 * total energy  :   -95.5472175 Eh     change       -0.7620008E-04 Eh
 * total energy  :   -95.5472774 Eh     change       -0.5991153E-04 Eh
 * total energy  :   -95.5473296 Eh     change       -0.5216400E-04 Eh
 * total energy  :   -95.5478000 Eh     change       -0.5181681E-06 Eh
 * total energy  :   -95.5478005 Eh     change       -0.5047368E-06 Eh
 * total energy  :   -95.5478011 Eh     change       -0.5508123E-06 Eh
 * total energy  :   -95.5478017 Eh     change       -0.5808027E-06 Eh
 * total energy  :   -95.5478022 Eh     change       -0.5083992E-06 Eh
 * total energy  :   -95.5478025 Eh     change       -0.3607611E-06 Eh
 * total energy  :   -95.5478028 Eh     change       -0.2154574E-06 Eh
 * total energy  :   -95.5478029 Eh     change       -0.1600132E-06 Eh
 * total energy  :   -95.5478029 Eh     change       -0.1616442E-08 Eh
   *** GEOMETRY OPTIMIZATION CONVERGED AFTER 68 ITERATIONS ***

 final structure:
================
61
 xtb: 6.7.1 (edcfbbe)
C            1.53468498472234        0.75866222425218        2.88731517590085
C            0.41515089504764        0.24236656930883        2.26011255106273
C            0.53003470845048       -0.38095441393206        1.01892183183807
C           -0.65228221024086       -0.93205330245303        0.34227372561724
C           -0.60145815619524       -2.15347127356562       -0.33299993567295
N           -1.63573615375911       -2.68830331860590       -0.95541726510816
C           -2.78491026022188       -2.04062393145152       -0.95323102572833
C           -2.96542684510316       -0.81690265186860       -0.30430267539758
N           -4.20049143629621       -0.16467817365636       -0.32457285112971
C           -5.42633227176940       -0.74248274191048       -0.04441546373644
C           -5.72206236281838       -2.03335088571461        0.36956025972741
C           -7.04608628900332       -2.34435478724582        0.61699220077381
C           -8.05638985437293       -1.39659488189480        0.46782195884423
C           -7.76493699570014       -0.10384479886577        0.07968850480774
C           -6.44158404890676        0.23205376445124       -0.17626962653056
C           -5.79090659314636        1.45208449998120       -0.56806381279603
C           -6.25478588836921        2.72638455130471       -0.86887808102893
C           -5.34200171979746        3.69129028851797       -1.24673182078590
C           -3.98429008178313        3.39395614763748       -1.34122713392388
C           -3.49918820045173        2.13307325013209       -1.04792920802164
C           -4.40872655663340        1.16602284482182       -0.64421623344632
C           -1.87273194460446       -0.26319040403952        0.35711903915894
C            1.78142706589959       -0.46971483478290        0.41802140187889
C            2.90547146638545        0.05064118654686        1.04902187628635
N            4.16087169953927       -0.04547620677372        0.43094833607973
C            4.72225828260205       -1.19965767869062       -0.07958337069297
C            4.23879045201170       -2.50041801883353       -0.06171525408548
C            5.02138069905250       -3.48861564529968       -0.62799779193395
C            6.26191900649006       -3.19896993430812       -1.19304196629656
C            6.75985994796359       -1.91102767076058       -1.19077496598220
C            5.99124217380570       -0.90041980601660       -0.62696526988278
C            6.19524690153617        0.50896186384241       -0.43714972753430
C            7.22571170533315        1.37913359198917       -0.77009598091270
C            7.09118072075285        2.71657968065219       -0.45410168520690
C            5.94142048422890        3.19207136280292        0.17361192314242
C            4.90331532897954        2.34610732150314        0.51521247949364
C            5.04285819169031        0.99679655199184        0.22177937288157
C            2.77982441506946        0.66492408228469        2.29236879352417
H            1.43842770470505        1.23096833507574        3.85363223056343
H           -0.54819961832859        0.30258137211743        2.74347672295075
H            0.30870491390875       -2.73684191718462       -0.36292226361482
H           -3.59388226576780       -2.50567684041970       -1.50043583377540
H           -4.94645788618577       -2.77229869566825        0.50444762179579
H           -7.30157611389428       -3.34436993673954        0.93549248029042
H           -9.07930937032686       -1.67927480844944        0.66838447180561
H           -8.54590857086823        0.63480187637221       -0.02080250347682
H           -7.30916285199336        2.95155361762374       -0.81285887664731
H           -5.68189130612465        4.68885174070183       -1.48297461081149
H           -3.29471351050531        4.16400304819658       -1.65499092233924
H           -2.44707939788936        1.91144883151996       -1.14632123668303
H           -1.97403663416236        0.68140900795142        0.87075277333873
H            1.88113545093978       -0.91612089691225       -0.56007571826022
H            3.28760070704818       -2.73766437932159        0.39055411748890
H            4.66506227827749       -4.50858102257566       -0.62993661055574
H            6.84277592688864       -3.99839654197497       -1.62937337871741
H            7.72851368369031       -1.69027599532870       -1.61393891750031
H            8.11020377529639        1.01349895212556       -1.27017221437009
H            7.88223242359794        3.40900715403652       -0.70249782405479
H            5.85794357303299        4.24630730331173        0.39477207420426
H            4.01005967107718        2.72766682437310        0.98646202207345
H            3.65723615718891        1.05139854981935        2.78823611112549

          :  Hamiltonian                  GFN2-xTB          :
         :: gradient norm              0.000032516567 Eh/a0 ::
         :: HOMO-LUMO gap              2.593843564465 eV    ::
         :: SCC energy               -97.337099272516 Eh    ::
         :: -> dispersion             -0.082295501195 Eh    ::
         :: -> Gsolv                  -0.039609698476 Eh    ::
         :: repulsion energy           1.789296353099 Eh    ::

    * Orbital Energies and Occupations

         #    Occupation            Energy/Eh            Energy/eV
      -------------------------------------------------------------
         1        2.0000           -0.6831779             -18.5902
       ...           ...                  ...                  ...
        77        2.0000           -0.4229519             -11.5091
        78        2.0000           -0.4219294             -11.4813
        79        2.0000           -0.4201306             -11.4323
        80        2.0000           -0.4189480             -11.4002
        81        2.0000           -0.4157354             -11.3127
        82        2.0000           -0.4095108             -11.1434
        83        2.0000           -0.4065628             -11.0631
        84        2.0000           -0.4054923             -11.0340
        85        2.0000           -0.3835919             -10.4381
        86        2.0000           -0.3828810             -10.4187
        87        2.0000           -0.3793951             -10.3239
        88        2.0000           -0.3663632              -9.9692
        89        2.0000           -0.3638944              -9.9021 (HOMO)
        90                         -0.2685724              -7.3082 (LUMO)
        91                         -0.2584573              -7.0330
        92                         -0.2478190              -6.7435
        93                         -0.2470391              -6.7223
        94                         -0.2376733              -6.4674
        95                         -0.2262011              -6.1552
        96                         -0.2227930              -6.0625
        97                         -0.2221764              -6.0457
        98                         -0.1965113              -5.3473
        99                         -0.1906725              -5.1885
       100                         -0.1902566              -5.1771
       ...                                ...                  ...
       175                          0.7435475              20.2330
      -------------------------------------------------------------
                  HL-Gap            0.0953220 Eh            2.5938 eV

     #   Z          covCN         q      C6AA      α(0)
     1   6 C        2.918    -0.027    28.675     8.781
     2   6 C        2.923    -0.037    28.913     8.818
     3   6 C        2.976     0.011    27.766     8.643
     4   6 C        2.971     0.004    27.940     8.670
     5   6 C        2.914     0.050    26.881     8.502
     6   7 N        1.835    -0.232    26.932     7.690
     7   6 C        2.911     0.045    26.990     8.519
     8   6 C        2.904     0.056    26.738     8.479
     9   7 N        2.800    -0.049    22.186     6.996
    10   6 C        3.070     0.046    26.894     8.503
    11   6 C        2.910    -0.052    29.284     8.873
    12   6 C        2.924    -0.033    28.834     8.806
    13   6 C        2.920    -0.041    29.016     8.833
    14   6 C        2.912    -0.034    28.841     8.806
    15   6 C        3.066    -0.017    28.358     8.732
    16   6 C        3.066    -0.017    28.358     8.732
    17   6 C        2.912    -0.034    28.839     8.806
    18   6 C        2.920    -0.041    29.019     8.834
    19   6 C        2.924    -0.034    28.846     8.808
    20   6 C        2.910    -0.052    29.281     8.873
    21   6 C        3.070     0.047    26.875     8.500
    22   6 C        2.935    -0.034    28.841     8.808
    23   6 C        2.928    -0.047    29.174     8.858
    24   6 C        2.911     0.066    26.514     8.443
    25   7 N        2.802    -0.046    22.130     6.987
    26   6 C        3.075     0.047    26.872     8.499
    27   6 C        2.910    -0.052    29.283     8.873
    28   6 C        2.924    -0.035    28.864     8.810
    29   6 C        2.920    -0.042    29.050     8.839
    30   6 C        2.912    -0.035    28.860     8.809
    31   6 C        3.067    -0.018    28.396     8.738
    32   6 C        3.067    -0.018    28.394     8.738
    33   6 C        2.912    -0.035    28.862     8.809
    34   6 C        2.919    -0.042    29.054     8.839
    35   6 C        2.924    -0.035    28.869     8.811
    36   6 C        2.910    -0.052    29.293     8.875
    37   6 C        3.074     0.047    26.869     8.499
    38   6 C        2.922    -0.042    29.049     8.838
    39   1 H        0.926     0.046     2.370     2.407
    40   1 H        0.926     0.043     2.406     2.426
    41   1 H        0.925     0.043     2.405     2.425
    42   1 H        0.925     0.045     2.389     2.417
    43   1 H        0.926     0.028     2.613     2.528
    44   1 H        0.926     0.033     2.539     2.492
    45   1 H        0.926     0.032     2.560     2.502
    46   1 H        0.926     0.034     2.526     2.485
    47   1 H        0.926     0.034     2.530     2.487
    48   1 H        0.926     0.031     2.567     2.505
    49   1 H        0.926     0.033     2.547     2.496
    50   1 H        0.926     0.029     2.602     2.523
    51   1 H        0.926     0.053     2.285     2.364
    52   1 H        0.926     0.044     2.396     2.421
    53   1 H        0.926     0.028     2.616     2.529
    54   1 H        0.926     0.031     2.576     2.510
    55   1 H        0.926     0.028     2.608     2.525
    56   1 H        0.926     0.031     2.576     2.510
    57   1 H        0.926     0.031     2.578     2.511
    58   1 H        0.926     0.028     2.613     2.528
    59   1 H        0.926     0.030     2.581     2.512
    60   1 H        0.926     0.030     2.583     2.513
    61   1 H        0.926     0.047     2.360     2.402

molecular dipole:
                 x           y           z       tot (Debye)
 q only:       -0.132       0.453       0.636
   full:       -0.149       0.699       0.797       2.721

 projected vibrational frequencies (cm⁻¹)
eigval :       -0.00    -0.00    -0.00     0.00     0.00     0.00
eigval :       12.55    16.15    22.55    36.35    40.02    64.53
eigval :       74.27    90.41    93.60   107.39   112.29   135.98
eigval :      145.03   150.56   190.28   208.01   223.55   230.75
eigval :      243.31   270.94   271.71   277.02   284.16   320.60
eigval :      329.48   345.43   385.51   391.49   397.58   399.17
eigval :      422.25   423.74   434.58   436.52   444.31   455.27
eigval :      513.50   517.65   519.68   529.25   540.18   541.00
eigval :      542.13   568.78   585.49   590.11   595.75   608.73
eigval :      614.34   621.20   647.37   671.52   673.22   675.34
eigval :      684.03   694.17   706.74   709.20   725.96   754.48
eigval :      756.99   769.70   771.19   780.73   782.81   798.29
eigval :      815.00   836.54   867.88   871.03   873.73   875.75
eigval :      890.71   895.08   897.06   900.45   901.93   902.70
eigval :      905.36   905.98   909.57   916.65   922.59   923.17
eigval :      926.41   928.21   929.66   933.18   993.22  1001.90
eigval :     1010.62  1011.21  1013.99  1068.95  1069.85  1072.67
eigval :     1074.30  1096.24  1116.82  1117.89  1128.14  1150.62
eigval :     1150.87  1169.83  1173.40  1177.12  1178.83  1181.23
eigval :     1182.53  1183.94  1193.42  1228.30  1233.86  1235.06
eigval :     1241.56  1245.94  1257.47  1277.56  1280.47  1297.27
eigval :     1298.35  1301.16  1302.98  1316.36  1346.28  1355.13
eigval :     1355.93  1358.48  1359.92  1365.44  1403.76  1413.05
eigval :     1422.11  1426.58  1427.31  1445.09  1457.72  1472.83
eigval :     1473.56  1479.88  1485.38  1486.64  1545.47  1561.64
eigval :     1570.29  1573.65  1574.34  1586.17  1587.36  1587.90
eigval :     1597.18  1597.58  1611.66  1612.80  3065.09  3065.58
eigval :     3071.45  3071.81  3073.86  3074.47  3076.62  3077.48
eigval :     3079.00  3079.44  3081.76  3083.77  3085.37  3085.69
eigval :     3086.36  3087.27  3091.05  3091.98  3092.52  3093.18
eigval :     3093.51  3095.27  3099.92

   temp. (K)  partition function   enthalpy   heat capacity  entropy
                                   cal/mol     cal/K/mol   cal/K/mol   J/K/mol
 298.15  VIB  0.596E+12            16183.624    107.541     98.303
         ROT  0.469E+08              888.752      2.981     38.084
         INT  0.280E+20            17072.376    110.522    136.388
         TR   0.104E+29             1481.254      4.968     44.408
         TOT                       18553.6298   115.4899   180.7955   756.4486

       T/K    H(0)-H(T)+PV         H(T)/Eh          T*S/Eh         G(T)/Eh
   ------------------------------------------------------------------------
    298.15    0.295671E-01    0.497009E+00    0.859018E-01    0.411107E+00
   ------------------------------------------------------------------------

         :::::::::::::::::::::::::::::::::::::::::::::::::::::
         ::                  THERMODYNAMIC                  ::
         :::::::::::::::::::::::::::::::::::::::::::::::::::::
         :: total free energy         -95.136696076319 Eh   ::
         ::.................................................::
         :: total energy              -95.547802920991 Eh   ::
         :: zero point energy           0.467441552039 Eh   ::
         :: G(RRHO) w/o ZPVE           -0.056334707367 Eh   ::
         :: G(RRHO) contrib.            0.411106844672 Eh   ::
         :::::::::::::::::::::::::::::::::::::::::::::::::::::

           -------------------------------------------------
          | TOTAL ENERGY              -95.547802920991 Eh   |
          | TOTAL ENTHALPY            -95.050794277768 Eh   |
          | TOTAL FREE ENERGY         -95.136696076319 Eh   |
          | GRADIENT NORM               0.000032514166 Eh/α |
          | HOMO-LUMO GAP               2.593843665366 eV   |
           -------------------------------------------------

 * finished run on 2025/09/07 at 22:19:29.635
