   * xtb version 6.7.1 (edcfbbe) compiled by 'albert@albert-system' on 2024-07-22

   ID    Z sym.   atoms
    1    6 C      1-5, 7, 8, 10-24, 26-38
    2    7 N      6, 9, 25
    3    1 H      39-61

          program call               : xtb data2507/toluene/CPPyC/CPPyC_toluene_T1_crest.xyz --gfn 2 --uhf 2 --gbsa toluene --ohess vtight --parallel 40 --molden --ceasefiles --namespace data2507/toluene/CPPyC/CPPyC_toluene_T1_finalOpt
      * Solvation model:               GBSA
        Solvent                        toluene
        Solvent mass                       9.2140E+01 g/mol
          :  Hamiltonian                  GFN2-xTB          :
 * total energy  :   -95.4489771 Eh     change       -0.1000696E-07 Eh
 * total energy  :   -95.4490068 Eh     change       -0.2970233E-04 Eh
 * total energy  :   -95.4490198 Eh     change       -0.1291070E-04 Eh
 * total energy  :   -95.4490255 Eh     change       -0.5787297E-05 Eh
 * total energy  :   -95.4490314 Eh     change       -0.5845146E-05 Eh
 * total energy  :   -95.4490374 Eh     change       -0.6017935E-05 Eh
 * total energy  :   -95.4490446 Eh     change       -0.7159072E-05 Eh
 * total energy  :   -95.4490533 Eh     change       -0.8749672E-05 Eh
 * total energy  :   -95.4490618 Eh     change       -0.8448240E-05 Eh
 * total energy  :   -95.4490682 Eh     change       -0.6488849E-05 Eh
 * total energy  :   -95.4491319 Eh     change       -0.8137185E-06 Eh
 * total energy  :   -95.4491325 Eh     change       -0.6621334E-06 Eh
 * total energy  :   -95.4491332 Eh     change       -0.6521525E-06 Eh
 * total energy  :   -95.4491339 Eh     change       -0.7426190E-06 Eh
 * total energy  :   -95.4491348 Eh     change       -0.8944360E-06 Eh
 * total energy  :   -95.4491358 Eh     change       -0.1020121E-05 Eh
 * total energy  :   -95.4491369 Eh     change       -0.1045855E-05 Eh
 * total energy  :   -95.4491379 Eh     change       -0.9860411E-06 Eh
 * total energy  :   -95.4491379 Eh     change       -0.5376847E-08 Eh
   *** GEOMETRY OPTIMIZATION CONVERGED AFTER 44 ITERATIONS ***

 final structure:
================
61
 xtb: 6.7.1 (edcfbbe)
C            1.55916609301494       -1.93369551800711       -2.04562665078223
C            0.46077825702905       -1.31864545551975       -1.50426813209391
C            0.58445356405044       -0.29092636067024       -0.51747736702367
C           -0.54326107175895        0.31193505559720        0.09155053824347
C           -0.43210244943096        1.48127394478396        0.92774791561336
N           -1.43757067609636        2.02952923522926        1.52932029810542
C           -2.68055148697512        1.59755142721396        1.38219680528166
C           -2.95026773322216        0.55762648404591        0.44010441091569
N           -4.26897395823642        0.16262921244094        0.23777331200825
C           -5.33095352901050        1.01447308040129        0.00313409902884
C           -5.33272671703093        2.39263278285480       -0.16323531848145
C           -6.54530346809310        3.00904758668792       -0.41608926500508
C           -7.72492910062475        2.27546919914228       -0.51521146550425
C           -7.72461784628532        0.89832329980420       -0.37305960229154
C           -6.52172085659708        0.25904695714322       -0.11434935965413
C           -6.14908279941584       -1.11945483183330        0.07088004733279
C           -6.86218819809465       -2.30855615823237        0.07380869042911
C           -6.17940011238033       -3.48935300261226        0.30988031271643
C           -4.80857571221065       -3.48967065232105        0.55454829352908
C           -4.07582183211074       -2.31591058171107        0.55430796948325
C           -4.75080264373180       -1.13165885104500        0.29181449877427
C           -1.89652610497002       -0.06961697040986       -0.16942041633411
C            1.90971714253789        0.04477047377723       -0.13748869736907
C            3.00342638607619       -0.57474636386971       -0.69559481611734
N            4.29807777371710       -0.18778109763691       -0.30967600322364
C            4.77981149300348        1.10307287400730       -0.29379659249001
C            4.15266133547307        2.28432398032312       -0.66951065592857
C            4.87785594132507        3.45771043350870       -0.57779564249518
C            6.19768176686044        3.46278060554724       -0.13163428206265
C            6.83623317601186        2.28671782951340        0.21976741338525
C            6.12914044976887        1.09636600832974        0.13572022646018
C            6.46578285839749       -0.27887799576501        0.39188670198644
C            7.61365124251721       -0.91651535578553        0.83836560430302
C            7.58885264207247       -2.29099978014200        0.99639963277879
C            6.43488732325447       -3.02418388165558        0.72858641346878
C            5.27795798230960       -2.41098785548517        0.28493513330028
C            5.30405334675008       -1.03436803605038        0.10058974479225
C            2.85087135588279       -1.57808106708448       -1.66851722876030
H            1.42342146370664       -2.70406264874432       -2.79225962530167
H           -0.51851925182108       -1.62930011549873       -1.83145304383505
H            0.50913507659287        2.00172311518486        1.02515191166582
H           -3.44307607263937        1.99782667284913        2.02835067694187
H           -4.41836511389393        2.96295627730983       -0.10264584064179
H           -6.57527692937577        4.08080299683935       -0.54411079091306
H           -8.65212929788059        2.79165248683696       -0.71494484171255
H           -8.63894198677948        0.33204610665094       -0.46387300980076
H           -7.92732029603334       -2.30980382678461       -0.10048983276339
H           -6.71680179842460       -4.42591649322885        0.31471757327573
H           -4.30606849205535       -4.42458046994819        0.75322283852855
H           -3.01728790302677       -2.32214002077986        0.76487364114032
H           -2.10880050087446       -0.84699373001938       -0.88621324016953
H            2.07991633298858        0.77777432049728        0.63552075357821
H            3.13605449861537        2.28382050701138       -1.03241555142019
H            4.41174106087682        4.38996088995762       -0.86110962875081
H            6.73043860267321        4.40015581488949       -0.07008840699910
H            7.86467558743300        2.29215874874713        0.54801646153976
H            8.50529463697060       -0.34978321552866        1.06056950137906
H            8.47364948770783       -2.80581759902469        1.34062679959052
H            6.44224997164804       -4.09421225425821        0.87566400800117
H            4.38124404990831       -2.98092034655624        0.09506194853090
H            3.71600379040873       -2.02240429791211       -2.13346044587553

          :  Hamiltonian                  GFN2-xTB          :
         :: gradient norm              0.000067002968 Eh/a0 ::
         :: HOMO-LUMO gap              0.282987202538 eV    ::
         :: SCC energy               -97.224924135704 Eh    ::
         :: -> dispersion             -0.082595201123 Eh    ::
         :: -> Gsolv                  -0.039675513096 Eh    ::
         :: repulsion energy           1.775786276477 Eh    ::

    * Orbital Energies and Occupations

         #    Occupation            Energy/Eh            Energy/eV
      -------------------------------------------------------------
         1        2.0000           -0.6881904             -18.7266
       ...           ...                  ...                  ...
        78        2.0000           -0.4225394             -11.4979
        79        2.0000           -0.4188674             -11.3980
        80        2.0000           -0.4183375             -11.3835
        81        2.0000           -0.4152125             -11.2985
        82        2.0000           -0.4102351             -11.1631
        83        2.0000           -0.4024790             -10.9520
        84        2.0000           -0.3890552             -10.5867
        85        2.0000           -0.3841530             -10.4533
        86        2.0000           -0.3832593             -10.4290
        87        2.0000           -0.3774677             -10.2714
        88        1.9269           -0.3654776              -9.9452
        89        1.0731           -0.3606501              -9.8138
        90        0.9958           -0.2654921              -7.2244 (HOMO)
        91        0.0042           -0.2550925              -6.9414 (LUMO)
        92        0.0000           -0.2500714              -6.8048
        93                         -0.2390950              -6.5061
        94                         -0.2326706              -6.3313
        95                         -0.2278458              -6.2000
        96                         -0.2209052              -6.0111
        97                         -0.2081901              -5.6651
        98                         -0.1961487              -5.3375
        99                         -0.1958073              -5.3282
       100                         -0.1914020              -5.2083
       101                         -0.1873177              -5.0972
       ...                                ...                  ...
       175                          0.7395874              20.1252
      -------------------------------------------------------------
                  HL-Gap            0.0103997 Eh            0.2830 eV

     #   Z          covCN         q      C6AA      α(0)
     1   6 C        2.912    -0.035    28.878     8.812
     2   6 C        2.919    -0.048    29.192     8.860
     3   6 C        2.964    -0.008    28.217     8.713
     4   6 C        2.963    -0.028    28.697     8.787
     5   6 C        2.893     0.043    27.043     8.526
     6   7 N        1.835    -0.186    25.848     7.534
     7   6 C        2.891     0.001    28.006     8.676
     8   6 C        2.900     0.049    26.905     8.505
     9   7 N        2.801    -0.020    21.638     6.909
    10   6 C        3.073     0.047    26.869     8.499
    11   6 C        2.909    -0.043    29.068     8.841
    12   6 C        2.923    -0.032    28.787     8.799
    13   6 C        2.920    -0.034    28.855     8.809
    14   6 C        2.912    -0.030    28.758     8.794
    15   6 C        3.063    -0.012    28.260     8.717
    16   6 C        3.065    -0.012    28.257     8.717
    17   6 C        2.912    -0.030    28.760     8.794
    18   6 C        2.920    -0.034    28.858     8.809
    19   6 C        2.923    -0.032    28.796     8.800
    20   6 C        2.909    -0.043    29.077     8.842
    21   6 C        3.071     0.048    26.863     8.498
    22   6 C        2.925    -0.053    29.315     8.879
    23   6 C        2.923    -0.064    29.598     8.922
    24   6 C        2.907     0.056    26.739     8.479
    25   7 N        2.803    -0.028    21.783     6.932
    26   6 C        3.078     0.049    26.818     8.490
    27   6 C        2.909    -0.045    29.122     8.849
    28   6 C        2.923    -0.033    28.826     8.805
    29   6 C        2.920    -0.037    28.925     8.820
    30   6 C        2.912    -0.032    28.795     8.799
    31   6 C        3.066    -0.015    28.324     8.727
    32   6 C        3.066    -0.015    28.325     8.727
    33   6 C        2.912    -0.032    28.794     8.799
    34   6 C        2.920    -0.037    28.926     8.820
    35   6 C        2.923    -0.033    28.826     8.805
    36   6 C        2.909    -0.045    29.113     8.848
    37   6 C        3.078     0.050    26.806     8.488
    38   6 C        2.917    -0.065    29.612     8.923
    39   1 H        0.925     0.025     2.654     2.547
    40   1 H        0.926     0.023     2.687     2.563
    41   1 H        0.926     0.039     2.457     2.451
    42   1 H        0.926     0.034     2.525     2.485
    43   1 H        0.926     0.039     2.467     2.456
    44   1 H        0.926     0.040     2.446     2.446
    45   1 H        0.926     0.040     2.447     2.446
    46   1 H        0.926     0.042     2.421     2.433
    47   1 H        0.926     0.042     2.422     2.434
    48   1 H        0.926     0.040     2.452     2.449
    49   1 H        0.926     0.040     2.454     2.450
    50   1 H        0.926     0.039     2.458     2.452
    51   1 H        0.926     0.039     2.468     2.457
    52   1 H        0.926     0.025     2.653     2.547
    53   1 H        0.926     0.035     2.510     2.478
    54   1 H        0.926     0.036     2.505     2.475
    55   1 H        0.926     0.036     2.509     2.477
    56   1 H        0.926     0.038     2.481     2.463
    57   1 H        0.926     0.037     2.484     2.465
    58   1 H        0.926     0.035     2.511     2.478
    59   1 H        0.926     0.036     2.503     2.474
    60   1 H        0.926     0.037     2.488     2.467
    61   1 H        0.926     0.025     2.657     2.549

molecular dipole:
                 x           y           z       tot (Debye)
 q only:       -0.688      -0.260      -0.105
   full:       -0.692      -0.418      -0.252       2.153

 projected vibrational frequencies (cm⁻¹)
eigval :       -0.00    -0.00    -0.00     0.00     0.00     0.00
eigval :        4.95    20.68    28.08    36.02    45.23    59.55
eigval :       68.41    95.26    98.90   102.51   125.14   130.71
eigval :      139.27   144.15   182.93   191.09   206.07   218.62
eigval :      230.63   268.33   270.49   280.73   285.34   317.66
eigval :      339.34   357.48   374.08   385.96   392.57   400.64
eigval :      414.04   419.51   421.43   433.43   434.14   455.10
eigval :      478.40   512.86   515.19   518.31   535.17   538.30
eigval :      542.99   553.58   556.65   579.95   584.77   588.98
eigval :      598.77   603.43   611.52   625.20   634.31   661.82
eigval :      667.08   675.84   676.36   707.68   709.91   717.72
eigval :      732.23   752.58   755.14   761.73   766.07   770.03
eigval :      775.67   778.27   797.51   800.85   805.57   827.57
eigval :      866.00   869.93   871.48   873.52   893.21   893.57
eigval :      896.78   899.10   902.27   902.58   905.22   905.63
eigval :      919.32   921.06   921.50   922.35   943.76   961.42
eigval :      999.41  1009.46  1012.19  1037.20  1066.01  1066.47
eigval :     1068.81  1069.72  1089.49  1110.04  1115.35  1126.70
eigval :     1142.10  1143.17  1151.82  1168.82  1173.12  1177.02
eigval :     1178.68  1180.84  1184.70  1192.18  1223.84  1227.22
eigval :     1229.86  1230.62  1234.53  1277.99  1279.90  1286.84
eigval :     1289.38  1290.84  1301.78  1309.02  1322.49  1341.32
eigval :     1344.08  1352.02  1356.05  1357.99  1359.65  1367.94
eigval :     1400.77  1411.82  1413.08  1418.25  1431.86  1451.20
eigval :     1459.74  1462.64  1476.74  1478.00  1481.31  1489.70
eigval :     1538.92  1548.07  1564.61  1565.53  1577.86  1579.49
eigval :     1580.51  1580.73  1593.38  1601.27  3061.39  3065.53
eigval :     3076.35  3077.15  3079.40  3080.22  3081.39  3082.17
eigval :     3084.47  3085.20  3087.70  3088.69  3089.60  3091.24
eigval :     3092.37  3094.39  3094.90  3095.90  3097.38  3097.47
eigval :     3098.26  3101.13  3103.06

   temp. (K)  partition function   enthalpy   heat capacity  entropy
                                   cal/mol     cal/K/mol   cal/K/mol   J/K/mol
 298.15  VIB  0.140E+13            16561.282    110.354    101.004
         ROT  0.474E+08              888.752      2.981     38.106
         INT  0.666E+20            17450.035    113.334    139.109
         TR   0.104E+29             1481.254      4.968     44.408
         TOT                       18931.2885   118.3025   183.5175   767.8371

       T/K    H(0)-H(T)+PV         H(T)/Eh          T*S/Eh         G(T)/Eh
   ------------------------------------------------------------------------
    298.15    0.301689E-01    0.492461E+00    0.871951E-01    0.405266E+00
   ------------------------------------------------------------------------

         :::::::::::::::::::::::::::::::::::::::::::::::::::::
         ::                  THERMODYNAMIC                  ::
         :::::::::::::::::::::::::::::::::::::::::::::::::::::
         :: total free energy         -95.043872248455 Eh   ::
         ::.................................................::
         :: total energy              -95.449137861685 Eh   ::
         :: zero point energy           0.462291761916 Eh   ::
         :: G(RRHO) w/o ZPVE           -0.057026148686 Eh   ::
         :: G(RRHO) contrib.            0.405265613231 Eh   ::
         :::::::::::::::::::::::::::::::::::::::::::::::::::::

           -------------------------------------------------
          | TOTAL ENERGY              -95.449137861685 Eh   |
          | TOTAL ENTHALPY            -94.956677171181 Eh   |
          | TOTAL FREE ENERGY         -95.043872248455 Eh   |
          | GRADIENT NORM               0.000067078429 Eh/α |
          | HOMO-LUMO GAP               0.282989658607 eV   |
           -------------------------------------------------

 * finished run on 2025/09/07 at 22:25:50.306
