   * xtb version 6.7.1 (edcfbbe) compiled by 'albert@albert-system' on 2024-07-22

   ID    Z sym.   atoms
    1    6 C      1-5, 7, 8, 10-24, 26-38
    2    7 N      6, 9, 25
    3    1 H      39-61

          program call               : xtb data2507/toluene/CPPyC/CPPyC_toluene_S0_crest.xyz --gfn 2 --gbsa toluene --ohess vtight --parallel 40 --molden --ceasefiles --namespace data2507/toluene/CPPyC/CPPyC_toluene_S0_finalOpt
      * Solvation model:               GBSA
        Solvent                        toluene
        Solvent mass                       9.2140E+01 g/mol
          :  Hamiltonian                  GFN2-xTB          :
 * total energy  :   -95.5477929 Eh     change       -0.2972172E-08 Eh
 * total energy  :   -95.5478229 Eh     change       -0.2995836E-04 Eh
 * total energy  :   -95.5478382 Eh     change       -0.1535923E-04 Eh
 * total energy  :   -95.5478455 Eh     change       -0.7260607E-05 Eh
 * total energy  :   -95.5478524 Eh     change       -0.6938052E-05 Eh
 * total energy  :   -95.5478552 Eh     change       -0.2781519E-05 Eh
 * total energy  :   -95.5478583 Eh     change       -0.3078855E-05 Eh
 * total energy  :   -95.5478618 Eh     change       -0.3463740E-05 Eh
 * total energy  :   -95.5478650 Eh     change       -0.3203562E-05 Eh
 * total energy  :   -95.5478680 Eh     change       -0.3035066E-05 Eh
 * total energy  :   -95.5478892 Eh     change       -0.2831660E-06 Eh
 * total energy  :   -95.5478894 Eh     change       -0.2690020E-06 Eh
 * total energy  :   -95.5478896 Eh     change       -0.1942748E-06 Eh
 * total energy  :   -95.5478898 Eh     change       -0.1650530E-06 Eh
 * total energy  :   -95.5478900 Eh     change       -0.1985272E-06 Eh
 * total energy  :   -95.5478902 Eh     change       -0.1925264E-06 Eh
 * total energy  :   -95.5478903 Eh     change       -0.1436722E-06 Eh
 * total energy  :   -95.5478904 Eh     change       -0.1061103E-06 Eh
 * total energy  :   -95.5478905 Eh     change       -0.8423706E-07 Eh
   *** GEOMETRY OPTIMIZATION CONVERGED AFTER 34 ITERATIONS ***

 final structure:
================
61
 xtb: 6.7.1 (edcfbbe)
C            1.58486733581643        2.70727025630718        1.20312700928753
C            0.47568336760134        1.88112978610412        1.20451243950318
C            0.59428950890854        0.54273061980116        0.83373446771294
C           -0.57737107083990       -0.34359622290580        0.84347805542209
C           -0.48320486377605       -1.67089571312692        1.26941669636361
N           -1.50491282476945       -2.50650170213358        1.29257665664209
C           -2.68993758816926       -2.07525628527750        0.90500641506870
C           -2.91451961259781       -0.76841368183271        0.46662711769517
N           -4.18539684365325       -0.34669145150266        0.06881503292143
C           -4.82166684432039        0.80641777128648        0.49367447167402
C           -4.40746715383217        1.75698784777858        1.41548379514920
C           -5.25949513152430        2.81191990810046        1.68358491327622
C           -6.50074249842004        2.91998299804307        1.06027373869629
C           -6.92968015883235        1.96273473752090        0.16200468105817
C           -6.09011827315331        0.89354699174904       -0.12353567406822
C           -6.21562337463581       -0.26365473964641       -0.96651563560949
C           -7.20948138035844       -0.71447943187122       -1.82586317288521
C           -6.99857278268668       -1.88686667331522       -2.52428831781577
C           -5.80924014081643       -2.59920307423963       -2.38529377154327
C           -4.80561622841896       -2.17012554880341       -1.53693881946288
C           -5.02235260476831       -1.00589620152134       -0.81414878608577
C           -1.82984542404778        0.10378917900750        0.43335199438637
C            1.84026818404261        0.05380352862162        0.45425736202314
C            2.95496453713702        0.88442092865362        0.45561079061404
N            4.20558367878144        0.37625899884573        0.07544614762220
C            4.79390997148122       -0.77185701016835        0.56948073423781
C            4.34632653608204       -1.64172482148768        1.55394045634790
C            5.15102236453359       -2.71636347081698        1.88166522439917
C            6.37941691638609       -2.92224622578319        1.25663175161898
C            6.84232978882272       -2.04581373529324        0.29526842031315
C            6.05006327355214       -0.95885861401812       -0.05238309654928
C            6.21718559365523        0.13310884374396       -0.97083049626981
C            7.21996186168627        0.48441799426089       -1.86579707716481
C            7.05206400506489        1.61722305171216       -2.63731418415019
C            5.89564461558125        2.38815779443933       -2.53533751421370
C            4.88430419772723        2.05890068385379       -1.65286473633412
C            5.05757582934413        0.93465878170304       -0.85764914991985
C            2.82516018640831        2.21771270376802        0.83603665067517
H            1.48497117999471        3.74025430264554        1.50151665915858
H           -0.48190646680744        2.27038973349217        1.51484019733452
H            0.45420214230342       -2.07831265456214        1.62270557886062
H           -3.49787554117826       -2.79260649268937        0.95700485295522
H           -3.45806668265998        1.67105109259909        1.92214155702167
H           -4.95775278703737        3.56630514994660        2.39543408190297
H           -7.13735940014096        3.76052336147340        1.29398740204883
H           -7.89917908499487        2.03683456291727       -0.30722886033135
H           -8.12429486732262       -0.15370520997129       -1.94526838987180
H           -7.75990789687845       -2.25637991423506       -3.19531692811309
H           -5.66555617532765       -3.50529728867438       -2.95550693519693
H           -3.88171870233778       -2.72204834961744       -1.44988708501861
H           -1.95928134873931        1.10870903654657        0.05931197069606
H            1.94272378668732       -0.96949664686201        0.12574381612397
H            3.40578300104163       -1.47988697750479        2.05868054365464
H            4.82203672945917       -3.41026261414322        2.64161187561520
H            6.97858176665658       -3.77574449764903        1.53839727224745
H            7.80188476458020       -2.19641913890538       -0.17659718554631
H            8.10939881158370       -0.12125854856316       -1.95609407462236
H            7.82142747635740        1.90905177057435       -3.33722306586990
H            5.78573247336236        3.26104932101465       -3.16246589005650
H            3.98507984145069        2.65344418577412       -1.59451581895085
H            3.69584823835814        2.85531231123431        0.85497869332262

          :  Hamiltonian                  GFN2-xTB          :
         :: gradient norm              0.000031535387 Eh/a0 ::
         :: HOMO-LUMO gap              2.583216223933 eV    ::
         :: SCC energy               -97.337371371244 Eh    ::
         :: -> dispersion             -0.082569978544 Eh    ::
         :: -> Gsolv                  -0.039514918962 Eh    ::
         :: repulsion energy           1.789480850511 Eh    ::

    * Orbital Energies and Occupations

         #    Occupation            Energy/Eh            Energy/eV
      -------------------------------------------------------------
         1        2.0000           -0.6832343             -18.5918
       ...           ...                  ...                  ...
        77        2.0000           -0.4231194             -11.5137
        78        2.0000           -0.4220767             -11.4853
        79        2.0000           -0.4200670             -11.4306
        80        2.0000           -0.4189238             -11.3995
        81        2.0000           -0.4157199             -11.3123
        82        2.0000           -0.4096470             -11.1471
        83        2.0000           -0.4066236             -11.0648
        84        2.0000           -0.4055607             -11.0359
        85        2.0000           -0.3832035             -10.4275
        86        2.0000           -0.3830167             -10.4224
        87        2.0000           -0.3793793             -10.3234
        88        2.0000           -0.3665784              -9.9751
        89        2.0000           -0.3639947              -9.9048 (HOMO)
        90                         -0.2690632              -7.3216 (LUMO)
        91                         -0.2586073              -7.0371
        92                         -0.2479615              -6.7474
        93                         -0.2470878              -6.7236
        94                         -0.2376290              -6.4662
        95                         -0.2263260              -6.1586
        96                         -0.2227768              -6.0621
        97                         -0.2219037              -6.0383
        98                         -0.1962578              -5.3404
        99                         -0.1905410              -5.1849
       100                         -0.1904161              -5.1815
       ...                                ...                  ...
       175                          0.7435240              20.2323
      -------------------------------------------------------------
                  HL-Gap            0.0949314 Eh            2.5832 eV

     #   Z          covCN         q      C6AA      α(0)
     1   6 C        2.918    -0.027    28.680     8.782
     2   6 C        2.924    -0.037    28.909     8.817
     3   6 C        2.975     0.011    27.767     8.644
     4   6 C        2.971     0.004    27.940     8.670
     5   6 C        2.914     0.050    26.881     8.502
     6   7 N        1.835    -0.232    26.926     7.690
     7   6 C        2.911     0.045    26.992     8.519
     8   6 C        2.904     0.056    26.739     8.479
     9   7 N        2.801    -0.049    22.187     6.996
    10   6 C        3.071     0.047    26.874     8.500
    11   6 C        2.910    -0.051    29.276     8.872
    12   6 C        2.924    -0.034    28.848     8.808
    13   6 C        2.920    -0.041    29.021     8.834
    14   6 C        2.912    -0.034    28.836     8.806
    15   6 C        3.066    -0.017    28.359     8.732
    16   6 C        3.067    -0.017    28.359     8.732
    17   6 C        2.912    -0.034    28.841     8.806
    18   6 C        2.920    -0.041    29.016     8.833
    19   6 C        2.924    -0.033    28.833     8.806
    20   6 C        2.910    -0.052    29.283     8.873
    21   6 C        3.070     0.046    26.893     8.503
    22   6 C        2.935    -0.033    28.832     8.806
    23   6 C        2.928    -0.047    29.176     8.858
    24   6 C        2.911     0.066    26.513     8.443
    25   7 N        2.802    -0.046    22.128     6.986
    26   6 C        3.074     0.047    26.872     8.499
    27   6 C        2.910    -0.052    29.283     8.873
    28   6 C        2.924    -0.035    28.864     8.810
    29   6 C        2.920    -0.042    29.049     8.838
    30   6 C        2.912    -0.035    28.860     8.809
    31   6 C        3.067    -0.018    28.395     8.738
    32   6 C        3.067    -0.018    28.394     8.738
    33   6 C        2.912    -0.035    28.862     8.809
    34   6 C        2.919    -0.042    29.054     8.839
    35   6 C        2.924    -0.035    28.868     8.811
    36   6 C        2.910    -0.052    29.293     8.875
    37   6 C        3.074     0.047    26.869     8.499
    38   6 C        2.922    -0.042    29.051     8.839
    39   1 H        0.926     0.046     2.370     2.407
    40   1 H        0.926     0.043     2.416     2.430
    41   1 H        0.925     0.044     2.402     2.424
    42   1 H        0.925     0.045     2.388     2.417
    43   1 H        0.926     0.028     2.613     2.528
    44   1 H        0.926     0.033     2.542     2.493
    45   1 H        0.926     0.031     2.567     2.505
    46   1 H        0.926     0.034     2.532     2.488
    47   1 H        0.926     0.034     2.525     2.485
    48   1 H        0.926     0.032     2.560     2.502
    49   1 H        0.926     0.033     2.540     2.492
    50   1 H        0.926     0.028     2.617     2.530
    51   1 H        0.926     0.053     2.286     2.365
    52   1 H        0.926     0.044     2.393     2.419
    53   1 H        0.926     0.028     2.615     2.529
    54   1 H        0.926     0.031     2.575     2.509
    55   1 H        0.926     0.029     2.607     2.525
    56   1 H        0.926     0.031     2.575     2.509
    57   1 H        0.926     0.031     2.578     2.511
    58   1 H        0.926     0.028     2.613     2.528
    59   1 H        0.926     0.030     2.580     2.512
    60   1 H        0.926     0.030     2.582     2.513
    61   1 H        0.926     0.047     2.360     2.402

molecular dipole:
                 x           y           z       tot (Debye)
 q only:       -0.129       0.767       0.084
   full:       -0.158       1.049       0.009       2.698

 projected vibrational frequencies (cm⁻¹)
eigval :       -0.00    -0.00     0.00     0.00     0.00     0.00
eigval :       12.76    18.44    21.08    36.69    38.62    63.43
eigval :       73.51    90.66    94.20   108.06   111.47   134.21
eigval :      141.30   144.85   190.23   214.00   224.05   226.60
eigval :      236.28   271.66   272.18   283.96   285.20   320.85
eigval :      329.51   344.65   385.95   392.91   397.53   399.20
eigval :      422.72   423.61   434.66   436.35   442.24   463.91
eigval :      508.20   517.48   519.03   528.33   537.05   540.55
eigval :      541.46   565.93   585.61   588.29   600.87   609.38
eigval :      617.80   621.40   644.77   671.16   672.70   675.32
eigval :      684.07   692.30   707.56   708.98   726.09   754.24
eigval :      756.62   768.19   768.70   779.62   780.20   800.12
eigval :      815.45   834.25   866.30   869.29   871.50   874.07
eigval :      887.65   894.97   896.49   899.42   900.42   901.14
eigval :      904.26   905.45   908.61   914.42   921.02   921.89
eigval :      922.67   926.63   929.18   938.24   993.12  1001.93
eigval :     1010.61  1011.23  1014.44  1069.04  1069.58  1071.53
eigval :     1073.54  1096.54  1116.78  1118.54  1128.62  1150.48
eigval :     1150.75  1168.59  1173.71  1175.60  1179.64  1179.76
eigval :     1183.62  1184.69  1193.86  1227.81  1233.96  1235.30
eigval :     1241.27  1246.57  1258.32  1278.34  1280.32  1297.75
eigval :     1298.15  1300.79  1302.86  1316.76  1346.27  1355.12
eigval :     1355.74  1358.66  1359.72  1365.15  1403.61  1413.26
eigval :     1422.16  1426.60  1427.28  1445.14  1458.09  1472.95
eigval :     1473.59  1479.93  1485.47  1486.58  1544.31  1560.98
eigval :     1570.10  1573.56  1574.17  1586.11  1587.63  1587.77
eigval :     1597.41  1597.54  1611.77  1612.81  3065.71  3065.98
eigval :     3070.28  3070.96  3074.10  3074.70  3076.46  3077.12
eigval :     3079.14  3079.75  3082.02  3084.08  3084.92  3085.76
eigval :     3086.38  3087.18  3090.70  3092.87  3093.15  3093.87
eigval :     3094.34  3095.40  3100.63

   temp. (K)  partition function   enthalpy   heat capacity  entropy
                                   cal/mol     cal/K/mol   cal/K/mol   J/K/mol
 298.15  VIB  0.602E+12            16199.110    107.554     98.379
         ROT  0.481E+08              888.752      2.981     38.134
         INT  0.290E+20            17087.863    110.535    136.513
         TR   0.104E+29             1481.254      4.968     44.408
         TOT                       18569.1166   115.5034   180.9208   756.9728

       T/K    H(0)-H(T)+PV         H(T)/Eh          T*S/Eh         G(T)/Eh
   ------------------------------------------------------------------------
    298.15    0.295918E-01    0.496940E+00    0.859613E-01    0.410979E+00
   ------------------------------------------------------------------------

         :::::::::::::::::::::::::::::::::::::::::::::::::::::
         ::                  THERMODYNAMIC                  ::
         :::::::::::::::::::::::::::::::::::::::::::::::::::::
         :: total free energy         -95.136911731827 Eh   ::
         ::.................................................::
         :: total energy              -95.547890517868 Eh   ::
         :: zero point energy           0.467348344374 Eh   ::
         :: G(RRHO) w/o ZPVE           -0.056369558334 Eh   ::
         :: G(RRHO) contrib.            0.410978786040 Eh   ::
         :::::::::::::::::::::::::::::::::::::::::::::::::::::

           -------------------------------------------------
          | TOTAL ENERGY              -95.547890517868 Eh   |
          | TOTAL ENTHALPY            -95.050950402615 Eh   |
          | TOTAL FREE ENERGY         -95.136911731827 Eh   |
          | GRADIENT NORM               0.000031528505 Eh/α |
          | HOMO-LUMO GAP               2.583216041158 eV   |
           -------------------------------------------------

 * finished run on 2025/09/07 at 22:22:02.986
