   * xtb version 6.7.1 (edcfbbe) compiled by 'albert@albert-system' on 2024-07-22

   ID    Z sym.   atoms
    1    6 C      1-5, 7, 8, 10-24, 26-38
    2    7 N      6, 9, 25
    3    1 H      39-61

          program call               : xtb data2507/toluene/CPPyC/CPPyC_toluene_S0_finalOpt.xtbopt.xyz --gfn 2 --uhf 2 --gbsa toluene --ohess vtight --parallel 40 --molden --ceasefiles --namespace data2507/toluene/CPPyC/CPPyC_toluene_T1_preOpt
      * Solvation model:               GBSA
        Solvent                        toluene
        Solvent mass                       9.2140E+01 g/mol
          :  Hamiltonian                  GFN2-xTB          :
 * total energy  :   -95.4411011 Eh     change        0.2027889E-09 Eh
 * total energy  :   -95.4435146 Eh     change       -0.2413472E-02 Eh
 * total energy  :   -95.4450213 Eh     change       -0.1506665E-02 Eh
 * total energy  :   -95.4454437 Eh     change       -0.4224747E-03 Eh
 * total energy  :   -95.4459700 Eh     change       -0.5262563E-03 Eh
 * total energy  :   -95.4462157 Eh     change       -0.2457020E-03 Eh
 * total energy  :   -95.4464275 Eh     change       -0.2118157E-03 Eh
 * total energy  :   -95.4465750 Eh     change       -0.1475085E-03 Eh
 * total energy  :   -95.4466386 Eh     change       -0.6360643E-04 Eh
 * total energy  :   -95.4466731 Eh     change       -0.3449957E-04 Eh
 * total energy  :   -95.4480790 Eh     change       -0.8539768E-06 Eh
 * total energy  :   -95.4480798 Eh     change       -0.8499024E-06 Eh
 * total energy  :   -95.4480806 Eh     change       -0.8440467E-06 Eh
 * total energy  :   -95.4480815 Eh     change       -0.8405140E-06 Eh
 * total energy  :   -95.4480823 Eh     change       -0.8348807E-06 Eh
 * total energy  :   -95.4480832 Eh     change       -0.8305786E-06 Eh
 * total energy  :   -95.4480840 Eh     change       -0.8242172E-06 Eh
 * total energy  :   -95.4480848 Eh     change       -0.8177239E-06 Eh
 * total energy  :   -95.4480848 Eh     change       -0.7000040E-08 Eh
   *** GEOMETRY OPTIMIZATION CONVERGED AFTER 185 ITERATIONS ***

 final structure:
================
61
 xtb: 6.7.1 (edcfbbe)
C            1.53046911783707        2.76614995678355        0.56254623922043
C            0.44349825696356        1.93159818765635        0.51616636604109
C            0.58608207759331        0.52270678563772        0.34215167633141
C           -0.53939025632928       -0.34235235236038        0.33093709832554
C           -0.42455586768917       -1.77463139231328        0.39108359527092
N           -1.44378061268989       -2.57222581535222        0.43456527623376
C           -2.69336788798892       -2.13922969416257        0.35623515858853
C           -2.93944945026819       -0.74979456917461        0.13231161895077
N           -4.25095552406905       -0.31761712301621       -0.02922576855325
C           -4.85599446217635        0.71858199306643        0.65557118435259
C           -4.33755799217320        1.54427985880541        1.64311695880640
C           -5.16884256644634        2.51581042268147        2.17372101255112
C           -6.48478565705128        2.65806391332160        1.74102824292422
C           -7.01578908489169        1.81804905506878        0.77671661297750
C           -6.20248847899357        0.83533932989376        0.23267543656956
C           -6.41354546677597       -0.19756075079736       -0.74762687371481
C           -7.50258205239596       -0.57945660257039       -1.51644934791608
C           -7.35150318961007       -1.63545071819161       -2.39955400434607
C           -6.13283856831871       -2.29656313145751       -2.52990034796405
C           -5.03074742793376       -1.93034439906219       -1.77673521416072
C           -5.18388011078103       -0.88782073914879       -0.87343970659983
C           -1.87903216425944        0.11761429056643        0.14484173708751
C            1.91284673015958        0.04597070463340        0.19972077787137
C            2.99454777556392        0.89793160735779        0.23236283808279
N            4.29115427163909        0.38020705077201        0.06188324315045
C            4.83927780341921       -0.67544484696215        0.75579135360327
C            4.29756815408975       -1.42932439362298        1.78967146351203
C            5.07796106530031       -2.43195097411066        2.33466902129863
C            6.36970970237709       -2.67829382689347        1.87449421471342
C            6.92399029484507       -1.91538934930453        0.86149947547689
C            6.16000226678788       -0.90453330832009        0.29781371927319
C            6.40585071446359        0.06944234995533       -0.73278320351007
C            7.48656291909161        0.33787771968312       -1.55940755611956
C            7.37490566669671        1.36108364970588       -2.48475641097706
C            6.19939650366809        2.09984290728351       -2.60071694755726
C            5.10815666858651        1.84970362045141       -1.78974147228313
C            5.22299309069515        0.84064278891537       -0.84148170022145
C            2.82611836427089        2.27770705293766        0.42328433804627
H            1.38204045922033        3.82586911912730        0.71904576169838
H           -0.54039582453443        2.35293593637703        0.65045403583733
H            0.54228512946370       -2.25544774453198        0.37784934009826
H           -3.49129218986317       -2.83918495064097        0.53713200129183
H           -3.32506674093149        1.42371509316777        1.99707417415282
H           -4.78915539649732        3.17310372719861        2.94165608849484
H           -7.10229322709469        3.43032594179366        2.17506348544041
H           -8.04094260484599        1.92167740058795        0.45570870003808
H           -8.44527305850316       -0.06128692762074       -1.42932621920926
H           -8.18846502269565       -1.94837911612477       -3.00580105734958
H           -6.04273236999375       -3.10809525755309       -3.23633741916214
H           -4.08290668138174       -2.43379604617036       -1.89174268640792
H           -2.06061431865008        1.15898400862648       -0.07332552994445
H            2.09348043454550       -0.99902651283425        0.00181935355702
H            3.30300946875749       -1.23242501376387        2.16013739451393
H            4.67818158330431       -3.03489688906355        3.13664379817041
H            6.94763600910923       -3.47250227418674        2.32342451920250
H            7.93079994108765       -2.09913847434341        0.51795255704621
H            8.39304658205262       -0.24353606563088       -1.48384543937812
H            8.20631689640407        1.58652173874626       -3.13609517903507
H            6.13679684922202        2.88137815982950       -3.34356536329804
H            4.19292812776713        2.41199275901842       -1.89496212467238
H            3.68277217434506        2.92881631008909        0.48948294023425

          :  Hamiltonian                  GFN2-xTB          :
         :: gradient norm              0.000068866544 Eh/a0 ::
         :: HOMO-LUMO gap              0.210849952844 eV    ::
         :: SCC energy               -97.223496922736 Eh    ::
         :: -> dispersion             -0.082668884081 Eh    ::
         :: -> Gsolv                  -0.039782204171 Eh    ::
         :: repulsion energy           1.775412119306 Eh    ::

    * Orbital Energies and Occupations

         #    Occupation            Energy/Eh            Energy/eV
      -------------------------------------------------------------
         1        2.0000           -0.6888566             -18.7447
       ...           ...                  ...                  ...
        78        2.0000           -0.4225920             -11.4993
        79        2.0000           -0.4185428             -11.3891
        80        2.0000           -0.4172382             -11.3536
        81        2.0000           -0.4156435             -11.3102
        82        2.0000           -0.4108504             -11.1798
        83        2.0000           -0.4015527             -10.9268
        84        2.0000           -0.3893155             -10.5938
        85        2.0000           -0.3848510             -10.4723
        86        2.0000           -0.3830662             -10.4238
        87        2.0000           -0.3762921             -10.2394
        88        1.7166           -0.3642649              -9.9122
        89        1.2834           -0.3625023              -9.8642
        90        0.9833           -0.2632239              -7.1627 (HOMO)
        91        0.0166           -0.2554758              -6.9518 (LUMO)
        92        0.0001           -0.2506768              -6.8213
        93                         -0.2387632              -6.4971
        94                         -0.2331363              -6.3440
        95                         -0.2286285              -6.2213
        96                         -0.2205386              -6.0012
        97                         -0.2080918              -5.6625
        98                         -0.1965449              -5.3483
        99                         -0.1957520              -5.3267
       100                         -0.1920620              -5.2263
       101                         -0.1867748              -5.0824
       ...                                ...                  ...
       175                          0.7387050              20.1012
      -------------------------------------------------------------
                  HL-Gap            0.0077482 Eh            0.2108 eV

     #   Z          covCN         q      C6AA      α(0)
     1   6 C        2.913    -0.036    28.889     8.814
     2   6 C        2.920    -0.050    29.244     8.868
     3   6 C        2.965    -0.009    28.244     8.717
     4   6 C        2.964    -0.029    28.729     8.792
     5   6 C        2.891     0.042    27.062     8.529
     6   7 N        1.835    -0.188    25.884     7.539
     7   6 C        2.890    -0.001    28.051     8.683
     8   6 C        2.901     0.049    26.911     8.506
     9   7 N        2.801    -0.017    21.577     6.899
    10   6 C        3.071     0.047    26.866     8.499
    11   6 C        2.909    -0.043    29.055     8.839
    12   6 C        2.923    -0.033    28.811     8.802
    13   6 C        2.920    -0.034    28.836     8.806
    14   6 C        2.912    -0.031    28.762     8.794
    15   6 C        3.064    -0.012    28.257     8.717
    16   6 C        3.063    -0.012    28.257     8.717
    17   6 C        2.912    -0.030    28.760     8.794
    18   6 C        2.920    -0.033    28.833     8.805
    19   6 C        2.923    -0.032    28.800     8.801
    20   6 C        2.909    -0.042    29.050     8.838
    21   6 C        3.073     0.047    26.874     8.500
    22   6 C        2.926    -0.052    29.280     8.874
    23   6 C        2.923    -0.063    29.568     8.917
    24   6 C        2.908     0.055    26.761     8.482
    25   7 N        2.803    -0.026    21.747     6.926
    26   6 C        3.077     0.049    26.811     8.489
    27   6 C        2.909    -0.044    29.102     8.846
    28   6 C        2.923    -0.033    28.819     8.804
    29   6 C        2.920    -0.036    28.908     8.817
    30   6 C        2.912    -0.031    28.785     8.798
    31   6 C        3.066    -0.015    28.317     8.726
    32   6 C        3.065    -0.015    28.318     8.726
    33   6 C        2.912    -0.031    28.785     8.798
    34   6 C        2.920    -0.037    28.909     8.817
    35   6 C        2.923    -0.033    28.821     8.804
    36   6 C        2.909    -0.044    29.096     8.845
    37   6 C        3.078     0.050    26.799     8.487
    38   6 C        2.917    -0.068    29.690     8.935
    39   1 H        0.925     0.023     2.688     2.564
    40   1 H        0.926     0.021     2.715     2.577
    41   1 H        0.926     0.038     2.478     2.462
    42   1 H        0.926     0.034     2.536     2.490
    43   1 H        0.926     0.039     2.463     2.454
    44   1 H        0.926     0.040     2.452     2.449
    45   1 H        0.926     0.040     2.445     2.445
    46   1 H        0.926     0.042     2.416     2.431
    47   1 H        0.926     0.043     2.415     2.430
    48   1 H        0.926     0.041     2.439     2.442
    49   1 H        0.926     0.040     2.442     2.444
    50   1 H        0.926     0.039     2.461     2.453
    51   1 H        0.926     0.038     2.470     2.458
    52   1 H        0.926     0.023     2.687     2.563
    53   1 H        0.926     0.037     2.494     2.470
    54   1 H        0.926     0.037     2.493     2.469
    55   1 H        0.926     0.036     2.497     2.471
    56   1 H        0.926     0.038     2.470     2.458
    57   1 H        0.926     0.038     2.472     2.458
    58   1 H        0.926     0.036     2.498     2.472
    59   1 H        0.926     0.037     2.493     2.469
    60   1 H        0.926     0.038     2.475     2.460
    61   1 H        0.926     0.023     2.689     2.564

molecular dipole:
                 x           y           z       tot (Debye)
 q only:       -0.634       0.233      -0.239
   full:       -0.638       0.439      -0.240       2.060

 projected vibrational frequencies (cm⁻¹)
eigval :       -0.00    -0.00    -0.00     0.00     0.00     0.00
eigval :       10.60    14.04    22.88    31.91    40.92    56.25
eigval :       66.11    95.72    96.61   104.11   120.08   127.37
eigval :      138.49   145.21   181.24   197.51   205.57   215.63
eigval :      222.36   268.02   269.41   280.40   285.11   317.58
eigval :      339.15   346.33   373.18   384.68   391.06   399.18
eigval :      414.23   420.01   420.65   432.81   433.43   450.55
eigval :      457.63   505.26   514.11   515.51   534.32   536.59
eigval :      539.01   546.48   559.88   578.80   581.41   588.67
eigval :      593.04   600.97   610.49   619.33   636.11   655.26
eigval :      665.49   673.56   674.06   707.32   708.08   716.58
eigval :      739.35   751.77   754.54   765.14   767.17   769.88
eigval :      776.60   777.94   797.96   799.60   806.69   827.48
eigval :      869.12   869.42   872.70   872.82   893.47   894.76
eigval :      897.73   900.64   902.41   904.88   904.98   905.41
eigval :      918.26   918.87   920.50   923.55   942.24   962.53
eigval :      997.16  1009.31  1011.68  1039.95  1065.25  1066.04
eigval :     1066.64  1068.86  1077.45  1107.84  1112.21  1124.90
eigval :     1138.85  1141.61  1153.07  1167.26  1171.92  1175.08
eigval :     1177.06  1178.58  1183.77  1192.10  1222.18  1225.94
eigval :     1227.63  1230.27  1234.11  1273.33  1275.29  1283.54
eigval :     1287.64  1290.09  1296.63  1304.94  1322.63  1338.24
eigval :     1341.02  1349.53  1353.24  1358.23  1358.98  1367.91
eigval :     1401.30  1408.83  1411.12  1416.29  1429.51  1435.19
eigval :     1457.46  1460.85  1474.67  1476.15  1480.31  1483.88
eigval :     1515.03  1538.13  1557.96  1563.77  1573.53  1576.36
eigval :     1577.87  1579.22  1589.71  1599.29  3060.11  3066.91
eigval :     3075.74  3076.45  3079.00  3079.60  3079.93  3081.56
eigval :     3082.33  3084.94  3085.47  3089.29  3090.30  3091.70
eigval :     3092.13  3092.95  3093.87  3095.32  3096.11  3097.51
eigval :     3098.47  3100.07  3101.41

   temp. (K)  partition function   enthalpy   heat capacity  entropy
                                   cal/mol     cal/K/mol   cal/K/mol   J/K/mol
 298.15  VIB  0.174E+13            16652.242    110.329    101.258
         ROT  0.479E+08              888.752      2.981     38.127
         INT  0.833E+20            17540.994    113.310    139.385
         TR   0.104E+29             1481.254      4.968     44.408
         TOT                       19022.2480   118.2783   183.7931   768.9905

       T/K    H(0)-H(T)+PV         H(T)/Eh          T*S/Eh         G(T)/Eh
   ------------------------------------------------------------------------
    298.15    0.303139E-01    0.491894E+00    0.873261E-01    0.404568E+00
   ------------------------------------------------------------------------

         :::::::::::::::::::::::::::::::::::::::::::::::::::::
         ::                  THERMODYNAMIC                  ::
         :::::::::::::::::::::::::::::::::::::::::::::::::::::
         :: total free energy         -95.043516774894 Eh   ::
         ::.................................................::
         :: total energy              -95.448084802992 Eh   ::
         :: zero point energy           0.461580200950 Eh   ::
         :: G(RRHO) w/o ZPVE           -0.057012172852 Eh   ::
         :: G(RRHO) contrib.            0.404568028098 Eh   ::
         :::::::::::::::::::::::::::::::::::::::::::::::::::::

           -------------------------------------------------
          | TOTAL ENERGY              -95.448084802992 Eh   |
          | TOTAL ENTHALPY            -94.956190720229 Eh   |
          | TOTAL FREE ENERGY         -95.043516774894 Eh   |
          | GRADIENT NORM               0.000069117070 Eh/α |
          | HOMO-LUMO GAP               0.210838765435 eV   |
           -------------------------------------------------

 * finished run on 2025/09/07 at 22:22:14.923
