   * xtb version 6.7.1 (edcfbbe) compiled by 'albert@albert-system' on 2024-07-22

   ID    Z sym.   atoms
    1    6 C      1-52
    2    1 H      53-86

          program call               : xtb data2507/gas/BANE/BANE_gas_S0_crest.xyz --gfn 2 --ohess vtight --parallel 40 --molden --ceasefiles --namespace data2507/gas/BANE/BANE_gas_S0_finalOpt
          :  Hamiltonian                  GFN2-xTB          :
 * total energy  :  -128.6854573 Eh     change       -0.7103438E-09 Eh
 * total energy  :  -128.6854581 Eh     change       -0.8269530E-06 Eh
 * total energy  :  -128.6854589 Eh     change       -0.7772738E-06 Eh
 * total energy  :  -128.6854612 Eh     change       -0.2303050E-05 Eh
 * total energy  :  -128.6854626 Eh     change       -0.1421494E-05 Eh
 * total energy  :  -128.6854638 Eh     change       -0.1223898E-05 Eh
 * total energy  :  -128.6854657 Eh     change       -0.1840997E-05 Eh
 * total energy  :  -128.6854679 Eh     change       -0.2209197E-05 Eh
 * total energy  :  -128.6854695 Eh     change       -0.1553936E-05 Eh
 * total energy  :  -128.6854708 Eh     change       -0.1395520E-05 Eh
 * total energy  :  -128.6854984 Eh     change        0.7243173E-07 Eh
 * total energy  :  -128.6854986 Eh     change       -0.1723003E-06 Eh
 * total energy  :  -128.6854985 Eh     change        0.2036231E-07 Eh
 * total energy  :  -128.6854985 Eh     change        0.6552568E-08 Eh
 * total energy  :  -128.6854987 Eh     change       -0.1234711E-06 Eh
 * total energy  :  -128.6854986 Eh     change        0.6532815E-08 Eh
 * total energy  :  -128.6854986 Eh     change        0.4548696E-08 Eh
 * total energy  :  -128.6854986 Eh     change        0.9734208E-08 Eh
 * total energy  :  -128.6854987 Eh     change       -0.7833742E-07 Eh
   *** GEOMETRY OPTIMIZATION CONVERGED AFTER 66 ITERATIONS ***

 final structure:
================
86
 xtb: 6.7.1 (edcfbbe)
C          -12.10110069015737       -0.01979379719455        0.02770026023794
C          -11.40157221628665        0.44542909129849        1.12860538067248
C          -10.01925797396013        0.45059352055069        1.12281400417987
C           -9.31292690774714       -0.01562409510740        0.01645151454797
C           -7.84282495967174       -0.01363244957114        0.01071770279024
C           -7.13092384470104       -1.09654719042492       -0.50047188373169
C           -5.75010258156088       -1.09776904341930       -0.49991027757712
C           -5.04078573216455       -0.01029643389737        0.00103111206541
C           -3.56332892321707       -0.00875137123005       -0.00280197446144
C           -2.86273088883479       -0.87463349179908        0.84951247724872
C           -3.53031016467580       -1.74588731023188        1.75012647841732
C           -2.83485802444269       -2.58166767340067        2.56850979961461
C           -1.42554721820364       -2.59658912526430        2.54353005178050
C           -0.74637970272679       -1.76469223993237        1.70866656014052
C           -1.43357231296833       -0.87570088812419        0.84155337650276
C           -0.74105246146741       -0.00318977554653       -0.00720168372601
C            0.74110848324337        0.00139548160928       -0.00720323332711
C            1.43342000338762        0.86846499486809        0.84725970254672
C            0.74594607262790        1.75069274898831        1.72103690367622
C            1.42474835747785        2.60465335723268        2.53361719198518
C            2.83389873007708        2.63403220857000        2.51374136455670
C            3.52962974773099        1.79972399068740        1.69407364325741
C            2.86253963860683        0.87875637637565        0.84397603900756
C            3.56348002380421        0.00800722859617       -0.00321728805360
C            5.04081354350063        0.01000877603946        0.00122706631299
C            5.75328690632400        0.48323428336312       -1.09657522399028
C            7.13408095019497        0.49080003579309       -1.08848520122441
C            7.84301608019485        0.01461567369817        0.01219745799153
C            9.31309143731307        0.01755950822313        0.01858052264713
C           10.02317749932833       -1.06977908480656        0.52236716255914
C           11.40549752023355       -1.06703949749119        0.52606131400743
C           12.10131257192164        0.02363231764452        0.03208356187109
C           11.40555781533464        1.11121439418666       -0.46874385997651
C           10.02326014282529        1.10793192601392       -0.47846716669234
C            7.12707803982096       -0.46417915516613        1.10722074477271
C            5.74631943633310       -0.46115273585681        1.10446552641984
C            2.86907644735946       -0.86522787250511       -0.85316621652488
C            3.54281411405063       -1.78269834007919       -1.70180211621325
C            2.85324088846867       -2.61998019182159       -2.52363545387041
C            1.44400088287882       -2.59743439822189       -2.54716242050193
C            0.75895252594683       -1.74698576504458       -1.73614884049704
C            1.43989148886313       -0.86164757308203       -0.86040623914937
C           -1.43962103988145        0.86579379550986       -0.85456326284757
C           -0.75865856196256        1.75709364964450       -1.72421280810130
C           -1.44375628251711        2.58576989950210       -2.55744273435829
C           -2.85308092192431        2.56538499749916       -2.57787878003148
C           -3.54266330775589        1.72740243184223       -1.75677013786870
C           -2.86878228542908        0.85909370483675       -0.85802227093258
C           -5.74922468025482        1.07566233044021        0.50649405436973
C           -7.12999399109514        1.07113940063963        0.51663015034366
C          -10.02675396839519       -0.48401373939409       -1.08415361358516
C          -11.40908075011331       -0.48299694167859       -1.07877976022642
H          -13.18112937138662       -0.02148947061820        0.03208547896864
H          -11.93629274455478        0.80415091871052        1.99628872960289
H           -9.47867032992836        0.79957110574296        1.99088949883410
H           -7.66659882443985       -1.95387904988272       -0.88181278475181
H           -5.20853868918761       -1.94552286214419       -0.89533132695414
H           -4.60982996669312       -1.73009725346748        1.77841477747208
H           -3.35814913043311       -3.23881461875076        3.24773402275755
H           -0.89182645106189       -3.26952727076690        3.19853432866972
H            0.33374063368383       -1.76422540499707        1.69204405656086
H           -0.33410115669183        1.73025823723885        1.72436681908941
H            0.89085259674408        3.27147526454516        3.19470855101583
H            3.35688995915742        3.32894186911510        3.15452175763645
H            4.60901028849265        1.83085455194336        1.67499072062961
H            5.21422926483665        0.85203556476333       -1.95782169442130
H            7.67218797236722        0.85031158304051       -1.95368636880593
H            9.48570506701556       -1.93032385816727        0.89404627303863
H           11.94314569191439       -1.92005808763637        0.91434468385617
H           13.18133513193192        0.02605108051118        0.03745241276024
H           11.94323271032688        1.96659940279032       -0.85174814421816
H            9.48566542645525        1.96613321256742       -0.85535025244714
H            7.65957244040152       -0.82182368952889        1.97665006624017
H            5.20169878912221       -0.83151118724853        1.96152943127429
H            4.62228430411749       -1.80854812833995       -1.67994090468955
H            3.38123447254690       -3.31209465578512       -3.16334218134695
H            0.91509329008242       -3.26664127148384       -3.20985012978070
H           -0.32117716409469       -1.73161504363785       -1.74228340686926
H            0.32150842942656        1.76073989741778       -1.71104791387104
H           -0.91477695183319        3.26034295427106       -3.21461561918116
H           -3.38108339260708        3.22009539101402       -3.25580909276107
H           -4.62221210099738        1.70739619353171       -1.78145549664583
H           -5.20698788260658        1.92470867751249        0.89820280568711
H           -7.66508266409418        1.92721279261483        0.90159119817670
H           -9.49213463524357       -0.83138952034359       -1.95655782207821
H          -11.94970707951039       -0.84337674979090       -1.94210113822385

          :  Hamiltonian                  GFN2-xTB          :
         :: gradient norm              0.000032778204 Eh/a0 ::
         :: HOMO-LUMO gap              2.130536153264 eV    ::
         :: SCC energy              -131.234859733669 Eh    ::
         :: -> dispersion             -0.125009627456 Eh    ::
         :: repulsion energy           2.549361015876 Eh    ::

    * Orbital Energies and Occupations

         #    Occupation            Energy/Eh            Energy/eV
      -------------------------------------------------------------
         1        2.0000           -0.6542939             -17.8042
       ...           ...                  ...                  ...
       109        2.0000           -0.4058854             -11.0447
       110        2.0000           -0.4056381             -11.0380
       111        2.0000           -0.4035841             -10.9821
       112        2.0000           -0.4035771             -10.9819
       113        2.0000           -0.4031670             -10.9707
       114        2.0000           -0.4026890             -10.9577
       115        2.0000           -0.3975503             -10.8179
       116        2.0000           -0.3967478             -10.7961
       117        2.0000           -0.3954726             -10.7614
       118        2.0000           -0.3831682             -10.4265
       119        2.0000           -0.3831582             -10.4263
       120        2.0000           -0.3563790              -9.6976
       121        2.0000           -0.3559526              -9.6860 (HOMO)
       122                         -0.2776569              -7.5554 (LUMO)
       123                         -0.2772223              -7.5436
       124                         -0.2438333              -6.6350
       125                         -0.2438121              -6.6345
       126                         -0.2297908              -6.2529
       127                         -0.2283892              -6.2148
       128                         -0.2226439              -6.0584
       129                         -0.2225424              -6.0557
       130                         -0.2214963              -6.0272
       131                         -0.2214948              -6.0272
       132                         -0.2180005              -5.9321
       ...                                ...                  ...
       242                          0.7179374              19.5361
      -------------------------------------------------------------
                  HL-Gap            0.0782958 Eh            2.1305 eV

     #   Z          covCN         q      C6AA      α(0)
     1   6 C        2.920    -0.031    28.777     8.797
     2   6 C        2.918    -0.030    28.740     8.791
     3   6 C        2.925    -0.034    28.843     8.807
     4   6 C        2.977     0.010    27.790     8.647
     5   6 C        2.977     0.007    27.853     8.657
     6   6 C        2.924    -0.035    28.868     8.811
     7   6 C        2.923    -0.033    28.823     8.804
     8   6 C        2.977     0.014    27.703     8.634
     9   6 C        2.977    -0.007    28.195     8.710
    10   6 C        2.984     0.005    27.894     8.663
    11   6 C        2.917    -0.035    28.863     8.810
    12   6 C        2.915    -0.030    28.749     8.792
    13   6 C        2.914    -0.030    28.746     8.792
    14   6 C        2.918    -0.032    28.810     8.802
    15   6 C        2.985     0.006    27.873     8.660
    16   6 C        2.979    -0.001    28.051     8.688
    17   6 C        2.979    -0.001    28.051     8.688
    18   6 C        2.985     0.006    27.873     8.660
    19   6 C        2.918    -0.032    28.810     8.802
    20   6 C        2.914    -0.030    28.747     8.792
    21   6 C        2.915    -0.030    28.749     8.792
    22   6 C        2.917    -0.035    28.863     8.810
    23   6 C        2.984     0.005    27.894     8.663
    24   6 C        2.977    -0.007    28.195     8.710
    25   6 C        2.977     0.014    27.704     8.634
    26   6 C        2.922    -0.033    28.824     8.804
    27   6 C        2.924    -0.035    28.869     8.811
    28   6 C        2.977     0.007    27.853     8.657
    29   6 C        2.977     0.010    27.790     8.647
    30   6 C        2.925    -0.034    28.843     8.807
    31   6 C        2.918    -0.030    28.740     8.791
    32   6 C        2.920    -0.031    28.777     8.797
    33   6 C        2.918    -0.030    28.740     8.791
    34   6 C        2.925    -0.034    28.843     8.807
    35   6 C        2.924    -0.035    28.868     8.811
    36   6 C        2.923    -0.033    28.823     8.804
    37   6 C        2.984     0.005    27.894     8.663
    38   6 C        2.917    -0.035    28.863     8.810
    39   6 C        2.915    -0.030    28.749     8.792
    40   6 C        2.914    -0.030    28.747     8.792
    41   6 C        2.918    -0.032    28.810     8.802
    42   6 C        2.985     0.006    27.873     8.660
    43   6 C        2.985     0.006    27.873     8.660
    44   6 C        2.918    -0.032    28.810     8.802
    45   6 C        2.914    -0.030    28.746     8.792
    46   6 C        2.915    -0.030    28.749     8.792
    47   6 C        2.917    -0.035    28.862     8.810
    48   6 C        2.984     0.005    27.894     8.663
    49   6 C        2.923    -0.033    28.823     8.804
    50   6 C        2.924    -0.035    28.868     8.811
    51   6 C        2.925    -0.034    28.843     8.807
    52   6 C        2.918    -0.030    28.740     8.791
    53   1 H        0.926     0.029     2.603     2.523
    54   1 H        0.926     0.029     2.601     2.522
    55   1 H        0.926     0.030     2.579     2.512
    56   1 H        0.926     0.031     2.568     2.506
    57   1 H        0.926     0.030     2.593     2.518
    58   1 H        0.926     0.031     2.571     2.507
    59   1 H        0.926     0.028     2.615     2.529
    60   1 H        0.926     0.028     2.616     2.529
    61   1 H        0.926     0.029     2.595     2.519
    62   1 H        0.926     0.029     2.596     2.519
    63   1 H        0.926     0.028     2.617     2.530
    64   1 H        0.926     0.028     2.615     2.529
    65   1 H        0.926     0.031     2.571     2.507
    66   1 H        0.926     0.030     2.592     2.518
    67   1 H        0.926     0.031     2.568     2.506
    68   1 H        0.926     0.030     2.579     2.511
    69   1 H        0.926     0.029     2.601     2.522
    70   1 H        0.926     0.029     2.603     2.523
    71   1 H        0.926     0.029     2.601     2.522
    72   1 H        0.926     0.030     2.579     2.511
    73   1 H        0.926     0.031     2.568     2.506
    74   1 H        0.926     0.030     2.592     2.518
    75   1 H        0.926     0.031     2.571     2.507
    76   1 H        0.926     0.028     2.615     2.529
    77   1 H        0.926     0.028     2.617     2.530
    78   1 H        0.926     0.029     2.595     2.519
    79   1 H        0.926     0.029     2.595     2.519
    80   1 H        0.926     0.028     2.616     2.529
    81   1 H        0.926     0.028     2.615     2.529
    82   1 H        0.926     0.031     2.571     2.508
    83   1 H        0.926     0.030     2.593     2.518
    84   1 H        0.926     0.031     2.568     2.506
    85   1 H        0.926     0.030     2.579     2.512
    86   1 H        0.926     0.029     2.601     2.522

molecular dipole:
                 x           y           z       tot (Debye)
 q only:        0.000      -0.000       0.000
   full:        0.000       0.000       0.001       0.002

 projected vibrational frequencies (cm⁻¹)
eigval :       -0.00    -0.00    -0.00     0.00     0.00     0.00
eigval :        7.94     8.44     8.49    22.66    22.74    25.74
eigval :       26.80    49.16    49.64    64.39    64.53    73.50
eigval :       74.24    86.59    86.70    98.74   106.15   106.27
eigval :      106.40   110.98   153.40   157.03   157.81   170.44
eigval :      207.72   207.79   211.37   212.79   222.99   223.22
eigval :      271.64   312.37   312.53   316.46   367.90   368.11
eigval :      371.12   371.47   372.10   376.25   380.73   387.64
eigval :      387.77   405.60   412.16   412.27   415.38   432.97
eigval :      433.86   439.93   440.42   450.26   458.21   459.88
eigval :      486.48   486.58   525.15   525.33   556.41   556.76
eigval :      582.79   582.81   585.17   587.41   587.47   592.14
eigval :      592.18   594.69   616.85   616.99   620.61   641.59
eigval :      641.97   653.66   669.13   669.16   673.87   690.45
eigval :      694.41   699.41   699.47   703.11   739.63   739.84
eigval :      752.43   757.05   757.07   763.54   772.57   772.65
eigval :      774.84   775.42   819.73   819.86   843.08   872.45
eigval :      872.62   873.09   873.14   875.79   875.83   881.07
eigval :      881.15   896.97   897.34   901.48   901.49   916.02
eigval :      916.08   916.19   916.56   917.21   917.54   920.59
eigval :      920.70   926.83   927.12   927.96   928.01   928.94
eigval :      929.09   932.05   932.53   932.62   932.83   933.43
eigval :      933.55   969.18   969.49  1011.65  1013.96  1064.41
eigval :     1076.51  1077.14  1079.61  1079.65  1080.56  1080.98
eigval :     1088.53  1088.54  1121.87  1121.88  1135.32  1135.34
eigval :     1139.75  1139.84  1155.90  1180.36  1180.43  1181.77
eigval :     1182.77  1182.77  1183.98  1188.63  1194.48  1194.80
eigval :     1202.85  1203.15  1217.24  1218.35  1227.41  1227.57
eigval :     1255.44  1257.09  1262.70  1263.11  1272.95  1273.03
eigval :     1282.09  1282.12  1294.09  1294.76  1297.84  1311.05
eigval :     1311.13  1319.09  1319.12  1332.13  1350.28  1350.40
eigval :     1357.86  1385.32  1385.46  1388.22  1394.39  1394.43
eigval :     1418.70  1421.43  1429.75  1429.80  1433.81  1433.81
eigval :     1441.63  1450.34  1465.62  1470.82  1480.16  1489.32
eigval :     1507.54  1507.62  1526.65  1526.72  1530.17  1530.53
eigval :     1542.94  1543.66  1558.47  1558.53  1583.36  1583.36
eigval :     1596.10  1596.17  1604.29  1604.30  1608.94  1608.96
eigval :     1623.18  1623.39  3070.11  3070.14  3070.18  3070.22
eigval :     3072.33  3072.36  3072.39  3072.44  3072.91  3072.92
eigval :     3072.97  3073.19  3078.14  3078.49  3078.53  3079.12
eigval :     3079.72  3079.78  3082.44  3082.47  3084.77  3084.85
eigval :     3085.13  3085.19  3087.77  3087.80  3087.86  3088.69
eigval :     3091.80  3091.83  3092.69  3092.74  3093.34  3093.97

   temp. (K)  partition function   enthalpy   heat capacity  entropy
                                   cal/mol     cal/K/mol   cal/K/mol   J/K/mol
 298.15  VIB  0.410E+20            23966.453    152.170    151.027
         ROT  0.107E+09              888.752      2.981     39.730
         INT  0.440E+28            24855.205    155.151    190.758
         TR   0.164E+29             1481.254      4.968     45.317
         TOT                       26336.4591   160.1192   236.0747   987.7365

       T/K    H(0)-H(T)+PV         H(T)/Eh          T*S/Eh         G(T)/Eh
   ------------------------------------------------------------------------
    298.15    0.419698E-01    0.710657E+00    0.112167E+00    0.598490E+00
   ------------------------------------------------------------------------

         :::::::::::::::::::::::::::::::::::::::::::::::::::::
         ::                  THERMODYNAMIC                  ::
         :::::::::::::::::::::::::::::::::::::::::::::::::::::
         :: total free energy        -128.087008346293 Eh   ::
         ::.................................................::
         :: total energy             -128.685498717776 Eh   ::
         :: zero point energy           0.668687250048 Eh   ::
         :: G(RRHO) w/o ZPVE           -0.070196878564 Eh   ::
         :: G(RRHO) contrib.            0.598490371484 Eh   ::
         :::::::::::::::::::::::::::::::::::::::::::::::::::::

           -------------------------------------------------
          | TOTAL ENERGY             -128.685498717776 Eh   |
          | TOTAL ENTHALPY           -127.974841648729 Eh   |
          | TOTAL FREE ENERGY        -128.087008346293 Eh   |
          | GRADIENT NORM               0.000032751579 Eh/α |
          | HOMO-LUMO GAP               2.130536135390 eV   |
           -------------------------------------------------

 * finished run on 2025/08/24 at 05:42:31.910
