   * xtb version 6.7.1 (edcfbbe) compiled by 'albert@albert-system' on 2024-07-22

   ID    Z sym.   atoms
    1    6 C      1-52
    2    1 H      53-86

          program call               : xtb data2507/gas/BANE/BANE_gas_T1_crest.xyz --gfn 2 --spinpol --tblite --uhf 2 --ohess vtight --parallel 40 --molden --ceasefiles --namespace data2507/gas/BANE/BANE_gas_T1_finalOpt
 * total energy  :  -128.6232066 Eh     change       -0.8519720E-08 Eh
 * total energy  :  -128.6232158 Eh     change       -0.9135983E-05 Eh
 * total energy  :  -128.6232190 Eh     change       -0.3243984E-05 Eh
 * total energy  :  -128.6232209 Eh     change       -0.1931547E-05 Eh
 * total energy  :  -128.6232252 Eh     change       -0.4277273E-05 Eh
 * total energy  :  -128.6232271 Eh     change       -0.1915776E-05 Eh
 * total energy  :  -128.6232287 Eh     change       -0.1581853E-05 Eh
 * total energy  :  -128.6232304 Eh     change       -0.1694039E-05 Eh
 * total energy  :  -128.6232333 Eh     change       -0.2874680E-05 Eh
 * total energy  :  -128.6232351 Eh     change       -0.1767190E-05 Eh
 * total energy  :  -128.6232468 Eh     change       -0.1909968E-06 Eh
 * total energy  :  -128.6232472 Eh     change       -0.3430040E-06 Eh
 * total energy  :  -128.6232481 Eh     change       -0.9463849E-06 Eh
 * total energy  :  -128.6232485 Eh     change       -0.4032971E-06 Eh
 * total energy  :  -128.6232489 Eh     change       -0.3670435E-06 Eh
 * total energy  :  -128.6232491 Eh     change       -0.2039436E-06 Eh
 * total energy  :  -128.6232493 Eh     change       -0.2139551E-06 Eh
 * total energy  :  -128.6232495 Eh     change       -0.1622671E-06 Eh
 * total energy  :  -128.6232495 Eh     change       -0.1410015E-07 Eh
   *** GEOMETRY OPTIMIZATION CONVERGED AFTER 44 ITERATIONS ***

 final structure:
================
86
 xtb: 6.7.1 (edcfbbe)
C          -12.10859498174112        0.06246912580888       -0.01807603421096
C          -11.40508162051775        0.39432067249633       -1.16390452460948
C          -10.02298223067121        0.38013204743929       -1.16007631730395
C           -9.31990547525179        0.02747839645320       -0.00992717538935
C           -7.85101019306519        0.01166024941498       -0.00491872901814
C           -7.14894632048548       -1.00898068890966        0.63443485353682
C           -5.76950833367579       -1.02743537468203        0.63327856057872
C           -5.04251580898390       -0.01423081894106        0.00785731355015
C           -3.57487324502404       -0.02394491456511        0.01520879010131
C           -2.86623482491212        1.03388767280531        0.63903949903133
C           -3.54152055393245        2.05363298527340        1.33886840967484
C           -2.85656721631239        3.04053620458975        2.00865428961031
C           -1.46515341117108        3.02121982178354        2.03841107901826
C           -0.77668683583435        2.02472393873280        1.38338004716189
C           -1.44166807779502        1.03512586098516        0.64068009609722
C           -0.72081776701468       -0.03036485640744        0.01562691750826
C            0.72093867412110       -0.02521367406418        0.00766421584426
C            1.43431932365153        1.04708662331703       -0.61447234408477
C            0.76211868692766        2.03714857359816       -1.34997856474657
C            1.44345474133555        3.04007087465045       -2.00270423617071
C            2.83482283569308        3.06556747728171       -1.97834819452066
C            3.52680499071832        2.07837682122763       -1.31620690922620
C            2.85896733905725        1.05239649257443       -0.61838041225625
C            3.57493937762958       -0.00522633057777       -0.00257603394464
C            5.04252634321024        0.00639177696098       -0.00682073767889
C            5.76403260914251       -1.00554469448218       -0.64071916818527
C            7.14332454543852       -0.98734058680366       -0.65365043466617
C            7.85098704027834        0.03172271563772       -0.01793663558219
C            9.31988311453966        0.04583549779078       -0.02499978414798
C           10.02817430147820       -0.28759461680073       -1.17766312632553
C           11.41023835608975       -0.27070133136377       -1.18441541919246
C           12.10858327058793        0.07342776928011       -0.03904982023569
C           11.41512845004127        0.40379132679826        1.11331802167579
C           10.03299571564605        0.39335327640920        1.12049806325251
C            7.13017956932117        1.03751698709214        0.62411921899448
C            5.75075481897098        1.03080657401575        0.62207638432449
C            2.87806010540099       -1.07331645294145        0.61693739272833
C            3.56519714991463       -2.08985085212788        1.30983931583338
C            2.89194671798465       -3.08718402111055        1.97608193685815
C            1.50050561937071       -3.08198887108982        2.00946032578915
C            0.80039782512902       -2.08877694256099        1.36176721013936
C            1.45332795340724       -1.08841493136889        0.62277996272239
C           -1.44576136276544       -1.09622982279367       -0.60374005395658
C           -0.78561290223136       -2.09213448458467       -1.34237894714386
C           -1.47864149769232       -3.08769261984695       -1.99399335386142
C           -2.87015942637754       -3.09975894439352       -1.96533647435904
C           -3.55044979914339       -2.10662515058961       -1.30005149424276
C           -2.87067121785513       -1.08789374400026       -0.60305867567153
C           -5.74525680301657        1.01175500889444       -0.62470107889579
C           -7.12453680346234        1.01876845991565       -0.63851663604947
C          -10.03827856732704       -0.30792502892409        1.13589549278440
C          -11.42031589369052       -0.28735231697556        1.13164460166216
H          -13.18852308412254        0.07647479660229       -0.02109891566155
H          -11.93674192624261        0.66376035468272       -2.06513049617523
H           -9.48018900211979        0.62352717567997       -2.06208849575420
H           -7.69326135781893       -1.80625248758040        1.11976188230260
H           -5.23923427617831       -1.82291988389968        1.13754482187406
H           -4.62064625504345        2.04450344041922        1.36211979423539
H           -3.39892721474820        3.81536950844627        2.53014252980257
H           -0.92438922550364        3.77655308403300        2.58897326359082
H            0.30078863565213        1.99937107656787        1.44253424353966
H           -0.31541009209410        2.00721497397641       -1.40544661694772
H            0.89703194857907        3.79561069934368       -2.54735949308813
H            3.37163977876975        3.84540632954268       -2.49809825083356
H            4.60583667177913        2.07415489577828       -1.34403033051269
H            5.22924615030194       -1.79993210827893       -1.14193685086823
H            7.68338520997341       -1.78363690490257       -1.14528480441156
H            9.48897613221675       -0.54017914343582       -2.07930681177217
H           11.94587491673118       -0.52509707454236       -2.08765483910609
H           13.18853855466276        0.08415864596937       -0.04450319107934
H           11.95470505989967        0.66894578182155        2.01110175871382
H            9.49802748457994        0.63544224102778        2.02752312225938
H            7.65964203100067        1.84349885633005        1.11147145070351
H            5.20568420378659        1.81555160080425        1.12738653225192
H            4.64422223360197       -2.06992339959111        1.33052915535656
H            3.44341380679608       -3.85933723001220        2.49196141324615
H            0.96873349388142       -3.84580749111306        2.55706214067148
H           -0.27711462816359       -2.07473029268335        1.42363408702795
H            0.29198996880998       -2.07280800516192       -1.40082637541331
H           -0.94125581125987       -3.84799764874222       -2.54101635794334
H           -3.41608061090468       -3.87387458554564       -2.48417140488508
H           -4.62947163130313       -2.09184415977242       -1.32447615040534
H           -5.19570599986871        1.79776994110328       -1.12313286862890
H           -7.64963306313060        1.82610039015011       -1.12833881324252
H           -9.50703395207238       -0.56479407750637        2.04104151198770
H          -11.96382680228758       -0.54315156546466        2.02977015167478

 projected vibrational frequencies (cm⁻¹)
eigval :       -0.00    -0.00     0.00     0.00     0.00     0.00
eigval :        7.04     8.15    21.04    22.89    23.90    27.80
eigval :       43.85    44.08    47.75    67.99    73.03    74.79
eigval :       85.73    87.99    90.60    97.74    99.87   105.83
eigval :      108.07   125.93   150.81   154.95   176.91   180.34
eigval :      213.83   214.63   216.34   225.65   225.93   232.08
eigval :      275.00   314.62   315.20   316.24   325.28   361.45
eigval :      366.23   369.12   369.31   376.17   376.85   383.37
eigval :      386.41   395.30   399.15   407.69   407.90   414.44
eigval :      421.56   430.27   439.72   443.08   468.91   471.03
eigval :      485.01   487.33   522.28   529.74   549.04   557.17
eigval :      576.73   577.13   577.36   585.36   585.74   591.39
eigval :      592.59   593.06   607.46   615.79   616.89   628.80
eigval :      635.10   650.07   668.30   668.66   671.31   676.35
eigval :      685.17   695.69   698.68   706.96   725.92   728.66
eigval :      734.93   750.43   756.46   756.63   761.28   762.57
eigval :      766.45   768.52   811.65   821.00   821.08   834.53
eigval :      861.62   862.01   863.47   864.90   873.84   875.32
eigval :      880.90   881.91   887.00   900.00   901.06   901.90
eigval :      904.71   905.74   906.83   908.63   914.94   915.27
eigval :      915.47   915.62   916.45   916.56   923.60   924.38
eigval :      929.15   929.28   932.29   932.36   933.60   934.71
eigval :      934.95   957.81   968.76   969.22  1010.56  1012.72
eigval :     1072.39  1076.04  1078.27  1088.33  1088.34  1101.89
eigval :     1102.52  1103.14  1103.30  1122.17  1122.20  1129.77
eigval :     1130.43  1140.89  1140.91  1147.41  1181.16  1182.55
eigval :     1182.55  1182.99  1183.48  1186.24  1188.18  1193.14
eigval :     1193.72  1201.20  1201.71  1213.45  1214.18  1234.11
eigval :     1239.81  1258.36  1259.23  1271.81  1271.96  1273.48
eigval :     1282.09  1282.10  1292.43  1293.11  1294.57  1307.84
eigval :     1311.65  1313.54  1319.20  1319.28  1333.18  1339.91
eigval :     1340.58  1345.76  1349.84  1352.74  1369.02  1381.66
eigval :     1394.30  1394.44  1405.92  1411.41  1414.13  1416.11
eigval :     1417.84  1418.62  1430.78  1433.27  1433.29  1462.03
eigval :     1463.98  1472.47  1499.43  1501.10  1513.67  1518.44
eigval :     1518.79  1544.10  1546.30  1546.46  1548.32  1548.66
eigval :     1567.40  1568.21  1581.70  1581.71  1586.96  1587.25
eigval :     1601.64  1601.68  3069.83  3069.84  3070.04  3070.08
eigval :     3072.02  3072.05  3072.32  3072.33  3075.60  3075.65
eigval :     3075.69  3075.79  3079.87  3079.89  3081.92  3081.94
eigval :     3083.71  3083.89  3084.16  3084.31  3084.33  3084.78
eigval :     3085.09  3085.11  3092.07  3092.17  3094.06  3094.38
eigval :     3095.01  3095.85  3096.02  3096.84  3097.66  3099.40

   temp. (K)  partition function   enthalpy   heat capacity  entropy
                                   cal/mol     cal/K/mol   cal/K/mol   J/K/mol
 298.15  VIB  0.846E+19            24010.215    153.945    149.891
         ROT  0.108E+09              888.752      2.981     39.743
         INT  0.914E+27            24898.967    156.926    189.634
         TR   0.164E+29             1481.254      4.968     45.317
         TOT                       26380.2208   161.8940   234.9513   983.0363

       T/K    H(0)-H(T)+PV         H(T)/Eh          T*S/Eh         G(T)/Eh
   ------------------------------------------------------------------------
    298.15    0.420396E-01    0.707120E+00    0.111633E+00    0.595487E+00
   ------------------------------------------------------------------------

         :::::::::::::::::::::::::::::::::::::::::::::::::::::
         ::                  THERMODYNAMIC                  ::
         :::::::::::::::::::::::::::::::::::::::::::::::::::::
         :: total free energy        -128.027762570682 Eh   ::
         ::.................................................::
         :: total energy             -128.623249485471 Eh   ::
         :: zero point energy           0.665080310564 Eh   ::
         :: G(RRHO) w/o ZPVE           -0.069593395775 Eh   ::
         :: G(RRHO) contrib.            0.595486914789 Eh   ::
         :::::::::::::::::::::::::::::::::::::::::::::::::::::

           -------------------------------------------------
          | TOTAL ENERGY             -128.623249485471 Eh   |
          | TOTAL ENTHALPY           -127.916129617106 Eh   |
          | TOTAL FREE ENERGY        -128.027762570682 Eh   |
          | GRADIENT NORM               0.000029233994 Eh/α |
           -------------------------------------------------

 * finished run on 2025/08/24 at 05:48:52.796
