   * xtb version 6.7.1 (edcfbbe) compiled by 'albert@albert-system' on 2024-07-22

   ID    Z sym.   atoms
    1    6 C      1-52
    2    1 H      53-86

          program call               : xtb data2507/gas/BANE/BANE.xyz --gfn 2 --ohess vtight --parallel 40 --molden --ceasefiles --namespace data2507/gas/BANE/BANE_gas_S0_preOpt
          :  Hamiltonian                  GFN2-xTB          :
 * total energy  :  -128.6587450 Eh     change       -0.1502002E-08 Eh
 * total energy  :  -128.6776433 Eh     change       -0.1889828E-01 Eh
 * total energy  :  -128.6830149 Eh     change       -0.5371576E-02 Eh
 * total energy  :  -128.6837434 Eh     change       -0.7285555E-03 Eh
 * total energy  :  -128.6841652 Eh     change       -0.4218032E-03 Eh
 * total energy  :  -128.6843485 Eh     change       -0.1833024E-03 Eh
 * total energy  :  -128.6845200 Eh     change       -0.1714590E-03 Eh
 * total energy  :  -128.6846574 Eh     change       -0.1374503E-03 Eh
 * total energy  :  -128.6847367 Eh     change       -0.7921102E-04 Eh
 * total energy  :  -128.6848207 Eh     change       -0.8399903E-04 Eh
 * total energy  :  -128.6854649 Eh     change       -0.2399960E-06 Eh
 * total energy  :  -128.6854651 Eh     change       -0.2431351E-06 Eh
 * total energy  :  -128.6854654 Eh     change       -0.2430098E-06 Eh
 * total energy  :  -128.6854656 Eh     change       -0.2283106E-06 Eh
 * total energy  :  -128.6854659 Eh     change       -0.2300798E-06 Eh
 * total energy  :  -128.6854661 Eh     change       -0.2272889E-06 Eh
 * total energy  :  -128.6854663 Eh     change       -0.2256615E-06 Eh
 * total energy  :  -128.6854665 Eh     change       -0.2099627E-06 Eh
 * total energy  :  -128.6854665 Eh     change       -0.6779686E-08 Eh
   *** GEOMETRY OPTIMIZATION CONVERGED AFTER 221 ITERATIONS ***

 final structure:
================
86
 xtb: 6.7.1 (edcfbbe)
C          -12.10170708704185        0.00203405520464       -0.00177706029934
C          -11.40633257700698        0.42672477728595        1.11794202534155
C          -10.02402051820013        0.42879437138409        1.11876638790644
C           -9.31319955903145        0.00070271775791       -0.00008819637628
C           -7.84311733971227        0.00003475776337        0.00070997747952
C           -7.13031214974329        1.06002707525091        0.55692149407192
C           -5.74949393044466        1.05988306555490        0.55748914397937
C           -5.04087964418019       -0.00084108226740        0.00143502310511
C           -3.56323374659502       -0.00089641991586        0.00110049088032
C           -2.86622850146245        0.16243319737004       -1.20474338580654
C           -3.53782858267623        0.36005173741835       -2.43991670458172
C           -2.84599451034733        0.51463781907050       -3.60152440626004
C           -1.43663635197243        0.48607078828314       -3.60274055247542
C           -0.75375508005730        0.31625826401515       -2.43862051669100
C           -1.43708757722807        0.15577003254467       -1.20504498395089
C           -0.74109038041862       -0.00055614360281        0.00008841550468
C            0.74109039001078       -0.00036214172455       -0.00042364114456
C            1.43674973620141       -1.20564266070507       -0.15711685500885
C            0.75308792293817       -2.43905555350144       -0.31744383768949
C            1.43565460760046       -3.60331281447278       -0.48758812220647
C            2.84500434476553       -3.60240745532910       -0.51671321335704
C            3.53715308115256       -2.44097108722278       -0.36224423456120
C            2.86589007847648       -1.20567891756238       -0.16423031389192
C            3.56323351562366       -0.00004224463615       -0.00088751350792
C            5.04087902665315        0.00001002065674       -0.00065931568130
C            5.74943394231905       -0.55622306158613        1.06000903907274
C            7.13024965759937       -0.55595447274532        1.06015522717828
C            7.84311656027228        0.00001354773874        0.00006950956334
C            9.31319766122160        0.00015990380698        0.00045899225572
C           10.02347727866889        1.11958255818218       -0.42703157406504
C           11.40578341767190        1.11981026851549       -0.42380614441413
C           12.10170718869086        0.00059024588316        0.00132312861422
C           11.40593328510812       -1.11886189617076        0.42604541474818
C           10.02361892848274       -1.11902091362375        0.42839416117700
C            7.13076330281600        0.55592061628323       -1.06039473287358
C            5.74994463581807        0.55616474483413       -1.06102179546178
C            2.86567995311295        1.20548156477617        0.16241469136876
C            3.53670610298457        2.44099182656072        0.35988203628465
C            2.84432750975145        3.60229789667142        0.51431433062627
C            1.43496568853804        3.60284113355739        0.48579810937108
C            0.75262480794062        2.43837422690012        0.31618846520651
C            1.43653368726959        1.20510433670418        0.15580293342877
C           -1.43619544068912       -0.15699910283976        1.20572193169384
C           -0.75195485494876       -0.31709927023083        2.43884501206987
C           -1.43398063157490       -0.48684025439698        3.60347822260975
C           -2.84333546335379       -0.51583982127793        3.60325883805063
C           -3.53602977351272       -0.36168195194271        2.44210404981733
C           -2.86534159783146       -0.16402995808636        1.20644146778714
C           -5.74988567455026       -1.06123817775455       -0.55475118795315
C           -7.13070057529251       -1.06052998714104       -0.55491071868957
C          -10.02308036212461       -0.42666328972029       -1.11982315020677
C          -11.40538732290979       -0.42329161441836       -1.12066777033422
H          -13.18174012887932        0.00252005057797       -0.00241845495170
H          -11.94434376849637        0.75606502918203        1.99518239681052
H           -9.48720461375715        0.74562491125870        2.00135929794759
H           -7.66514084571324        1.90110371596236        0.97387693394120
H           -5.20740881127415        1.89201396033112        0.98412568789450
H           -4.61739598859590        0.39125992548421       -2.44038026697634
H           -3.37201794445416        0.66430228579406       -4.53314856893759
H           -0.90584025981848        0.60713030585452       -4.53565874704188
H            0.32639339987914        0.30281516592433       -2.43172284126139
H           -0.32705475542874       -2.43191652899740       -0.30361172089287
H            0.90460572014273       -4.53610753904706       -0.60848811856595
H            3.37075649309137       -4.53413289914459       -0.66670464206011
H            4.61671005528834       -2.44163712999592       -0.39388820622486
H            5.20728828648590       -0.98282408185174        1.89212470747684
H            7.66502647987350       -0.97310736052548        1.90116016842555
H            9.48622828458825        2.00180232569804       -0.74420562854656
H           11.94337491327208        1.99748894828913       -0.75262719168615
H           13.18174121588691        0.00080068657370        0.00163554163160
H           11.94361387889516       -1.99636618070749        0.75524452121037
H            9.48647466615772       -2.00138381544783        0.74528673795233
H            7.66596343138065        0.97300636153958       -1.90116968670219
H            5.20821524205605        0.98270368723571       -1.89343308735386
H            4.61627574614985        2.44195560798120        0.39104481118470
H            3.36990622393704        4.53420366211879        0.66380103208468
H            0.90372956811995        4.53552806345892        0.60671248182344
H           -0.32752167588080        2.43096818091124        0.30277234193692
H            0.32818619226909       -0.30335809193532        2.43118788981981
H           -0.90249199818298       -0.60749829218620        4.53605503710418
H           -3.36864548391787       -0.66547881064722        4.53529172719425
H           -4.61559084189958       -0.39323591049416        2.44328486077941
H           -5.20809585281787       -1.89367509176285       -0.98115595416957
H           -7.66584609501040       -1.90126583209618       -0.97215612841442
H           -9.48549954144758       -0.74393969821333       -2.00179161544137
H          -11.94264727068189       -0.75209186822269       -1.99857090769447

          :  Hamiltonian                  GFN2-xTB          :
         :: gradient norm              0.000050568938 Eh/a0 ::
         :: HOMO-LUMO gap              2.146038065806 eV    ::
         :: SCC energy              -131.235021787935 Eh    ::
         :: -> dispersion             -0.125069379056 Eh    ::
         :: repulsion energy           2.549555267391 Eh    ::

    * Orbital Energies and Occupations

         #    Occupation            Energy/Eh            Energy/eV
      -------------------------------------------------------------
         1        2.0000           -0.6543808             -17.8066
       ...           ...                  ...                  ...
       109        2.0000           -0.4059310             -11.0459
       110        2.0000           -0.4055529             -11.0357
       111        2.0000           -0.4037241             -10.9859
       112        2.0000           -0.4035934             -10.9823
       113        2.0000           -0.4032465             -10.9729
       114        2.0000           -0.4028036             -10.9608
       115        2.0000           -0.3976447             -10.8205
       116        2.0000           -0.3968479             -10.7988
       117        2.0000           -0.3955808             -10.7643
       118        2.0000           -0.3830123             -10.4223
       119        2.0000           -0.3830123             -10.4223
       120        2.0000           -0.3563616              -9.6971
       121        2.0000           -0.3563603              -9.6971 (HOMO)
       122                         -0.2774948              -7.5510 (LUMO)
       123                         -0.2774934              -7.5510
       124                         -0.2440210              -6.6401
       125                         -0.2440205              -6.6401
       126                         -0.2298865              -6.2555
       127                         -0.2284863              -6.2174
       128                         -0.2226613              -6.0589
       129                         -0.2225601              -6.0562
       130                         -0.2214966              -6.0272
       131                         -0.2214962              -6.0272
       132                         -0.2181072              -5.9350
       ...                                ...                  ...
       242                          0.7175751              19.5262
      -------------------------------------------------------------
                  HL-Gap            0.0788654 Eh            2.1460 eV

     #   Z          covCN         q      C6AA      α(0)
     1   6 C        2.920    -0.031    28.776     8.797
     2   6 C        2.918    -0.030    28.740     8.791
     3   6 C        2.925    -0.034    28.842     8.807
     4   6 C        2.977     0.010    27.789     8.647
     5   6 C        2.977     0.007    27.853     8.657
     6   6 C        2.924    -0.035    28.868     8.811
     7   6 C        2.923    -0.033    28.823     8.804
     8   6 C        2.977     0.014    27.702     8.634
     9   6 C        2.977    -0.007    28.194     8.710
    10   6 C        2.984     0.005    27.894     8.663
    11   6 C        2.917    -0.035    28.861     8.810
    12   6 C        2.915    -0.030    28.748     8.792
    13   6 C        2.914    -0.030    28.746     8.792
    14   6 C        2.918    -0.032    28.809     8.802
    15   6 C        2.985     0.006    27.873     8.660
    16   6 C        2.978    -0.001    28.050     8.688
    17   6 C        2.978    -0.001    28.050     8.688
    18   6 C        2.985     0.006    27.873     8.660
    19   6 C        2.918    -0.032    28.809     8.802
    20   6 C        2.914    -0.030    28.746     8.792
    21   6 C        2.915    -0.030    28.748     8.792
    22   6 C        2.917    -0.035    28.861     8.810
    23   6 C        2.984     0.005    27.894     8.663
    24   6 C        2.977    -0.007    28.194     8.710
    25   6 C        2.977     0.014    27.702     8.634
    26   6 C        2.923    -0.033    28.823     8.804
    27   6 C        2.924    -0.035    28.868     8.811
    28   6 C        2.977     0.007    27.853     8.657
    29   6 C        2.977     0.010    27.789     8.647
    30   6 C        2.925    -0.034    28.842     8.807
    31   6 C        2.918    -0.030    28.740     8.791
    32   6 C        2.920    -0.031    28.776     8.797
    33   6 C        2.918    -0.030    28.740     8.791
    34   6 C        2.925    -0.034    28.842     8.807
    35   6 C        2.924    -0.035    28.868     8.811
    36   6 C        2.923    -0.033    28.823     8.804
    37   6 C        2.984     0.005    27.894     8.663
    38   6 C        2.917    -0.035    28.861     8.810
    39   6 C        2.915    -0.030    28.748     8.792
    40   6 C        2.914    -0.030    28.746     8.792
    41   6 C        2.918    -0.032    28.809     8.802
    42   6 C        2.985     0.006    27.873     8.660
    43   6 C        2.985     0.006    27.873     8.660
    44   6 C        2.918    -0.032    28.809     8.802
    45   6 C        2.914    -0.030    28.746     8.792
    46   6 C        2.915    -0.030    28.748     8.792
    47   6 C        2.917    -0.035    28.861     8.810
    48   6 C        2.984     0.005    27.894     8.663
    49   6 C        2.923    -0.033    28.823     8.804
    50   6 C        2.924    -0.035    28.868     8.811
    51   6 C        2.925    -0.034    28.842     8.807
    52   6 C        2.918    -0.030    28.740     8.791
    53   1 H        0.926     0.029     2.603     2.523
    54   1 H        0.926     0.029     2.601     2.522
    55   1 H        0.926     0.030     2.581     2.512
    56   1 H        0.926     0.031     2.567     2.506
    57   1 H        0.926     0.029     2.594     2.519
    58   1 H        0.926     0.031     2.573     2.508
    59   1 H        0.926     0.028     2.615     2.529
    60   1 H        0.926     0.028     2.616     2.529
    61   1 H        0.926     0.029     2.595     2.519
    62   1 H        0.926     0.029     2.595     2.519
    63   1 H        0.926     0.028     2.616     2.529
    64   1 H        0.926     0.028     2.615     2.529
    65   1 H        0.926     0.031     2.573     2.508
    66   1 H        0.926     0.029     2.594     2.519
    67   1 H        0.926     0.031     2.567     2.506
    68   1 H        0.926     0.030     2.581     2.512
    69   1 H        0.926     0.029     2.601     2.522
    70   1 H        0.926     0.029     2.603     2.523
    71   1 H        0.926     0.029     2.601     2.522
    72   1 H        0.926     0.030     2.581     2.512
    73   1 H        0.926     0.031     2.567     2.506
    74   1 H        0.926     0.029     2.594     2.519
    75   1 H        0.926     0.031     2.573     2.508
    76   1 H        0.926     0.028     2.615     2.529
    77   1 H        0.926     0.028     2.616     2.529
    78   1 H        0.926     0.029     2.595     2.519
    79   1 H        0.926     0.029     2.595     2.519
    80   1 H        0.926     0.028     2.616     2.529
    81   1 H        0.926     0.028     2.615     2.529
    82   1 H        0.926     0.031     2.573     2.508
    83   1 H        0.926     0.029     2.594     2.519
    84   1 H        0.926     0.031     2.567     2.506
    85   1 H        0.926     0.030     2.581     2.512
    86   1 H        0.926     0.029     2.601     2.522

molecular dipole:
                 x           y           z       tot (Debye)
 q only:        0.000       0.000       0.000
   full:        0.000       0.000      -0.000       0.000

 projected vibrational frequencies (cm⁻¹)
eigval :       -0.00    -0.00    -0.00     0.00     0.00     0.00
eigval :        7.72     7.87     8.97    22.52    22.74    24.05
eigval :       25.10    49.27    49.33    64.27    64.28    71.85
eigval :       72.29    87.77    88.72    98.60   104.09   104.52
eigval :      105.50   109.96   154.13   157.00   157.05   171.11
eigval :      200.74   200.79   211.25   212.61   233.86   234.08
eigval :      270.90   305.20   305.60   315.91   367.74   367.94
eigval :      373.31   373.32   374.83   377.04   378.62   392.31
eigval :      392.40   405.69   415.37   417.21   417.28   425.80
eigval :      425.84   439.72   440.32   449.85   458.16   459.85
eigval :      485.18   485.22   525.21   525.22   556.40   556.40
eigval :      582.38   582.42   585.19   587.13   587.13   592.81
eigval :      592.82   594.72   617.35   617.36   620.60   641.62
eigval :      641.63   653.71   668.90   668.92   673.84   690.41
eigval :      694.39   699.63   700.06   702.74   739.38   739.38
eigval :      752.36   757.39   757.45   763.24   772.71   772.72
eigval :      774.78   775.34   819.11   819.12   843.04   872.43
eigval :      872.60   872.96   872.96   875.40   875.41   880.65
eigval :      880.68   897.04   897.05   901.37   901.38   916.08
eigval :      916.09   916.09   916.57   917.11   917.43   920.26
eigval :      920.26   926.70   926.97   927.77   927.77   928.60
eigval :      928.79   932.36   932.37   932.54   932.54   933.08
eigval :      933.09   969.21   969.50  1011.73  1013.92  1064.27
eigval :     1076.53  1077.12  1079.31  1079.31  1080.37  1080.91
eigval :     1088.57  1088.58  1122.00  1122.00  1135.38  1135.38
eigval :     1139.90  1139.90  1155.83  1180.28  1180.28  1181.49
eigval :     1182.79  1182.79  1183.84  1188.85  1194.56  1194.92
eigval :     1203.10  1203.42  1217.56  1218.86  1227.20  1227.20
eigval :     1255.09  1256.56  1263.11  1263.12  1272.91  1272.98
eigval :     1282.23  1282.23  1294.11  1294.71  1297.94  1310.93
eigval :     1310.93  1319.24  1319.24  1332.36  1350.36  1350.36
eigval :     1357.96  1385.61  1385.61  1388.28  1394.39  1394.39
eigval :     1418.80  1421.52  1429.95  1429.95  1433.83  1433.84
eigval :     1441.73  1450.40  1465.68  1470.98  1480.36  1489.34
eigval :     1507.55  1507.60  1526.78  1526.78  1530.58  1530.58
eigval :     1543.10  1543.79  1558.25  1558.46  1583.45  1583.46
eigval :     1596.07  1596.11  1604.41  1604.42  1608.97  1608.97
eigval :     1623.23  1623.45  3070.22  3070.24  3070.25  3070.26
eigval :     3072.44  3072.45  3072.51  3072.59  3072.93  3072.93
eigval :     3073.06  3073.25  3078.09  3078.45  3078.45  3079.07
eigval :     3079.81  3079.82  3082.61  3082.62  3085.03  3085.11
eigval :     3085.30  3085.31  3087.73  3087.74  3087.75  3088.62
eigval :     3091.85  3091.86  3092.63  3092.63  3093.28  3093.93

   temp. (K)  partition function   enthalpy   heat capacity  entropy
                                   cal/mol     cal/K/mol   cal/K/mol   J/K/mol
 298.15  VIB  0.519E+20            23981.266    152.122    151.267
         ROT  0.537E+08              888.752      2.981     38.353
         INT  0.279E+28            24870.018    155.103    189.620
         TR   0.164E+29             1481.254      4.968     45.317
         TOT                       26351.2718   160.0708   234.9372   982.9773

       T/K    H(0)-H(T)+PV         H(T)/Eh          T*S/Eh         G(T)/Eh
   ------------------------------------------------------------------------
    298.15    0.419934E-01    0.710647E+00    0.111626E+00    0.599020E+00
   ------------------------------------------------------------------------

         :::::::::::::::::::::::::::::::::::::::::::::::::::::
         ::                  THERMODYNAMIC                  ::
         :::::::::::::::::::::::::::::::::::::::::::::::::::::
         :: total free energy        -128.086446265053 Eh   ::
         ::.................................................::
         :: total energy             -128.685466520554 Eh   ::
         :: zero point energy           0.668653079336 Eh   ::
         :: G(RRHO) w/o ZPVE           -0.069632823835 Eh   ::
         :: G(RRHO) contrib.            0.599020255501 Eh   ::
         :::::::::::::::::::::::::::::::::::::::::::::::::::::

           -------------------------------------------------
          | TOTAL ENERGY             -128.685466520554 Eh   |
          | TOTAL ENTHALPY           -127.974820016557 Eh   |
          | TOTAL FREE ENERGY        -128.086446265053 Eh   |
          | GRADIENT NORM               0.000050574033 Eh/α |
          | HOMO-LUMO GAP               2.146038087771 eV   |
           -------------------------------------------------

 * finished run on 2025/08/24 at 05:37:47.286
