   * xtb version 6.7.1 (edcfbbe) compiled by 'albert@albert-system' on 2024-07-22

   ID    Z sym.   atoms
    1    6 C      1-52
    2    1 H      53-86

          program call               : xtb data2507/gas/BANE/BANE_gas_S0_finalOpt.xtbopt.xyz --gfn 2 --spinpol --tblite --uhf 2 --ohess vtight --parallel 40 --molden --ceasefiles --namespace data2507/gas/BANE/BANE_gas_T1_preOpt
 * total energy  :  -128.6120482 Eh     change       -0.8296394E-07 Eh
 * total energy  :  -128.6153170 Eh     change       -0.3268756E-02 Eh
 * total energy  :  -128.6161323 Eh     change       -0.8153412E-03 Eh
 * total energy  :  -128.6162103 Eh     change       -0.7800875E-04 Eh
 * total energy  :  -128.6164245 Eh     change       -0.2141732E-03 Eh
 * total energy  :  -128.6169483 Eh     change       -0.5238092E-03 Eh
 * total energy  :  -128.6174071 Eh     change       -0.4588252E-03 Eh
 * total energy  :  -128.6182088 Eh     change       -0.8017156E-03 Eh
 * total energy  :  -128.6190756 Eh     change       -0.8667505E-03 Eh
 * total energy  :  -128.6196754 Eh     change       -0.5998322E-03 Eh
 * total energy  :  -128.6230422 Eh     change       -0.6536554E-06 Eh
 * total energy  :  -128.6230429 Eh     change       -0.7206923E-06 Eh
 * total energy  :  -128.6230438 Eh     change       -0.8616136E-06 Eh
 * total energy  :  -128.6230448 Eh     change       -0.9716858E-06 Eh
 * total energy  :  -128.6230457 Eh     change       -0.9280561E-06 Eh
 * total energy  :  -128.6230464 Eh     change       -0.6709216E-06 Eh
 * total energy  :  -128.6230467 Eh     change       -0.3153689E-06 Eh
 * total energy  :  -128.6230468 Eh     change       -0.1118405E-06 Eh
 * total energy  :  -128.6230468 Eh     change       -0.1844654E-07 Eh
   *** GEOMETRY OPTIMIZATION CONVERGED AFTER 95 ITERATIONS ***

 final structure:
================
86
 xtb: 6.7.1 (edcfbbe)
C          -12.11096413244714       -0.02483279535057        0.00600452823095
C          -11.41538464030136        0.33807074438831        1.14727335104600
C          -10.03325424704954        0.34380804304292        1.14719731625256
C           -9.32169094286983       -0.01951879431449        0.00541159318819
C           -7.85312960536912       -0.01663971899027        0.00506870710492
C           -7.13618257011660       -1.03576477490266       -0.62092276976115
C           -5.75722862906421       -1.03910765435031       -0.61336262122285
C           -5.04217499541742       -0.01099169577161        0.00428246748136
C           -3.57758106697144       -0.00793175911213        0.00385739942757
C           -2.86626865714946       -1.08687327743854        0.59860701801311
C           -3.53830923390235       -2.11778780122179        1.27723624753926
C           -2.85073215927130       -3.13121650793977        1.91485181878831
C           -1.46387175460082       -3.11983848991485        1.93196575882095
C           -0.77552638826900       -2.10119055524924        1.30094605965128
C           -1.44176027818650       -1.09009774098760        0.59515297933829
C           -0.72187580065195       -0.00155860676450        0.00350608016089
C            0.72261064396530        0.00184964413280        0.00362446947730
C            1.44045929692124        1.04553152934793        0.65612631372313
C            0.77836106101774        2.02476499303922        1.42163515200681
C            1.46711127941514        3.03548048446957        2.04393630951311
C            2.85773620325039        3.10819289987760        1.93102363935435
C            3.54086517704405        2.13609629191384        1.24760273184739
C            2.86589521746677        1.05851064526866        0.63182376684297
C            3.57157640123208        0.00819704029721        0.00439252905624
C            5.04327763422547        0.01129639467250        0.00509758797177
C            5.75615089122618        0.11941251431087       -1.18754366549031
C            7.13622460911584        0.13016713865554       -1.18533526701894
C            7.84935946866526        0.01678548740430        0.00654887708336
C            9.31890980031262        0.01950131935450        0.00729197835365
C           10.03055774396383       -0.85619816645725        0.82438089351116
C           11.41280224157866       -0.85500028992019        0.82213403991392
C           12.10751523918161        0.02440165670485        0.00858767126908
C           11.41043109291405        0.90138394334780       -0.80558416023833
C           10.02820133958111        0.89771183101062       -0.80911079505107
C            7.13544155380582       -0.09930419550318        1.19770497907340
C            5.75533985848703       -0.09393842614905        1.19848326957225
C            2.87093662469518       -1.04515415966280       -0.62359627597300
C            3.55099035964198       -2.11968271358506       -1.23912442046634
C            2.87253125215594       -3.09467562193819       -1.92307304445127
C            1.48166230298236       -3.02808627573132       -2.03676177637611
C            0.78811384361682       -2.02052119296742       -1.41468089849966
C            1.44547357628665       -1.03848564206767       -0.64867888444920
C           -1.44676711373019        1.08362603450242       -0.58817507601625
C           -0.78519427507574        2.09754989284811       -1.29429111571137
C           -1.47822050176821        3.11301759318817       -1.92531319094790
C           -2.86511533155722        3.11824082642268       -1.90783494555095
C           -3.54802882707218        2.10188591021077       -1.26986401580765
C           -2.87123714819480        1.07406599555543       -0.59126363735826
C           -5.76101779116629        1.01422986896858        0.62234933693181
C           -7.13993700115125        1.00534591964949        0.63068596385601
C          -10.03234949834363       -0.38557234946465       -1.13606507739939
C          -11.41449178539666       -0.38509995240879       -1.13555596014007
H          -13.19099037124219       -0.02687833636222        0.00622939221452
H          -11.95331452418207        0.61595522086854        2.04219764402522
H           -9.49682625612204        0.61087406545454        2.04629191764819
H           -7.66912929092368       -1.84407722436734       -1.10059129968770
H           -5.21656642293613       -1.83265051364619       -1.10954843963950
H           -4.61684320264829       -2.10474688448305        1.31564920172305
H           -3.39542070536294       -3.91700976382144        2.41707010427903
H           -0.91865434499745       -3.89391350569799        2.45110628294361
H            0.30230212218274       -2.08258312986054        1.35440643971013
H           -0.29619975740167        1.97691926257158        1.51292956595798
H            0.93397899303596        3.77907924930752        2.61754058959751
H            3.39360099253126        3.92342436635496        2.39448577866094
H            4.61684100311727        2.18556314707834        1.17451210454485
H            5.21569028225003        0.20860802988702       -2.11934068068136
H            7.67137620961389        0.20645206773435       -2.12088244901314
H            9.49416905133821       -1.55614765768516        1.44879814981446
H           11.95137030499841       -1.54426101398035        1.45640297755847
H           13.18753464756573        0.02640372274093        0.00916760042035
H           11.94718611833375        1.59269408674794       -1.43921013243621
H            9.48994373181318        1.59572303702782       -1.43407193393920
H            7.66992426171266       -0.17347397411026        2.13380168122288
H            5.21427023647088       -0.18522284160999        2.12972272157431
H            4.62713116439501       -2.16443180454045       -1.16543978488109
H            3.41224893403216       -3.90746403985061       -2.38635647946372
H            0.95214253540679       -3.77394159065495       -2.61078174774062
H           -0.28660151704832       -1.97739356008062       -1.50653338845467
H            0.29269628516136        2.08370788340523       -1.34799304694109
H           -0.93658691606565        3.88941767787208       -2.44473256919161
H           -3.41341672957224        3.90152376371730       -2.41004343535944
H           -4.62650616859899        2.08406186749343       -1.30797617667933
H           -5.22326493930190        1.80995496906898        1.11820167186035
H           -7.67585913405186        1.81151533481727        1.11064534864843
H           -9.49528929407082       -0.65059064813657       -2.03538835481090
H          -11.95173925463488       -0.66502949591749       -2.03025248640141

 projected vibrational frequencies (cm⁻¹)
eigval :       -0.00    -0.00    -0.00    -0.00     0.00     0.00
eigval :        6.94     8.07    18.82    22.17    23.43    31.28
eigval :       40.18    43.20    49.70    68.00    73.66    76.30
eigval :       83.29    88.49    90.02    97.87   101.92   108.00
eigval :      110.10   128.53   151.93   154.27   174.10   177.95
eigval :      207.89   215.15   218.33   225.08   228.01   228.08
eigval :      274.82   312.31   315.61   316.29   338.13   362.30
eigval :      368.58   369.17   369.57   376.16   376.62   379.43
eigval :      385.19   396.15   402.14   404.30   405.96   421.10
eigval :      430.44   431.59   438.43   444.17   466.16   470.60
eigval :      484.92   487.15   523.10   527.70   551.03   556.91
eigval :      574.68   578.20   578.42   584.93   586.76   591.07
eigval :      592.71   593.35   608.52   615.86   617.43   625.77
eigval :      636.88   647.50   664.32   668.23   668.74   675.42
eigval :      685.04   696.03   698.28   705.63   723.30   730.97
eigval :      750.13   756.13   756.38   756.66   760.73   762.59
eigval :      765.11   769.59   820.83   821.51   834.60   844.12
eigval :      857.96   858.57   866.45   872.99   874.22   879.45
eigval :      881.27   882.76   887.17   899.08   900.98   901.44
eigval :      902.14   906.20   909.81   910.33   912.35   912.93
eigval :      915.64   917.79   917.80   920.80   923.58   924.96
eigval :      928.99   929.46   932.22   932.30   933.45   934.39
eigval :      935.87   957.11   968.72   969.54  1010.46  1013.20
eigval :     1072.04  1076.15  1078.14  1088.32  1088.61  1096.72
eigval :     1097.36  1104.35  1106.43  1122.15  1122.27  1126.70
eigval :     1131.99  1140.64  1141.51  1147.11  1180.09  1182.19
eigval :     1182.60  1182.66  1183.42  1186.01  1187.61  1192.67
eigval :     1194.48  1200.52  1202.47  1211.16  1216.24  1232.37
eigval :     1239.20  1256.06  1258.87  1271.78  1271.80  1272.20
eigval :     1282.18  1282.32  1286.29  1292.65  1295.19  1308.39
eigval :     1311.05  1311.99  1319.17  1319.24  1328.90  1333.98
eigval :     1335.36  1346.68  1348.22  1369.51  1375.27  1381.70
eigval :     1389.89  1394.31  1399.14  1409.94  1416.05  1416.21
eigval :     1422.11  1432.80  1433.19  1434.77  1438.17  1461.65
eigval :     1465.12  1473.50  1498.71  1502.81  1512.64  1514.92
eigval :     1522.55  1529.10  1543.51  1545.50  1551.76  1552.51
eigval :     1565.00  1581.28  1582.44  1582.49  1583.50  1591.88
eigval :     1601.12  1602.60  3069.84  3069.91  3070.03  3070.06
eigval :     3072.09  3072.21  3072.33  3072.39  3075.40  3075.46
eigval :     3076.21  3076.31  3079.78  3079.97  3081.98  3082.06
eigval :     3083.10  3083.11  3084.13  3084.37  3085.02  3085.11
eigval :     3085.19  3085.26  3092.03  3092.16  3093.05  3093.21
eigval :     3095.60  3095.64  3096.40  3096.77  3098.51  3099.36

   temp. (K)  partition function   enthalpy   heat capacity  entropy
                                   cal/mol     cal/K/mol   cal/K/mol   J/K/mol
 298.15  VIB  0.911E+19            23992.357    153.818    149.827
         ROT  0.541E+08              888.752      2.981     38.366
         INT  0.493E+27            24881.109    156.799    188.193
         TR   0.164E+29             1481.254      4.968     45.317
         TOT                       26362.3628   161.7668   233.5100   977.0057

       T/K    H(0)-H(T)+PV         H(T)/Eh          T*S/Eh         G(T)/Eh
   ------------------------------------------------------------------------
    298.15    0.420111E-01    0.707267E+00    0.110948E+00    0.596319E+00
   ------------------------------------------------------------------------

         :::::::::::::::::::::::::::::::::::::::::::::::::::::
         ::                  THERMODYNAMIC                  ::
         :::::::::::::::::::::::::::::::::::::::::::::::::::::
         :: total free energy        -128.026727545261 Eh   ::
         ::.................................................::
         :: total energy             -128.623046822191 Eh   ::
         :: zero point energy           0.665256300996 Eh   ::
         :: G(RRHO) w/o ZPVE           -0.068937024065 Eh   ::
         :: G(RRHO) contrib.            0.596319276931 Eh   ::
         :::::::::::::::::::::::::::::::::::::::::::::::::::::

           -------------------------------------------------
          | TOTAL ENERGY             -128.623046822191 Eh   |
          | TOTAL ENTHALPY           -127.915779421960 Eh   |
          | TOTAL FREE ENERGY        -128.026727545261 Eh   |
          | GRADIENT NORM               0.000130944919 Eh/α |
           -------------------------------------------------

 * finished run on 2025/08/24 at 05:42:50.447
