   * xtb version 6.7.1 (edcfbbe) compiled by 'albert@albert-system' on 2024-07-22

   ID    Z sym.   atoms
    1    8 O      1, 10, 11
    2    6 C      2-8, 12-19, 21-36
    3   16 S      9
    4    7 N      20
    5    1 H      37-57

          program call               : xtb data2507/gas/TXO-TPA/TXO-TPA_gas_S0_finalOpt.xtbopt.xyz --gfn 2 --spinpol --tblite --uhf 2 --ohess vtight --parallel 40 --molden --ceasefiles --namespace data2507/gas/TXO-TPA/TXO-TPA_gas_T1_preOpt
 * total energy  :   -95.3458529 Eh     change        0.6708441E-07 Eh
 * total energy  :   -95.3494990 Eh     change       -0.3646109E-02 Eh
 * total energy  :   -95.3507793 Eh     change       -0.1280250E-02 Eh
 * total energy  :   -95.3510391 Eh     change       -0.2597969E-03 Eh
 * total energy  :   -95.3512943 Eh     change       -0.2552675E-03 Eh
 * total energy  :   -95.3513985 Eh     change       -0.1041930E-03 Eh
 * total energy  :   -95.3514606 Eh     change       -0.6211864E-04 Eh
 * total energy  :   -95.3514931 Eh     change       -0.3244620E-04 Eh
 * total energy  :   -95.3515091 Eh     change       -0.1602451E-04 Eh
 * total energy  :   -95.3515502 Eh     change       -0.4106332E-04 Eh
 * total energy  :   -95.3516914 Eh     change       -0.8611925E-06 Eh
 * total energy  :   -95.3516923 Eh     change       -0.8903867E-06 Eh
 * total energy  :   -95.3516933 Eh     change       -0.9379683E-06 Eh
 * total energy  :   -95.3516940 Eh     change       -0.7628862E-06 Eh
 * total energy  :   -95.3516947 Eh     change       -0.6727413E-06 Eh
 * total energy  :   -95.3516948 Eh     change       -0.1581626E-06 Eh
 * total energy  :   -95.3516956 Eh     change       -0.7033911E-06 Eh
 * total energy  :   -95.3516955 Eh     change        0.4265942E-08 Eh
 * total energy  :   -95.3516956 Eh     change       -0.1632608E-07 Eh
   *** GEOMETRY OPTIMIZATION CONVERGED AFTER 45 ITERATIONS ***

 final structure:
================
57
 xtb: 6.7.1 (edcfbbe)
O            3.39554592148589       -2.53916787949333       -0.06791393326678
C            3.95057115648428       -1.40803123576035        0.00562739502943
C            5.37519253706161       -1.30698879379396        0.26487677981221
C            6.06108004990226       -2.49763207788861        0.59281694637632
C            7.39176365455193       -2.47352411665847        0.92833121181802
C            8.10160613756837       -1.27468518760257        0.95330705660525
C            7.45475319877628       -0.09994263212362        0.60930316529799
C            6.11898766237116       -0.12795585395344        0.26541383201125
S            5.39933730208032        1.39217132493569       -0.32630363115014
O            5.82655718902564        2.49805353064893        0.49103881150864
O            5.65946092955787        1.49358037004245       -1.74043549009239
C            3.65817278006057        1.10520381254723       -0.09527955421442
C            2.82703445344466        2.20608539110645       -0.05339422158347
C            1.45569609491728        2.04194163738081       -0.02668409683943
C            0.91050134385370        0.74628549477479       -0.06291793149190
C           -0.53980135366334        0.53956287545835       -0.04587664739761
C           -1.37160966445589        1.34032135359814        0.74018190160188
C           -2.73368188206745        1.14041557708325        0.76636527867816
C           -3.31439145365124        0.12734418788207       -0.00272372047397
N           -4.69162941473519       -0.08122937163691        0.02314568134566
C           -5.56448872383858        1.00345526191576        0.15696840782632
C           -5.28290490087886        2.21745980326595       -0.47192492615962
C           -6.14836327276875        3.28478529812406       -0.33620810659060
C           -7.30330780262815        3.15994025712948        0.41990549192620
C           -7.58827718500380        1.95550496026092        1.04377282158040
C           -6.72811536631566        0.88255616962576        0.91822711313206
C           -5.20617091501377       -1.37788246149941       -0.08230333347555
C           -4.54928595878643       -2.44953757853508        0.52492270460768
C           -5.06108181889354       -3.72730786501882        0.41536120484905
C           -6.23072146917248       -3.95635937215500       -0.29217856603103
C           -6.88818420279871       -2.89468075906122       -0.89362899256588
C           -6.38340788226385       -1.61319992983305       -0.79429009097187
C           -2.48772099911616       -0.67473978691349       -0.79582767052747
C           -1.12646012547393       -0.47243674667939       -0.81033495623244
C            1.75480062646994       -0.34695215406383       -0.08847024618584
C            3.15683114199697       -0.19986304705764       -0.07291392664207
H            5.49335951577147       -3.41614629462860        0.57803059055006
H            7.89215255193028       -3.39726868865136        1.18018002177979
H            9.14561537606728       -1.25975693960559        1.22407928761440
H            7.96609655614059        0.84986841784088        0.59472425128993
H            3.28024592975325        3.18509709472953       -0.06088023102316
H            0.80744047292586        2.90375691871344       -0.02515724016630
H           -0.93734276616828        2.10819070599115        1.36195202276413
H           -3.36011546027990        1.75260313215576        1.39830623114309
H           -4.39133654704172        2.30952951914699       -1.07425736912726
H           -5.92393797957988        4.21758011524850       -0.83102745780165
H           -7.97743992418595        3.99616202098753        0.52204358427542
H           -8.48277919726481        1.85316391179384        1.63942742799580
H           -6.94272839018252       -0.05125604321504        1.41649493268761
H           -3.64663831414935       -2.26922446721686        1.08949496426925
H           -4.54730238423509       -4.54821558064443        0.89209608954083
H           -6.62753569231768       -4.95630887560730       -0.37446932478853
H           -7.79609889687162       -3.06677279616531       -1.45175132062913
H           -6.88742406525964       -0.78844989615927       -1.27610106857480
H           -2.92862706857845       -1.44405747263233       -1.41230102204224
H           -0.50493510711094       -1.08453505583494       -1.44528843902705
H            1.36773116430384       -1.35522693986948       -0.07639810428945

 projected vibrational frequencies (cm⁻¹)
eigval :       -0.00     0.00     0.00     0.00     0.00     0.00
eigval :       12.62    16.37    23.71    27.08    43.80    51.66
eigval :       56.44    69.26    73.33    91.26   101.28   107.20
eigval :      135.68   142.13   153.65   159.35   200.93   210.17
eigval :      229.57   234.50   264.62   270.88   289.15   296.01
eigval :      316.93   327.14   345.42   353.67   362.61   376.59
eigval :      378.08   380.45   387.74   415.09   417.73   422.80
eigval :      439.57   473.82   483.88   488.56   502.08   510.79
eigval :      526.79   530.33   565.06   582.15   585.42   591.08
eigval :      592.29   594.70   613.96   627.65   647.92   652.49
eigval :      659.57   665.06   667.01   692.33   706.81   729.49
eigval :      757.97   760.25   766.56   794.40   805.18   825.17
eigval :      861.57   864.03   869.17   871.98   873.40   897.34
eigval :      897.62   898.95   900.58   906.95   909.53   910.44
eigval :      919.08   927.83   928.54   930.20   930.28   930.98
eigval :      937.94   983.22   999.63  1003.44  1015.50  1047.61
eigval :     1072.67  1074.20  1080.96  1081.95  1099.01  1121.50
eigval :     1123.62  1135.59  1140.77  1151.40  1162.95  1173.84
eigval :     1179.16  1179.38  1184.20  1190.64  1192.22  1193.77
eigval :     1213.40  1217.69  1221.32  1225.84  1266.84  1274.32
eigval :     1274.92  1283.52  1301.41  1313.31  1314.25  1320.95
eigval :     1325.93  1330.74  1334.85  1355.56  1391.36  1413.07
eigval :     1415.54  1419.64  1433.18  1439.63  1449.36  1460.33
eigval :     1460.54  1475.80  1497.60  1514.35  1533.59  1543.87
eigval :     1569.96  1572.15  1573.44  1577.83  1582.98  1592.01
eigval :     3077.21  3083.41  3083.86  3084.69  3085.40  3085.71
eigval :     3087.10  3088.46  3091.31  3092.13  3092.95  3094.34
eigval :     3095.87  3096.31  3097.09  3099.10  3102.92  3104.72
eigval :     3104.83  3105.20  3105.35

   temp. (K)  partition function   enthalpy   heat capacity  entropy
                                   cal/mol     cal/K/mol   cal/K/mol   J/K/mol
 298.15  VIB  0.731E+13            16901.145    107.074    104.537
         ROT  0.477E+08              888.752      2.981     38.116
         INT  0.349E+21            17789.898    110.055    142.652
         TR   0.104E+29             1481.254      4.968     44.420
         TOT                       19271.1516   115.0227   187.0726   782.7116

       T/K    H(0)-H(T)+PV         H(T)/Eh          T*S/Eh         G(T)/Eh
   ------------------------------------------------------------------------
    298.15    0.307105E-01    0.451684E+00    0.888842E-01    0.362800E+00
   ------------------------------------------------------------------------

         :::::::::::::::::::::::::::::::::::::::::::::::::::::
         ::                  THERMODYNAMIC                  ::
         :::::::::::::::::::::::::::::::::::::::::::::::::::::
         :: total free energy         -94.988895939298 Eh   ::
         ::.................................................::
         :: total energy              -95.351695564525 Eh   ::
         :: zero point energy           0.420973304574 Eh   ::
         :: G(RRHO) w/o ZPVE           -0.058173679346 Eh   ::
         :: G(RRHO) contrib.            0.362799625228 Eh   ::
         :::::::::::::::::::::::::::::::::::::::::::::::::::::

           -------------------------------------------------
          | TOTAL ENERGY              -95.351695564525 Eh   |
          | TOTAL ENTHALPY            -94.900011725145 Eh   |
          | TOTAL FREE ENERGY         -94.988895939298 Eh   |
          | GRADIENT NORM               0.000113303352 Eh/α |
           -------------------------------------------------

 * finished run on 2025/07/16 at 13:09:47.927
