   * xtb version 6.7.1 (edcfbbe) compiled by 'albert@albert-system' on 2024-07-22

   ID    Z sym.   atoms
    1    8 O      1, 10, 11
    2    6 C      2-8, 12-19, 21-36
    3   16 S      9
    4    7 N      20
    5    1 H      37-57

          program call               : xtb data2507/gas/TXO-TPA/TXO-TPA_gas_S0_crest.xyz --gfn 2 --ohess vtight --parallel 40 --molden --ceasefiles --namespace data2507/gas/TXO-TPA/TXO-TPA_gas_S0_finalOpt
          :  Hamiltonian                  GFN2-xTB          :
 * total energy  :   -95.4222368 Eh     change       -0.1986621E-08 Eh
 * total energy  :   -95.4222383 Eh     change       -0.1598293E-05 Eh
 * total energy  :   -95.4222402 Eh     change       -0.1888379E-05 Eh
 * total energy  :   -95.4222424 Eh     change       -0.2190863E-05 Eh
 * total energy  :   -95.4222437 Eh     change       -0.1295550E-05 Eh
 * total energy  :   -95.4222447 Eh     change       -0.1005489E-05 Eh
 * total energy  :   -95.4222460 Eh     change       -0.1318475E-05 Eh
 * total energy  :   -95.4222476 Eh     change       -0.1565920E-05 Eh
 * total energy  :   -95.4222486 Eh     change       -0.1025798E-05 Eh
 * total energy  :   -95.4222484 Eh     change        0.2191715E-06 Eh
 * total energy  :   -95.4222492 Eh     change       -0.7323516E-06 Eh
 * total energy  :   -95.4222495 Eh     change       -0.3564979E-06 Eh
 * total energy  :   -95.4222501 Eh     change       -0.5616697E-06 Eh
 * total energy  :   -95.4222504 Eh     change       -0.3000078E-06 Eh
 * total energy  :   -95.4222506 Eh     change       -0.2685707E-06 Eh
 * total energy  :   -95.4222508 Eh     change       -0.1984881E-06 Eh
 * total energy  :   -95.4222510 Eh     change       -0.1182109E-06 Eh
 * total energy  :   -95.4222510 Eh     change       -0.3345188E-07 Eh
   *** GEOMETRY OPTIMIZATION CONVERGED AFTER 18 ITERATIONS ***

 final structure:
================
57
 xtb: 6.7.1 (edcfbbe)
O            3.56975779266580       -2.46447797236525       -0.66624687317177
C            4.02350086620323       -1.39911277200553       -0.29991905750732
C            5.41713262264579       -1.29878220418453        0.20561895705594
C            6.03126189854592       -2.46810790589814        0.66085108056658
C            7.31653627616349       -2.43634575770411        1.16781193596296
C            8.01423721143326       -1.23882453711222        1.22738063143756
C            7.42173884191085       -0.07415698216700        0.76493676989436
C            6.13597338512235       -0.11103441220852        0.26456748093202
S            5.43381237775550        1.38337887767466       -0.42624979573873
O            5.83965499082132        2.51568755947944        0.36108263417188
O            5.74082469365671        1.40553595606491       -1.83167455134282
C            3.67958418654782        1.11379513170471       -0.23855946532868
C            2.83335333931795        2.20274751238889       -0.16983886125544
C            1.46477389727097        2.01393096337613       -0.10938451576925
C            0.92345672086950        0.72573646517066       -0.13523553262855
C           -0.52646991046418        0.51652634691344       -0.08931953534966
C           -1.34555786642450        1.32757491078839        0.69690166283804
C           -2.70730882009759        1.12697952154510        0.74746177616284
C           -3.30494144812255        0.11191531140209       -0.00443862625445
N           -4.68031567132825       -0.08932257229308        0.03972502162177
C           -5.55036925205013        0.99786875057344        0.20661277985442
C           -5.29592844678544        2.21213365396578       -0.42936339524302
C           -6.15892162415450        3.27788181810647       -0.26250720576702
C           -7.28819774916048        3.14900058817889        0.52936305232868
C           -7.54803240387730        1.94248001498313        1.15842037577180
C           -6.68677338310851        0.87340666365462        1.00435105271392
C           -5.21239895440870       -1.38131566145723       -0.08177271040207
C           -4.57843780286096       -2.46753661569385        0.51981645546848
C           -5.10991453407372       -3.73678120499806        0.39787264460465
C           -6.28070653640183       -3.94187059729408       -0.31355578152296
C           -6.91736960133589       -2.86452289667641       -0.90749022381319
C           -6.38909422511366       -1.59267157451658       -0.79858174892787
C           -2.48878242493475       -0.69672886689855       -0.80019533562091
C           -1.12603662625174       -0.50091027687147       -0.83301246418142
C            1.79366493527152       -0.35919229111048       -0.20818637962568
C            3.17488438389077       -0.18198141198291       -0.25513081225718
H            5.47458972676213       -3.39183656230906        0.60632608486408
H            7.77829758474351       -3.34770425746604        1.51672947120990
H            9.01719035772615       -1.21329255764189        1.62532071894734
H            7.93601419536416        0.87383162731278        0.78728483087121
H            3.26838620918688        3.18993675997558       -0.16477964147744
H            0.80758752110665        2.86921967222939       -0.06941519220684
H           -0.90405839999320        2.10153479900840        1.30699378426803
H           -3.32196297699350        1.75045641038003        1.37970632799905
H           -4.42233729069198        2.31034514435100       -1.05716362030906
H           -5.95278507977198        4.21260912928993       -0.76273985889424
H           -7.96201547653325        3.98283652545854        0.65417686195235
H           -8.42414957471022        1.83447009007365        1.78059374328382
H           -6.88637526363797       -0.06460729263261        1.50144009645174
H           -3.67187157426742       -2.30770913763095        1.08505105220719
H           -4.61046226280738       -4.57008539348894        0.86958295120031
H           -6.69451986991346       -4.93459185784460       -0.40375453870383
H           -7.82849106083405       -3.01586795245685       -1.46719671951637
H           -6.88230561996989       -0.75470139888400       -1.26904279875486
H           -2.93693016173539       -1.47493323155926       -1.39984392227879
H           -0.51830956064905       -1.12210317758862       -1.47338437646099
H            1.41262016428104       -1.36967727860870       -0.20901459402980

          :  Hamiltonian                  GFN2-xTB          :
         :: gradient norm              0.000106835716 Eh/a0 ::
         :: HOMO-LUMO gap              1.186571536574 eV    ::
         :: SCC energy               -97.029034566821 Eh    ::
         :: -> dispersion             -0.078376563963 Eh    ::
         :: repulsion energy           1.606783577495 Eh    ::

    * Orbital Energies and Occupations

         #    Occupation            Energy/Eh            Energy/eV
      -------------------------------------------------------------
         1        2.0000           -0.7753186             -21.0975
       ...           ...                  ...                  ...
        75        2.0000           -0.4347906             -11.8313
        76        2.0000           -0.4338768             -11.8064
        77        2.0000           -0.4306660             -11.7190
        78        2.0000           -0.4300545             -11.7024
        79        2.0000           -0.4268057             -11.6140
        80        2.0000           -0.4211681             -11.4606
        81        2.0000           -0.4179936             -11.3742
        82        2.0000           -0.4144831             -11.2787
        83        2.0000           -0.4121729             -11.2158
        84        2.0000           -0.4116582             -11.2018
        85        2.0000           -0.4081023             -11.1050
        86        2.0000           -0.4008081             -10.9065
        87        2.0000           -0.3577937              -9.7361 (HOMO)
        88                         -0.3141878              -8.5495 (LUMO)
        89                         -0.2711297              -7.3778
        90                         -0.2624607              -7.1419
        91                         -0.2549135              -6.9365
        92                         -0.2371078              -6.4520
        93                         -0.2355736              -6.4103
        94                         -0.2318931              -6.3101
        95                         -0.2300971              -6.2613
        96                         -0.2280900              -6.2066
        97                         -0.2089544              -5.6859
        98                         -0.1942548              -5.2859
       ...                                ...                  ...
       170                          1.2126203              32.9971
      -------------------------------------------------------------
                  HL-Gap            0.0436058 Eh            1.1866 eV

     #   Z          covCN         q      C6AA      α(0)
     1   8 O        0.858    -0.349    20.685     6.098
     2   6 C        2.829     0.223    23.312     7.912
     3   6 C        3.006    -0.013    28.319     8.729
     4   6 C        2.927    -0.014    28.357     8.733
     5   6 C        2.917    -0.022    28.564     8.764
     6   6 C        2.921    -0.016    28.411     8.741
     7   6 C        2.961    -0.019    28.480     8.753
     8   6 C        2.971    -0.069    29.727     8.943
     9  16 S        3.824     0.958   107.875    17.481
    10   8 O        0.860    -0.535    24.566     6.645
    11   8 O        0.860    -0.540    24.678     6.660
    12   6 C        2.971    -0.076    29.885     8.967
    13   6 C        2.958    -0.021    28.527     8.761
    14   6 C        2.926    -0.025    28.622     8.774
    15   6 C        2.973     0.022    27.519     8.605
    16   6 C        2.976    -0.001    28.054     8.688
    17   6 C        2.923    -0.033    28.825     8.804
    18   6 C        2.920    -0.049    29.215     8.864
    19   6 C        2.923     0.068    26.485     8.439
    20   7 N        2.752    -0.071    22.623     7.064
    21   6 C        2.925     0.064    26.561     8.452
    22   6 C        2.922    -0.047    29.162     8.856
    23   6 C        2.920    -0.029    28.719     8.788
    24   6 C        2.919    -0.037    28.915     8.818
    25   6 C        2.920    -0.029    28.714     8.787
    26   6 C        2.922    -0.046    29.149     8.854
    27   6 C        2.925     0.064    26.563     8.452
    28   6 C        2.922    -0.047    29.160     8.855
    29   6 C        2.920    -0.029    28.714     8.787
    30   6 C        2.919    -0.037    28.911     8.817
    31   6 C        2.920    -0.028    28.712     8.787
    32   6 C        2.922    -0.046    29.148     8.854
    33   6 C        2.920    -0.048    29.194     8.860
    34   6 C        2.923    -0.032    28.805     8.801
    35   6 C        2.934    -0.022    28.558     8.764
    36   6 C        3.004    -0.016    28.384     8.739
    37   1 H        0.926     0.075     2.026     2.226
    38   1 H        0.926     0.058     2.223     2.331
    39   1 H        0.926     0.060     2.204     2.321
    40   1 H        0.926     0.068     2.111     2.272
    41   1 H        0.926     0.065     2.144     2.290
    42   1 H        0.926     0.058     2.221     2.330
    43   1 H        0.926     0.036     2.500     2.472
    44   1 H        0.926     0.037     2.490     2.468
    45   1 H        0.926     0.033     2.546     2.495
    46   1 H        0.926     0.034     2.531     2.488
    47   1 H        0.926     0.033     2.545     2.495
    48   1 H        0.926     0.034     2.531     2.488
    49   1 H        0.926     0.033     2.542     2.493
    50   1 H        0.926     0.033     2.547     2.496
    51   1 H        0.926     0.034     2.526     2.485
    52   1 H        0.926     0.033     2.542     2.493
    53   1 H        0.926     0.034     2.530     2.487
    54   1 H        0.926     0.033     2.543     2.494
    55   1 H        0.926     0.039     2.466     2.455
    56   1 H        0.926     0.042     2.416     2.431
    57   1 H        0.926     0.074     2.044     2.236

molecular dipole:
                 x           y           z       tot (Debye)
 q only:       -1.653      -0.882       1.392
   full:       -1.504      -0.727       1.398       5.538

 projected vibrational frequencies (cm⁻¹)
eigval :       -0.00    -0.00     0.00     0.00     0.00     0.00
eigval :       13.12    16.39    23.61    29.05    44.37    50.72
eigval :       56.13    69.92    74.02    87.28    99.52   105.02
eigval :      120.98   140.77   152.44   157.97   197.54   204.47
eigval :      224.39   234.85   263.82   276.93   291.16   297.32
eigval :      317.75   328.22   343.03   365.57   372.54   378.31
eigval :      378.73   381.17   389.88   415.76   421.89   430.32
eigval :      438.53   480.77   487.49   492.41   501.56   510.00
eigval :      541.20   551.29   583.88   585.08   590.46   594.03
eigval :      608.95   614.90   629.16   657.17   659.71   662.90
eigval :      669.19   675.87   693.78   711.45   731.98   735.72
eigval :      757.90   760.84   788.61   806.60   815.22   840.05
eigval :      868.93   875.44   876.43   890.29   892.46   894.42
eigval :      894.50   910.17   912.68   918.24   922.43   923.48
eigval :      927.97   928.34   929.69   930.03   931.52   932.19
eigval :      947.35   985.85  1005.44  1015.74  1023.85  1065.28
eigval :     1079.85  1082.85  1083.93  1084.21  1114.24  1121.59
eigval :     1123.57  1143.96  1152.76  1162.89  1170.13  1180.10
eigval :     1180.54  1180.64  1187.36  1195.02  1198.53  1216.65
eigval :     1220.94  1227.97  1243.28  1243.87  1271.60  1278.13
eigval :     1281.16  1297.06  1311.85  1317.18  1320.51  1326.20
eigval :     1327.24  1329.65  1338.00  1378.29  1411.89  1416.93
eigval :     1436.28  1441.87  1444.80  1451.09  1471.04  1475.21
eigval :     1496.31  1550.49  1556.08  1561.38  1567.18  1578.26
eigval :     1582.15  1588.57  1593.80  1594.48  1601.23  1689.42
eigval :     3077.65  3078.02  3078.45  3079.14  3080.97  3085.53
eigval :     3086.95  3087.03  3087.69  3090.12  3091.01  3092.24
eigval :     3094.08  3094.20  3094.58  3097.55  3099.03  3099.47
eigval :     3100.17  3105.79  3107.59

   temp. (K)  partition function   enthalpy   heat capacity  entropy
                                   cal/mol     cal/K/mol   cal/K/mol   J/K/mol
 298.15  VIB  0.698E+13            16769.651    105.795    104.116
         ROT  0.480E+08              888.752      2.981     38.131
         INT  0.335E+21            17658.403    108.776    142.247
         TR   0.104E+29             1481.254      4.968     44.420
         TOT                       19139.6568   113.7441   186.6671   781.0152

       T/K    H(0)-H(T)+PV         H(T)/Eh          T*S/Eh         G(T)/Eh
   ------------------------------------------------------------------------
    298.15    0.305010E-01    0.454518E+00    0.886916E-01    0.365826E+00
   ------------------------------------------------------------------------

         :::::::::::::::::::::::::::::::::::::::::::::::::::::
         ::                  THERMODYNAMIC                  ::
         :::::::::::::::::::::::::::::::::::::::::::::::::::::
         :: total free energy         -95.056424827297 Eh   ::
         ::.................................................::
         :: total energy              -95.422250989327 Eh   ::
         :: zero point energy           0.424016748100 Eh   ::
         :: G(RRHO) w/o ZPVE           -0.058190586069 Eh   ::
         :: G(RRHO) contrib.            0.365826162031 Eh   ::
         :::::::::::::::::::::::::::::::::::::::::::::::::::::

           -------------------------------------------------
          | TOTAL ENERGY              -95.422250989327 Eh   |
          | TOTAL ENTHALPY            -94.967733256642 Eh   |
          | TOTAL FREE ENERGY         -95.056424827297 Eh   |
          | GRADIENT NORM               0.000106789311 Eh/α |
          | HOMO-LUMO GAP               1.186574817535 eV   |
           -------------------------------------------------

 * finished run on 2025/07/16 at 13:09:41.417
