   * xtb version 6.7.1 (edcfbbe) compiled by 'albert@albert-system' on 2024-07-22

   ID    Z sym.   atoms
    1    8 O      1, 10, 11
    2    6 C      2-8, 12-19, 21-36
    3   16 S      9
    4    7 N      20
    5    1 H      37-57

          program call               : xtb data2507/gas/TXO-TPA/TXO-TPA.xyz --gfn 2 --ohess vtight --parallel 40 --molden --ceasefiles --namespace data2507/gas/TXO-TPA/TXO-TPA_gas_S0_preOpt
          :  Hamiltonian                  GFN2-xTB          :
 * total energy  :   -95.4029285 Eh     change       -0.1949488E-08 Eh
 * total energy  :   -95.4137940 Eh     change       -0.1086556E-01 Eh
 * total energy  :   -95.4183392 Eh     change       -0.4545145E-02 Eh
 * total energy  :   -95.4194905 Eh     change       -0.1151361E-02 Eh
 * total energy  :   -95.4200121 Eh     change       -0.5215793E-03 Eh
 * total energy  :   -95.4201864 Eh     change       -0.1743550E-03 Eh
 * total energy  :   -95.4202865 Eh     change       -0.1000814E-03 Eh
 * total energy  :   -95.4203761 Eh     change       -0.8957961E-04 Eh
 * total energy  :   -95.4204785 Eh     change       -0.1024097E-03 Eh
 * total energy  :   -95.4205910 Eh     change       -0.1124977E-03 Eh
 * total energy  :   -95.4219890 Eh     change       -0.4156624E-06 Eh
 * total energy  :   -95.4219894 Eh     change       -0.3602494E-06 Eh
 * total energy  :   -95.4219897 Eh     change       -0.3074735E-06 Eh
 * total energy  :   -95.4219900 Eh     change       -0.2722807E-06 Eh
 * total energy  :   -95.4219902 Eh     change       -0.2627996E-06 Eh
 * total energy  :   -95.4219905 Eh     change       -0.2744992E-06 Eh
 * total energy  :   -95.4219908 Eh     change       -0.2986590E-06 Eh
 * total energy  :   -95.4219911 Eh     change       -0.3045907E-06 Eh
 * total energy  :   -95.4219911 Eh     change       -0.3872728E-08 Eh
   *** GEOMETRY OPTIMIZATION CONVERGED AFTER 68 ITERATIONS ***

 final structure:
================
57
 xtb: 6.7.1 (edcfbbe)
O            4.39718424466230        1.29287741415630       -2.03378053466462
C            4.84355520336415        0.74331342895499       -1.04669877557266
C            6.26096821860416        0.30007747011522       -0.99990124898460
C            6.93194005198744        0.13611880398084       -2.21444754046407
C            8.24438806344590       -0.29568955634447       -2.24113901103407
C            8.91342047275307       -0.56963979572169       -1.05715936213950
C            8.26365382368312       -0.39768243159318        0.15502633158864
C            6.95118376268412        0.02912046393436        0.17531769460322
S            6.17411308585782        0.34703468542555        1.75587766840278
O            6.58472189489637       -0.65237739109859        2.70420421797604
O            6.41362054960547        1.72452294364445        2.09535135971109
C            4.43829181563285        0.15473659367059        1.38843735566616
C            3.56686652185415       -0.16271880641438        2.41147336406595
C            2.20688372478550       -0.22562431372505        2.16926516979467
C            1.69844498525525        0.04630982600655        0.89619630872894
C            0.25530002644518        0.01108162987700        0.63836663235242
C           -0.56470228389469       -0.93387225479959        1.25556256010213
C           -1.92218716271175       -0.95956265622340        1.02186101119755
C           -2.51316831160801       -0.03061356340063        0.16144197998331
N           -3.88488274215528       -0.04488526051633       -0.06870965331638
C           -4.57646063445432        1.15302470360949       -0.30325049642523
C           -4.25404839391697        2.30805042796477        0.40772236592542
C           -4.94128530923428        3.48306607438797        0.17232566417958
C           -5.96201501312385        3.52352963239301       -0.76332293095449
C           -6.29033705863393        2.37643721693449       -1.46700322531847
C           -5.60318012121764        1.19869203343643       -1.24490929878738
C           -4.59445347306341       -1.25442711730574       -0.06414239991310
C           -5.87061857304576       -1.31852033239972        0.49325720192963
C           -6.57292356070064       -2.50809959370468        0.48674963352449
C           -6.01483239523446       -3.64918546368456       -0.06580951484853
C           -4.74626236106392       -3.59059075867516       -0.61924702212613
C           -4.03930828133252       -2.40375495907383       -0.62504421890908
C           -1.69450824778812        0.91561433772127       -0.46102085316744
C           -0.33733980858730        0.93151401152140       -0.22700886313536
C            2.59395202151676        0.36320015309599       -0.12208927961950
C            3.96752264588566        0.41820020749666        0.10668759280377
H            6.39704182810556        0.35515165667252       -3.12661674190146
H            8.74982537071593       -0.41793200862708       -3.18724504648767
H            9.93790310965825       -0.90865085893496       -1.07746354169661
H            8.75352832447547       -0.59272831713094        1.09611288825156
H            3.97574580640701       -0.35518664632538        3.39107294122984
H            1.52999571899192       -0.45837031384834        2.97711087454690
H           -0.13040108217016       -1.67072171057386        1.91474217570555
H           -2.53997736296494       -1.69717659824973        1.51224992671300
H           -3.46602500823506        2.27559144907169        1.14588335376229
H           -4.68320913851197        4.37096340872142        0.73033319052298
H           -6.49858926897297        4.44275962532310       -0.94213792839496
H           -7.08239385245399        2.39993436985850       -2.20077932215979
H           -5.85492711496632        0.30673582348130       -1.79976846089575
H           -6.30387648604760       -0.43120571691414        0.93114784439592
H           -7.55992926748140       -2.54554372083379        0.92351693062913
H           -6.56525095153230       -4.57759765817481       -0.06629181731193
H           -4.30650538056835       -4.47374827983323       -1.05871579520566
H           -3.05506786285278       -2.35697387708396       -1.06781916747453
H           -2.13391103758708        1.63642010715838       -1.13432860079066
H            0.27202811496619        1.68183295754504       -0.70749048613878
H            2.24049615988649        0.55716450505854       -1.12395310045434

          :  Hamiltonian                  GFN2-xTB          :
         :: gradient norm              0.000036617062 Eh/a0 ::
         :: HOMO-LUMO gap              1.172462046833 eV    ::
         :: SCC energy               -97.028547159488 Eh    ::
         :: -> dispersion             -0.078316993804 Eh    ::
         :: repulsion energy           1.606556058408 Eh    ::

    * Orbital Energies and Occupations

         #    Occupation            Energy/Eh            Energy/eV
      -------------------------------------------------------------
         1        2.0000           -0.7754503             -21.1011
       ...           ...                  ...                  ...
        75        2.0000           -0.4349055             -11.8344
        76        2.0000           -0.4338965             -11.8069
        77        2.0000           -0.4300761             -11.7030
        78        2.0000           -0.4298174             -11.6959
        79        2.0000           -0.4274969             -11.6328
        80        2.0000           -0.4213307             -11.4650
        81        2.0000           -0.4178710             -11.3708
        82        2.0000           -0.4143656             -11.2755
        83        2.0000           -0.4118825             -11.2079
        84        2.0000           -0.4112278             -11.1901
        85        2.0000           -0.4077205             -11.0946
        86        2.0000           -0.4009624             -10.9107
        87        2.0000           -0.3575316              -9.7289 (HOMO)
        88                         -0.3144444              -8.5565 (LUMO)
        89                         -0.2711978              -7.3797
        90                         -0.2625226              -7.1436
        91                         -0.2550850              -6.9412
        92                         -0.2369650              -6.4481
        93                         -0.2353842              -6.4051
        94                         -0.2318504              -6.3090
        95                         -0.2299969              -6.2585
        96                         -0.2279615              -6.2031
        97                         -0.2089266              -5.6852
        98                         -0.1939204              -5.2768
       ...                                ...                  ...
       170                          1.2122214              32.9862
      -------------------------------------------------------------
                  HL-Gap            0.0430872 Eh            1.1725 eV

     #   Z          covCN         q      C6AA      α(0)
     1   8 O        0.858    -0.349    20.694     6.099
     2   6 C        2.829     0.223    23.316     7.913
     3   6 C        3.005    -0.013    28.321     8.730
     4   6 C        2.927    -0.014    28.356     8.733
     5   6 C        2.917    -0.022    28.563     8.764
     6   6 C        2.921    -0.016    28.409     8.741
     7   6 C        2.962    -0.019    28.479     8.753
     8   6 C        2.971    -0.069    29.723     8.943
     9  16 S        3.824     0.958   107.872    17.481
    10   8 O        0.860    -0.535    24.568     6.646
    11   8 O        0.860    -0.540    24.681     6.661
    12   6 C        2.971    -0.075    29.880     8.966
    13   6 C        2.959    -0.021    28.526     8.760
    14   6 C        2.926    -0.025    28.618     8.773
    15   6 C        2.973     0.022    27.515     8.604
    16   6 C        2.976    -0.001    28.053     8.688
    17   6 C        2.923    -0.033    28.824     8.804
    18   6 C        2.920    -0.049    29.219     8.864
    19   6 C        2.923     0.068    26.482     8.439
    20   7 N        2.752    -0.072    22.629     7.065
    21   6 C        2.925     0.064    26.562     8.452
    22   6 C        2.922    -0.047    29.158     8.855
    23   6 C        2.920    -0.029    28.714     8.787
    24   6 C        2.919    -0.037    28.909     8.817
    25   6 C        2.920    -0.028    28.712     8.787
    26   6 C        2.922    -0.046    29.147     8.853
    27   6 C        2.925     0.064    26.559     8.451
    28   6 C        2.922    -0.046    29.150     8.854
    29   6 C        2.920    -0.029    28.714     8.787
    30   6 C        2.919    -0.037    28.918     8.818
    31   6 C        2.920    -0.029    28.721     8.788
    32   6 C        2.922    -0.047    29.165     8.856
    33   6 C        2.921    -0.048    29.197     8.861
    34   6 C        2.924    -0.032    28.805     8.801
    35   6 C        2.934    -0.022    28.556     8.764
    36   6 C        3.004    -0.016    28.385     8.740
    37   1 H        0.926     0.076     2.023     2.224
    38   1 H        0.926     0.058     2.222     2.331
    39   1 H        0.926     0.060     2.203     2.321
    40   1 H        0.926     0.068     2.112     2.273
    41   1 H        0.926     0.065     2.144     2.290
    42   1 H        0.926     0.058     2.218     2.329
    43   1 H        0.926     0.036     2.500     2.473
    44   1 H        0.926     0.037     2.490     2.468
    45   1 H        0.926     0.033     2.545     2.495
    46   1 H        0.926     0.034     2.524     2.485
    47   1 H        0.926     0.033     2.541     2.493
    48   1 H        0.926     0.034     2.530     2.487
    49   1 H        0.926     0.033     2.544     2.494
    50   1 H        0.926     0.033     2.542     2.493
    51   1 H        0.926     0.034     2.531     2.488
    52   1 H        0.926     0.033     2.548     2.496
    53   1 H        0.926     0.034     2.536     2.491
    54   1 H        0.926     0.033     2.549     2.497
    55   1 H        0.926     0.039     2.467     2.456
    56   1 H        0.926     0.042     2.417     2.431
    57   1 H        0.926     0.074     2.039     2.233

molecular dipole:
                 x           y           z       tot (Debye)
 q only:       -1.540      -1.162      -1.189
   full:       -1.393      -1.196      -1.033       5.355

 projected vibrational frequencies (cm⁻¹)
eigval :       -0.00    -0.00    -0.00    -0.00     0.00     0.00
eigval :       12.30    16.04    25.76    27.25    43.91    50.74
eigval :       59.83    67.12    71.99    86.97   102.79   109.70
eigval :      121.25   141.39   150.81   152.62   192.41   206.22
eigval :      234.19   238.60   255.32   274.58   289.84   299.80
eigval :      318.96   327.51   341.76   368.30   372.63   377.33
eigval :      378.69   381.06   387.75   402.70   429.49   429.71
eigval :      441.93   481.56   490.43   492.42   500.66   510.05
eigval :      541.14   550.89   583.00   585.64   590.04   594.75
eigval :      609.92   614.83   628.42   656.98   659.78   662.39
eigval :      669.17   675.40   693.04   711.58   732.17   735.66
eigval :      757.94   760.88   788.65   806.78   814.62   841.30
eigval :      869.67   875.55   876.58   890.38   892.48   894.49
eigval :      895.04   909.81   912.82   918.20   922.44   923.57
eigval :      928.05   928.37   929.65   930.15   931.55   932.25
eigval :      947.52   985.87  1005.37  1015.92  1023.96  1065.50
eigval :     1080.04  1082.83  1083.90  1084.28  1114.10  1121.57
eigval :     1123.51  1144.48  1152.80  1163.38  1170.14  1180.07
eigval :     1180.53  1180.63  1187.31  1195.02  1198.80  1216.80
eigval :     1221.12  1228.34  1243.17  1244.08  1271.83  1278.23
eigval :     1281.13  1296.73  1311.70  1317.12  1320.64  1326.08
eigval :     1327.38  1329.50  1337.83  1378.09  1411.65  1416.31
eigval :     1436.24  1441.86  1445.02  1451.26  1471.07  1475.15
eigval :     1496.28  1551.04  1556.60  1561.57  1567.54  1578.25
eigval :     1582.11  1588.57  1594.49  1594.50  1601.62  1688.03
eigval :     3077.47  3078.02  3078.48  3079.09  3081.38  3085.97
eigval :     3086.96  3087.03  3087.67  3090.09  3090.97  3092.55
eigval :     3094.19  3094.38  3094.84  3098.09  3098.97  3099.47
eigval :     3100.23  3105.77  3107.63

   temp. (K)  partition function   enthalpy   heat capacity  entropy
                                   cal/mol     cal/K/mol   cal/K/mol   J/K/mol
 298.15  VIB  0.728E+13            16770.727    105.808    104.158
         ROT  0.483E+08              888.752      2.981     38.141
         INT  0.351E+21            17659.479    108.789    142.300
         TR   0.104E+29             1481.254      4.968     44.420
         TOT                       19140.7333   113.7567   186.7198   781.2356

       T/K    H(0)-H(T)+PV         H(T)/Eh          T*S/Eh         G(T)/Eh
   ------------------------------------------------------------------------
    298.15    0.305027E-01    0.454529E+00    0.887166E-01    0.365813E+00
   ------------------------------------------------------------------------

         :::::::::::::::::::::::::::::::::::::::::::::::::::::
         ::                  THERMODYNAMIC                  ::
         :::::::::::::::::::::::::::::::::::::::::::::::::::::
         :: total free energy         -95.056178465682 Eh   ::
         ::.................................................::
         :: total energy              -95.421991101080 Eh   ::
         :: zero point energy           0.424026536766 Eh   ::
         :: G(RRHO) w/o ZPVE           -0.058213901369 Eh   ::
         :: G(RRHO) contrib.            0.365812635398 Eh   ::
         :::::::::::::::::::::::::::::::::::::::::::::::::::::

           -------------------------------------------------
          | TOTAL ENERGY              -95.421991101080 Eh   |
          | TOTAL ENTHALPY            -94.967461864241 Eh   |
          | TOTAL FREE ENERGY         -95.056178465682 Eh   |
          | GRADIENT NORM               0.000036619629 Eh/α |
          | HOMO-LUMO GAP               1.172462480314 eV   |
           -------------------------------------------------

 * finished run on 2025/07/16 at 13:07:05.879
