   * xtb version 6.7.1 (edcfbbe) compiled by 'albert@albert-system' on 2024-07-22

   ID    Z sym.   atoms
    1    8 O      1, 10, 11
    2    6 C      2-8, 12-19, 21-36
    3   16 S      9
    4    7 N      20
    5    1 H      37-57

          program call               : xtb data2507/gas/TXO-TPA/TXO-TPA_gas_T1_crest.xyz --gfn 2 --spinpol --tblite --uhf 2 --ohess vtight --parallel 40 --molden --ceasefiles --namespace data2507/gas/TXO-TPA/TXO-TPA_gas_T1_finalOpt
 * total energy  :   -95.3516041 Eh     change        0.4069719E-08 Eh
 * total energy  :   -95.3516532 Eh     change       -0.4908316E-04 Eh
 * total energy  :   -95.3516742 Eh     change       -0.2109006E-04 Eh
 * total energy  :   -95.3516773 Eh     change       -0.3038819E-05 Eh
 * total energy  :   -95.3516803 Eh     change       -0.2972353E-05 Eh
 * total energy  :   -95.3516825 Eh     change       -0.2291953E-05 Eh
 * total energy  :   -95.3516855 Eh     change       -0.2928197E-05 Eh
 * total energy  :   -95.3516876 Eh     change       -0.2150128E-05 Eh
 * total energy  :   -95.3516893 Eh     change       -0.1645693E-05 Eh
 * total energy  :   -95.3516912 Eh     change       -0.1945747E-05 Eh
 * total energy  :   -95.3516957 Eh     change       -0.8793140E-06 Eh
 * total energy  :   -95.3516962 Eh     change       -0.5846492E-06 Eh
 * total energy  :   -95.3516967 Eh     change       -0.4622461E-06 Eh
 * total energy  :   -95.3516971 Eh     change       -0.4310561E-06 Eh
 * total energy  :   -95.3516975 Eh     change       -0.3247264E-06 Eh
 * total energy  :   -95.3516977 Eh     change       -0.2130952E-06 Eh
 * total energy  :   -95.3516978 Eh     change       -0.1557810E-06 Eh
 * total energy  :   -95.3516980 Eh     change       -0.1490778E-06 Eh
 * total energy  :   -95.3516980 Eh     change       -0.4572087E-08 Eh
   *** GEOMETRY OPTIMIZATION CONVERGED AFTER 22 ITERATIONS ***

 final structure:
================
57
 xtb: 6.7.1 (edcfbbe)
O            3.42165119819101       -2.54085459822626       -0.11475726634476
C            3.97248475121251       -1.40745855525875       -0.04297473996527
C            5.40007403507342       -1.30147003525190        0.19747817663972
C            6.09584795549443       -2.49123825753155        0.50748865571328
C            7.43117413555994       -2.46365060827583        0.82373951195032
C            8.13633493327850       -1.26199477453638        0.84621320789188
C            7.47943427049577       -0.08785583575919        0.51977592502357
C            6.13883883770592       -0.11932067435447        0.19542484613123
S            5.40482808712977        1.40322659958667       -0.37199308472659
O            5.83423692969336        2.50187873108791        0.45384346120037
O            5.65038446043690        1.52295474941550       -1.78730951318814
C            3.66746261833608        1.10469740567594       -0.12695821401155
C            2.83183602228933        2.20155495189743       -0.07151683619669
C            1.46163587550831        2.03103254501207       -0.03317651804451
C            0.92181523674878        0.73311092348560       -0.07135983793976
C           -0.52787413643313        0.52262365891010       -0.04609493817987
C           -1.35636971594902        1.31880809641584        0.74816043224912
C           -2.71870268384535        1.12153425003005        0.77571436843032
C           -3.30350331051154        0.11602872515938       -0.00033789174048
N           -4.68177957928299       -0.08455430234269        0.02251443745663
C           -5.54785591308871        1.00435361995971        0.16818161451614
C           -5.26122071904164        2.22202129498298       -0.45112897586548
C           -6.11983223241203        3.29324409313158       -0.30296064447151
C           -7.27269527943611        3.16863770043508        0.45635783744937
C           -7.56286632236785        1.96039579867549        1.07037791754768
C           -6.70969747914406        0.88343039404409        0.93207846507919
C           -5.20660940771129       -1.37577585291059       -0.09762996893063
C           -4.56101999317491       -2.45937426765003        0.50027961733971
C           -5.08519928093396       -3.73098463417514        0.37780284025208
C           -6.25565932938809       -3.94195530450552       -0.33398864864886
C           -6.90143037509543       -2.86840482114300       -0.92700972895030
C           -6.38449138094901       -1.59293025557737       -0.81435722548142
C           -2.47971796418368       -0.68431140506301       -0.79822862934388
C           -1.11795529822700       -0.48478625034752       -0.81391478348618
C            1.77067158483740       -0.35618162966354       -0.10989927242519
C            3.17226315581496       -0.20271782845302       -0.10665070680880
H            5.53194797388387       -3.41213401872465        0.49473168250392
H            7.93905390998903       -3.38686033669851        1.06216412165068
H            9.18412494965889       -1.24432522318216        1.10177201143603
H            7.98637762547748        0.86430372838241        0.50428330865341
H            3.28056371279814        3.18263575879869       -0.07807697271835
H            0.80960095700138        2.88989102147031       -0.02140863276627
H           -0.91934556170071        2.08157768191651        1.37424901032658
H           -3.34252096106968        1.73083126760961        1.41300185861891
H           -4.37116716429955        2.31401523118636       -1.05572013849376
H           -5.89168386335396        4.22899422264164       -0.79044363117075
H           -7.94125739475298        4.00803368739363        0.56857389860282
H           -8.45582914252233        1.85814971140007        1.66835116085665
H           -6.92826785397604       -0.05366892202843        1.42241074750130
H           -3.65778722620915       -2.29304128998537        1.06820086971606
H           -4.58065000182256       -4.56133658769746        0.84799571463058
H           -6.66227521499942       -4.93710075341545       -0.42605996911211
H           -7.80973920237791       -3.02641423480384       -1.48864528256579
H           -6.87951711835089       -0.75867011472929       -1.28908193681436
H           -2.92320575193991       -1.44898783621418       -1.41861486753528
H           -0.49887535820101       -1.09464813044339       -1.45340890874432
H            1.38824484983614       -1.36625224945777       -0.09974237769723

 projected vibrational frequencies (cm⁻¹)
eigval :       -0.00    -0.00    -0.00     0.00     0.00     0.00
eigval :       12.39    16.55    23.75    27.22    43.81    51.55
eigval :       56.49    69.22    73.39    91.12   100.92   107.08
eigval :      135.58   142.13   153.27   158.89   200.85   210.14
eigval :      229.59   234.41   264.64   270.62   288.84   295.78
eigval :      316.53   327.43   345.59   353.80   362.65   376.59
eigval :      378.18   380.57   388.37   415.02   417.84   422.81
eigval :      439.31   474.02   483.97   488.54   502.09   510.69
eigval :      526.75   530.40   565.04   582.21   585.52   591.16
eigval :      592.29   594.75   614.05   627.61   647.96   652.52
eigval :      659.62   665.05   666.97   692.26   706.70   729.64
eigval :      758.00   760.32   766.53   794.43   804.97   825.19
eigval :      861.59   864.03   869.09   872.12   873.78   897.37
eigval :      897.64   898.95   900.65   906.95   909.48   910.36
eigval :      919.16   927.84   928.62   929.94   930.32   930.92
eigval :      937.93   983.13   999.68  1003.36  1015.39  1047.45
eigval :     1072.38  1074.03  1080.51  1081.68  1099.04  1121.26
eigval :     1123.36  1135.58  1140.82  1152.45  1163.20  1173.96
eigval :     1179.24  1179.45  1184.12  1190.97  1192.24  1193.65
eigval :     1214.08  1217.49  1221.26  1225.65  1266.95  1274.50
eigval :     1274.91  1283.58  1301.39  1313.20  1314.14  1320.86
eigval :     1325.82  1330.78  1334.62  1355.80  1391.60  1413.19
eigval :     1415.90  1419.04  1433.45  1439.83  1449.13  1460.63
eigval :     1460.96  1476.55  1498.04  1514.42  1533.64  1543.83
eigval :     1570.07  1572.46  1573.05  1577.76  1583.10  1592.70
eigval :     3077.50  3083.65  3084.14  3084.95  3085.59  3086.02
eigval :     3087.30  3088.36  3091.55  3092.22  3092.94  3094.54
eigval :     3096.28  3096.73  3097.48  3099.33  3103.00  3104.72
eigval :     3105.02  3105.08  3105.61

   temp. (K)  partition function   enthalpy   heat capacity  entropy
                                   cal/mol     cal/K/mol   cal/K/mol   J/K/mol
 298.15  VIB  0.740E+13            16902.753    107.072    104.564
         ROT  0.477E+08              888.752      2.981     38.117
         INT  0.353E+21            17791.505    110.053    142.681
         TR   0.104E+29             1481.254      4.968     44.420
         TOT                       19272.7589   115.0214   187.1013   782.8318

       T/K    H(0)-H(T)+PV         H(T)/Eh          T*S/Eh         G(T)/Eh
   ------------------------------------------------------------------------
    298.15    0.307131E-01    0.451701E+00    0.888979E-01    0.362803E+00
   ------------------------------------------------------------------------

         :::::::::::::::::::::::::::::::::::::::::::::::::::::
         ::                  THERMODYNAMIC                  ::
         :::::::::::::::::::::::::::::::::::::::::::::::::::::
         :: total free energy         -94.988895056609 Eh   ::
         ::.................................................::
         :: total energy              -95.351697982383 Eh   ::
         :: zero point energy           0.420987692675 Eh   ::
         :: G(RRHO) w/o ZPVE           -0.058184766901 Eh   ::
         :: G(RRHO) contrib.            0.362802925774 Eh   ::
         :::::::::::::::::::::::::::::::::::::::::::::::::::::

           -------------------------------------------------
          | TOTAL ENERGY              -95.351697982383 Eh   |
          | TOTAL ENTHALPY            -94.899997193484 Eh   |
          | TOTAL FREE ENERGY         -94.988895056609 Eh   |
          | GRADIENT NORM               0.000043719014 Eh/α |
           -------------------------------------------------

 * finished run on 2025/07/16 at 13:13:36.351
