   * xtb version 6.7.1 (edcfbbe) compiled by 'albert@albert-system' on 2024-07-22

   ID    Z sym.   atoms
    1    6 C      1-20
    2    1 H      21-34

          program call               : xtb data2507/toluene/CCC/CCC_toluene_T1_crest.xyz --gfn 2 --uhf 2 --gbsa toluene --ohess vtight --parallel 40 --molden --ceasefiles --namespace data2507/toluene/CCC/CCC_toluene_T1_finalOpt
      * Solvation model:               GBSA
        Solvent                        toluene
        Solvent mass                       9.2140E+01 g/mol
          :  Hamiltonian                  GFN2-xTB          :
 * total energy  :   -49.8968683 Eh     change       -0.6344223E-09 Eh
 * total energy  :   -49.8968762 Eh     change       -0.7949923E-05 Eh
 * total energy  :   -49.8968771 Eh     change       -0.8502293E-06 Eh
 * total energy  :   -49.8968777 Eh     change       -0.6057569E-06 Eh
 * total energy  :   -49.8968781 Eh     change       -0.3951062E-06 Eh
 * total energy  :   -49.8968784 Eh     change       -0.3349382E-06 Eh
 * total energy  :   -49.8968787 Eh     change       -0.2848595E-06 Eh
 * total energy  :   -49.8968789 Eh     change       -0.2527943E-06 Eh
 * total energy  :   -49.8968792 Eh     change       -0.2594620E-06 Eh
 * total energy  :   -49.8968795 Eh     change       -0.2501811E-06 Eh
 * total energy  :   -49.8968796 Eh     change       -0.1556234E-06 Eh
 * total energy  :   -49.8968796 Eh     change       -0.3039430E-07 Eh
   *** GEOMETRY OPTIMIZATION CONVERGED AFTER 12 ITERATIONS ***

 final structure:
================
34
 xtb: 6.7.1 (edcfbbe)
C           -4.84200145194454        1.37327307141554        0.00070963112348
C           -5.02381841097802       -0.01981657489317        0.00255543458539
C           -3.95991419257263       -0.87956786165325        0.00289704701986
C           -2.64189903248838       -0.33966571502431        0.00149281134592
C           -2.47140566990563        1.09310446214122       -0.00017123731217
C           -3.54999185901873        1.92674157261273       -0.00067287241551
C           -1.00589978038426        1.41159026510150       -0.00093355884654
C           -0.37073992529615        0.04924726446465        0.00042807420626
C           -1.38900048902946       -0.95025230850894        0.00150403298397
C           -1.03845412838261       -2.36080188128438        0.00250945786632
C            0.28617125345841       -2.71786592521911        0.00259628905087
C            1.27685172369409       -1.74212059824475        0.00187385620632
C            0.94436318680078       -0.31765178832457        0.00095434525941
C            2.17545137603391        0.41866641772007        0.00100570352158
C            2.42557586723801        1.79296291215912        0.00103163443116
C            3.73561480333636        2.23440260172813        0.00143518690893
C            4.79368701229902        1.33497791738239        0.00160094276583
C            4.55465778134934       -0.03941882795323        0.00157034656016
C            3.25707588282801       -0.49031076869297        0.00142007234630
C            2.76063143750642       -1.91131910004935        0.00186035444099
H           -5.70299383567071        2.02377050494563        0.00043374898037
H           -6.03192598555958       -0.41081634219098        0.00370107917975
H           -4.10394897377933       -1.94925114078992        0.00430175592520
H           -3.42680303504981        3.00070186538995       -0.00183446549964
H           -0.72012339958636        1.98965782820587       -0.88423907877111
H           -0.71965404802234        1.99193188732028        0.88072050935519
H           -1.82371635148646       -3.09876656436739        0.00301379042187
H            0.56756326926238       -3.76222312697382        0.00303678383473
H            1.61167137767910        2.50063449494836        0.00075852697783
H            3.94160090234426        3.29557600465752        0.00141928780783
H            5.80995748593294        1.70106856935257        0.00180752687005
H            5.38255408062991       -0.73447671790249        0.00194294382848
H            3.11052581083837       -2.46467190205696       -0.87760868492699
H            3.11057193222374       -2.46412662561593        0.88165574796789

          :  Hamiltonian                  GFN2-xTB          :
         :: gradient norm              0.000068612077 Eh/a0 ::
         :: HOMO-LUMO gap              0.505003699817 eV    ::
         :: SCC energy               -50.837224508643 Eh    ::
         :: -> dispersion             -0.040271853368 Eh    ::
         :: -> Gsolv                  -0.020196684314 Eh    ::
         :: repulsion energy           0.940344867282 Eh    ::

    * Orbital Energies and Occupations

         #    Occupation            Energy/Eh            Energy/eV
      -------------------------------------------------------------
         1        2.0000           -0.6525378             -17.7565
       ...           ...                  ...                  ...
        36        2.0000           -0.4334779             -11.7955
        37        2.0000           -0.4287619             -11.6672
        38        2.0000           -0.4265368             -11.6067
        39        2.0000           -0.4240955             -11.5402
        40        2.0000           -0.4191302             -11.4051
        41        2.0000           -0.4135409             -11.2530
        42        2.0000           -0.4132495             -11.2451
        43        2.0000           -0.4095482             -11.1444
        44        2.0000           -0.3983156             -10.8387
        45        2.0000           -0.3970463             -10.8042
        46        1.9996           -0.3775131             -10.2727
        47        1.0004           -0.3625219              -9.8647
        48        0.9999           -0.2613774              -7.1124 (HOMO)
        49        0.0001           -0.2428188              -6.6074 (LUMO)
        50                         -0.2168799              -5.9016
        51                         -0.2138953              -5.8204
        52                         -0.1946870              -5.2977
        53                         -0.1775301              -4.8308
        54                         -0.1174654              -3.1964
        55                         -0.0795884              -2.1657
        56                         -0.0507882              -1.3820
        57                          0.0653808               1.7791
        58                          0.0876220               2.3843
        59                          0.0932991               2.5388
       ...                                ...                  ...
        94                          0.7547923              20.5389
      -------------------------------------------------------------
                  HL-Gap            0.0185586 Eh            0.5050 eV

     #   Z          covCN         q      C6AA      α(0)
     1   6 C        2.918    -0.039    28.963     8.825
     2   6 C        2.911    -0.032    28.786     8.798
     3   6 C        2.906    -0.040    29.003     8.831
     4   6 C        3.035    -0.002    28.051     8.687
     5   6 C        3.043     0.007    27.825     8.652
     6   6 C        2.906    -0.042    29.043     8.837
     7   6 C        3.839    -0.064    21.706     6.628
     8   6 C        3.038     0.002    27.944     8.670
     9   6 C        3.030    -0.003    28.064     8.689
    10   6 C        2.908    -0.048    29.183     8.858
    11   6 C        2.902    -0.038    28.953     8.823
    12   6 C        3.033    -0.001    28.012     8.681
    13   6 C        3.016    -0.011    28.270     8.722
    14   6 C        3.022    -0.002    28.046     8.687
    15   6 C        2.913    -0.039    28.966     8.825
    16   6 C        2.917    -0.035    28.876     8.812
    17   6 C        2.920    -0.036    28.885     8.813
    18   6 C        2.912    -0.040    29.006     8.831
    19   6 C        3.046     0.005    27.859     8.657
    20   6 C        3.832    -0.063    21.682     6.625
    21   1 H        0.926     0.028     2.621     2.532
    22   1 H        0.925     0.027     2.633     2.537
    23   1 H        0.926     0.027     2.626     2.534
    24   1 H        0.926     0.028     2.617     2.530
    25   1 H        0.924     0.061     2.184     2.311
    26   1 H        0.924     0.061     2.184     2.311
    27   1 H        0.926     0.029     2.603     2.523
    28   1 H        0.925     0.029     2.595     2.519
    29   1 H        0.926     0.032     2.551     2.498
    30   1 H        0.926     0.027     2.627     2.535
    31   1 H        0.926     0.028     2.622     2.532
    32   1 H        0.926     0.028     2.617     2.530
    33   1 H        0.924     0.058     2.227     2.334
    34   1 H        0.924     0.058     2.227     2.334

molecular dipole:
                 x           y           z       tot (Debye)
 q only:        0.334      -0.002      -0.000
   full:        0.358      -0.016      -0.000       0.912

 projected vibrational frequencies (cm⁻¹)
eigval :       -0.00    -0.00     0.00     0.00     0.00     0.00
eigval :       40.84    58.70   105.65   109.05   111.95   201.40
eigval :      220.68   230.44   242.72   254.71   315.79   359.26
eigval :      390.50   400.44   412.52   438.27   445.19   452.74
eigval :      500.38   532.91   537.23   543.88   555.33   594.51
eigval :      599.77   642.29   670.05   674.55   705.03   714.19
eigval :      716.43   737.55   756.75   804.95   822.16   836.81
eigval :      857.57   871.99   886.18   896.83   902.05   909.34
eigval :      910.58   915.55   919.23   967.61   985.84  1042.46
eigval :     1073.11  1079.64  1084.28  1100.88  1112.74  1117.38
eigval :     1144.25  1166.00  1176.76  1180.48  1184.20  1194.88
eigval :     1206.75  1238.98  1247.65  1268.76  1284.76  1314.97
eigval :     1331.57  1354.49  1363.50  1370.89  1403.83  1415.36
eigval :     1423.73  1428.26  1435.05  1454.38  1482.67  1500.80
eigval :     1542.77  1554.69  1597.51  1618.20  2884.38  2920.53
eigval :     2930.64  2954.98  3061.38  3063.10  3065.71  3066.05
eigval :     3068.47  3082.61  3083.40  3091.89  3100.64  3102.83

   temp. (K)  partition function   enthalpy   heat capacity  entropy
                                   cal/mol     cal/K/mol   cal/K/mol   J/K/mol
 298.15  VIB  0.262E+05             7767.427     56.938     44.804
         ROT  0.490E+07              888.752      2.981     33.596
         INT  0.129E+12             8656.179     59.919     78.400
         TR   0.392E+28             1481.254      4.968     42.481
         TOT                       10137.4332    64.8869   120.8810   505.7663

       T/K    H(0)-H(T)+PV         H(T)/Eh          T*S/Eh         G(T)/Eh
   ------------------------------------------------------------------------
    298.15    0.161550E-01    0.277533E+00    0.574345E-01    0.220098E+00
   ------------------------------------------------------------------------

         :::::::::::::::::::::::::::::::::::::::::::::::::::::
         ::                  THERMODYNAMIC                  ::
         :::::::::::::::::::::::::::::::::::::::::::::::::::::
         :: total free energy         -49.676781179353 Eh   ::
         ::.................................................::
         :: total energy              -49.896879644195 Eh   ::
         :: zero point energy           0.261377919783 Eh   ::
         :: G(RRHO) w/o ZPVE           -0.041279454942 Eh   ::
         :: G(RRHO) contrib.            0.220098464842 Eh   ::
         :::::::::::::::::::::::::::::::::::::::::::::::::::::

           -------------------------------------------------
          | TOTAL ENERGY              -49.896879644195 Eh   |
          | TOTAL ENTHALPY            -49.619346696355 Eh   |
          | TOTAL FREE ENERGY         -49.676781179353 Eh   |
          | GRADIENT NORM               0.000068575783 Eh/α |
          | HOMO-LUMO GAP               0.505005412057 eV   |
           -------------------------------------------------

 * finished run on 2025/09/05 at 11:56:52.881
