   * xtb version 6.7.1 (edcfbbe) compiled by 'albert@albert-system' on 2024-07-22

   ID    Z sym.   atoms
    1    6 C      1-20
    2    1 H      21-34

          program call               : xtb data2507/toluene/CCC/CCC.xyz --gfn 2 --gbsa toluene --ohess vtight --parallel 40 --molden --ceasefiles --namespace data2507/toluene/CCC/CCC_toluene_S0_preOpt
      * Solvation model:               GBSA
        Solvent                        toluene
        Solvent mass                       9.2140E+01 g/mol
          :  Hamiltonian                  GFN2-xTB          :
 * total energy  :   -50.0050600 Eh     change       -0.3371312E-09 Eh
 * total energy  :   -50.0080600 Eh     change       -0.2999993E-02 Eh
 * total energy  :   -50.0083543 Eh     change       -0.2943266E-03 Eh
 * total energy  :   -50.0083724 Eh     change       -0.1807782E-04 Eh
 * total energy  :   -50.0083655 Eh     change        0.6818775E-05 Eh
 * total energy  :   -50.0083748 Eh     change       -0.9254020E-05 Eh
 * total energy  :   -50.0083758 Eh     change       -0.1029958E-05 Eh
 * total energy  :   -50.0083761 Eh     change       -0.2960839E-06 Eh
 * total energy  :   -50.0083761 Eh     change       -0.6988110E-08 Eh
   *** GEOMETRY OPTIMIZATION CONVERGED AFTER 9 ITERATIONS ***

 final structure:
================
34
 xtb: 6.7.1 (edcfbbe)
C           -4.88062563769047        1.28255671866390       -0.00014453401990
C           -5.05827260598687       -0.09320265154953       -0.00009789192601
C           -3.96897592693370       -0.94935469427228        0.00000830202955
C           -2.69459543527075       -0.40408069606721        0.00006404263534
C           -2.51697246364528        0.98809785516285        0.00002965518947
C           -3.60622758185553        1.83405189091999       -0.00007577039684
C           -1.05399809434975        1.32550093837994        0.00010124084265
C           -0.40647041221939       -0.02803624406603        0.00011581668729
C           -1.38519737756580       -1.03714308958434        0.00011436860324
C           -1.04118411527188       -2.38153062785415        0.00011254451900
C            0.29984665574096       -2.74012967266861        0.00007271782954
C            1.26765859032991       -1.75472785087308        0.00004452912807
C            0.92853254800003       -0.38762903062619        0.00008964937511
C            2.15751343870275        0.39173095890408        0.00005431891562
C            2.37602820593300        1.76111258740930        0.00011697416406
C            3.68089452589049        2.22788552581074        0.00004882853686
C            4.75242645676583        1.34760334863208       -0.00008488541030
C            4.54063005519277       -0.02454191418117       -0.00013381752313
C            3.24502840751571       -0.49706299965295       -0.00005502558418
C            2.75983657861090       -1.91683420536564       -0.00006487046272
H           -5.74425795016549        1.93217231046812       -0.00023853299060
H           -6.05933510049143       -0.50086614584653       -0.00015115923027
H           -4.11313873038615       -2.01995687825194        0.00003780404982
H           -3.47503160993456        2.90702347977572       -0.00011255167048
H           -0.77600871648334        1.90711247862446       -0.88270723831264
H           -0.77610094829422        1.90708039071518        0.88296132898618
H           -1.80813573909301       -3.14197459343897        0.00012503848774
H            0.58316626495822       -3.78323664667355        0.00004970187873
H            1.55111828702282        2.45639915111532        0.00021936547173
H            3.86692799970743        3.29264464981874        0.00009696292135
H            5.76183843967151        1.73347936423203       -0.00014644867551
H            5.37822592550994       -0.70780909522056       -0.00022971813358
H            3.10735784631603       -2.46313665632490       -0.88083043250601
H            3.10749821976931       -2.46319695611483        0.88060668659083

          :  Hamiltonian                  GFN2-xTB          :
         :: gradient norm              0.000017579289 Eh/a0 ::
         :: HOMO-LUMO gap              3.293348103679 eV    ::
         :: SCC energy               -50.971117236136 Eh    ::
         :: -> dispersion             -0.040370520540 Eh    ::
         :: -> Gsolv                  -0.020100314759 Eh    ::
         :: repulsion energy           0.962741112538 Eh    ::

    * Orbital Energies and Occupations

         #    Occupation            Energy/Eh            Energy/eV
      -------------------------------------------------------------
         1        2.0000           -0.6531268             -17.7725
       ...           ...                  ...                  ...
        35        2.0000           -0.4597555             -12.5106
        36        2.0000           -0.4309618             -11.7271
        37        2.0000           -0.4292720             -11.6811
        38        2.0000           -0.4246793             -11.5561
        39        2.0000           -0.4233931             -11.5211
        40        2.0000           -0.4192333             -11.4079
        41        2.0000           -0.4130781             -11.2404
        42        2.0000           -0.4108991             -11.1811
        43        2.0000           -0.4097438             -11.1497
        44        2.0000           -0.3966537             -10.7935
        45        2.0000           -0.3954853             -10.7617
        46        2.0000           -0.3775187             -10.2728
        47        2.0000           -0.3708417             -10.0911 (HOMO)
        48                         -0.2498134              -6.7978 (LUMO)
        49                         -0.2387098              -6.4956
        50                         -0.2178539              -5.9281
        51                         -0.2172372              -5.9113
        52                         -0.1966752              -5.3518
        53                         -0.1745221              -4.7490
        54                         -0.1107953              -3.0149
        55                         -0.0761962              -2.0734
        56                         -0.0459758              -1.2511
        57                          0.0784299               2.1342
        58                          0.0899004               2.4463
       ...                                ...                  ...
        94                          0.7518817              20.4597
      -------------------------------------------------------------
                  HL-Gap            0.1210283 Eh            3.2933 eV

     #   Z          covCN         q      C6AA      α(0)
     1   6 C        2.922    -0.035    28.879     8.813
     2   6 C        2.921    -0.036    28.894     8.815
     3   6 C        2.914    -0.036    28.908     8.817
     4   6 C        3.039    -0.002    28.038     8.685
     5   6 C        3.049     0.004    27.892     8.662
     6   6 C        2.914    -0.040    28.999     8.831
     7   6 C        3.844    -0.064    21.687     6.624
     8   6 C        3.042    -0.001    28.006     8.680
     9   6 C        3.038    -0.007    28.166     8.705
    10   6 C        2.916    -0.039    28.975     8.827
    11   6 C        2.915    -0.045    29.113     8.848
    12   6 C        3.047     0.002    27.942     8.670
    13   6 C        3.031    -0.011    28.257     8.719
    14   6 C        3.035    -0.001    28.018     8.682
    15   6 C        2.914    -0.038    28.948     8.823
    16   6 C        2.921    -0.036    28.900     8.816
    17   6 C        2.921    -0.035    28.869     8.811
    18   6 C        2.914    -0.040    28.999     8.830
    19   6 C        3.049     0.005    27.865     8.658
    20   6 C        3.844    -0.067    21.756     6.635
    21   1 H        0.926     0.028     2.617     2.530
    22   1 H        0.926     0.027     2.632     2.537
    23   1 H        0.926     0.027     2.623     2.533
    24   1 H        0.926     0.029     2.606     2.524
    25   1 H        0.924     0.060     2.196     2.318
    26   1 H        0.924     0.060     2.196     2.318
    27   1 H        0.926     0.028     2.609     2.526
    28   1 H        0.926     0.028     2.609     2.526
    29   1 H        0.926     0.033     2.551     2.498
    30   1 H        0.926     0.027     2.627     2.535
    31   1 H        0.926     0.028     2.621     2.532
    32   1 H        0.926     0.028     2.610     2.526
    33   1 H        0.924     0.060     2.198     2.318
    34   1 H        0.924     0.060     2.198     2.318

molecular dipole:
                 x           y           z       tot (Debye)
 q only:        0.321      -0.002      -0.000
   full:        0.343      -0.015      -0.000       0.872

 projected vibrational frequencies (cm⁻¹)
eigval :       -0.00    -0.00    -0.00    -0.00     0.00     0.00
eigval :       49.10    64.15   111.76   117.68   131.78   215.53
eigval :      232.31   233.53   272.03   313.83   322.76   394.26
eigval :      400.10   425.75   443.79   451.83   457.12   506.36
eigval :      536.23   547.98   554.44   588.35   599.41   616.09
eigval :      644.85   686.60   696.45   700.41   755.30   767.16
eigval :      771.87   823.75   831.03   833.56   844.45   875.07
eigval :      875.87   899.51   902.02   909.10   915.78   919.66
eigval :      926.48   928.18   994.67   997.45  1076.13  1078.47
eigval :     1083.11  1086.68  1091.10  1130.09  1146.17  1174.05
eigval :     1179.77  1181.18  1187.23  1193.03  1209.69  1213.91
eigval :     1245.55  1256.74  1274.13  1275.62  1289.44  1338.96
eigval :     1347.06  1386.98  1406.18  1417.74  1422.27  1429.40
eigval :     1450.14  1453.71  1465.77  1471.81  1585.22  1588.59
eigval :     1596.54  1604.85  1606.03  1613.98  2942.75  2943.27
eigval :     2964.95  2967.47  3064.10  3064.39  3067.44  3068.43
eigval :     3068.87  3075.05  3080.35  3082.39  3085.03  3098.05

   temp. (K)  partition function   enthalpy   heat capacity  entropy
                                   cal/mol     cal/K/mol   cal/K/mol   J/K/mol
 298.15  VIB  0.972E+04             7248.854     54.367     41.575
         ROT  0.488E+07              888.752      2.981     33.584
         INT  0.474E+11             8137.606     57.348     75.159
         TR   0.392E+28             1481.254      4.968     42.481
         TOT                        9618.8602    62.3162   117.6406   492.2082

       T/K    H(0)-H(T)+PV         H(T)/Eh          T*S/Eh         G(T)/Eh
   ------------------------------------------------------------------------
    298.15    0.153286E-01    0.282365E+00    0.558948E-01    0.226470E+00
   ------------------------------------------------------------------------

         :::::::::::::::::::::::::::::::::::::::::::::::::::::
         ::                  THERMODYNAMIC                  ::
         :::::::::::::::::::::::::::::::::::::::::::::::::::::
         :: total free energy         -49.781906379423 Eh   ::
         ::.................................................::
         :: total energy              -50.008376126128 Eh   ::
         :: zero point energy           0.267035956193 Eh   ::
         :: G(RRHO) w/o ZPVE           -0.040566209488 Eh   ::
         :: G(RRHO) contrib.            0.226469746705 Eh   ::
         :::::::::::::::::::::::::::::::::::::::::::::::::::::

           -------------------------------------------------
          | TOTAL ENERGY              -50.008376126128 Eh   |
          | TOTAL ENTHALPY            -49.726011540577 Eh   |
          | TOTAL FREE ENERGY         -49.781906379423 Eh   |
          | GRADIENT NORM               0.000017568644 Eh/α |
          | HOMO-LUMO GAP               3.293348072135 eV   |
           -------------------------------------------------

 * finished run on 2025/09/05 at 11:55:25.504
