   * xtb version 6.7.1 (edcfbbe) compiled by 'albert@albert-system' on 2024-07-22

   ID    Z sym.   atoms
    1    6 C      1-20
    2    1 H      21-34

          program call               : xtb data2507/toluene/CCC/CCC_toluene_S0_crest.xyz --gfn 2 --gbsa toluene --ohess vtight --parallel 40 --molden --ceasefiles --namespace data2507/toluene/CCC/CCC_toluene_S0_finalOpt
      * Solvation model:               GBSA
        Solvent                        toluene
        Solvent mass                       9.2140E+01 g/mol
          :  Hamiltonian                  GFN2-xTB          :
 * total energy  :   -50.0083636 Eh     change       -0.3570406E-09 Eh
 * total energy  :   -50.0083722 Eh     change       -0.8646371E-05 Eh
 * total energy  :   -50.0083739 Eh     change       -0.1713357E-05 Eh
 * total energy  :   -50.0083754 Eh     change       -0.1496924E-05 Eh
 * total energy  :   -50.0083764 Eh     change       -0.9928323E-06 Eh
 * total energy  :   -50.0083771 Eh     change       -0.7030637E-06 Eh
 * total energy  :   -50.0083777 Eh     change       -0.5612842E-06 Eh
 * total energy  :   -50.0083782 Eh     change       -0.4985983E-06 Eh
 * total energy  :   -50.0083786 Eh     change       -0.4462727E-06 Eh
 * total energy  :   -50.0083790 Eh     change       -0.3862908E-06 Eh
 * total energy  :   -50.0083793 Eh     change       -0.3078852E-06 Eh
 * total energy  :   -50.0083796 Eh     change       -0.2381453E-06 Eh
 * total energy  :   -50.0083798 Eh     change       -0.1957713E-06 Eh
 * total energy  :   -50.0083799 Eh     change       -0.1644643E-06 Eh
 * total energy  :   -50.0083801 Eh     change       -0.1553028E-06 Eh
 * total energy  :   -50.0083802 Eh     change       -0.1369331E-06 Eh
 * total energy  :   -50.0083803 Eh     change       -0.1169485E-06 Eh
 * total energy  :   -50.0083804 Eh     change       -0.9581159E-07 Eh
   *** GEOMETRY OPTIMIZATION CONVERGED AFTER 18 ITERATIONS ***

 final structure:
================
34
 xtb: 6.7.1 (edcfbbe)
C           -4.84111020218817        1.37584107166113       -0.00498919069769
C           -5.03225594626718        0.00189703240051       -0.00794433310815
C           -3.95144779264263       -0.86496154192944       -0.00574979702430
C           -2.67175725678668       -0.33225385297932       -0.00095628562104
C           -2.48050439084251        1.05811843334899        0.00170155520859
C           -3.56136037108659        1.91475520547564       -0.00004832259593
C           -1.01432612407354        1.38122162132248        0.00547308917360
C           -0.38006947826108        0.02143815350522        0.00309433488417
C           -1.36858590041188       -0.97808461279935        0.00057844053130
C           -1.03764866869368       -2.32576611963883       -0.00109197493876
C            0.29984114327006       -2.69736632972246       -0.00132855696595
C            1.27716567102789       -1.72140822300918       -0.00039944598384
C            0.95136973034990       -0.35109148051124        0.00208174879085
C            2.18786601871387        0.41627857557180        0.00092653436264
C            2.41962548808403        1.78348202533541        0.00181818924622
C            3.72893700528924        2.23761790878218       -0.00181760908115
C            4.79185003578763        1.34696144240799       -0.00621029661973
C            4.56678796349110       -0.02307049797323       -0.00657006401836
C            3.26668142687057       -0.48304536870685       -0.00292354635685
C            2.76767209136565       -1.89803543046751       -0.00289185819371
H           -5.69829328260319        2.03394339036168       -0.00685654580801
H           -6.03728881842000       -0.39584377334938       -0.01215103630228
H           -4.10614869394926       -1.93409766668996       -0.00818051191070
H           -3.41957448387833        2.98637513183638        0.00207783418061
H           -0.72899420554930        1.96271333272996       -0.87504129533882
H           -0.73247874782356        1.95744423600814        0.89061707316493
H           -1.81196226790186       -3.07870312145738       -0.00254947991202
H            0.57319895919116       -3.74313684981141       -0.00283658079101
H            1.60146325679317        2.48667585507872        0.00515299233070
H            3.92529585689591        3.30052658928649       -0.00145920553326
H            5.80495262701837        1.72301111403315       -0.00940808712130
H            5.39776204970135       -0.71436563221850       -0.00990914500886
H            3.10845476238227       -2.44737170264341       -0.88439746276770
H            3.11137740624725       -2.44810656023846        0.87703963272590

          :  Hamiltonian                  GFN2-xTB          :
         :: gradient norm              0.000026243988 Eh/a0 ::
         :: HOMO-LUMO gap              3.293356750000 eV    ::
         :: SCC energy               -50.971123765860 Eh    ::
         :: -> dispersion             -0.040370658759 Eh    ::
         :: -> Gsolv                  -0.020105139109 Eh    ::
         :: repulsion energy           0.962743341813 Eh    ::

    * Orbital Energies and Occupations

         #    Occupation            Energy/Eh            Energy/eV
      -------------------------------------------------------------
         1        2.0000           -0.6531279             -17.7725
       ...           ...                  ...                  ...
        35        2.0000           -0.4597563             -12.5106
        36        2.0000           -0.4309599             -11.7270
        37        2.0000           -0.4292717             -11.6811
        38        2.0000           -0.4246789             -11.5561
        39        2.0000           -0.4233936             -11.5211
        40        2.0000           -0.4192339             -11.4079
        41        2.0000           -0.4130787             -11.2404
        42        2.0000           -0.4108992             -11.1811
        43        2.0000           -0.4097432             -11.1497
        44        2.0000           -0.3966550             -10.7935
        45        2.0000           -0.3954841             -10.7617
        46        2.0000           -0.3775187             -10.2728
        47        2.0000           -0.3708417             -10.0911 (HOMO)
        48                         -0.2498131              -6.7978 (LUMO)
        49                         -0.2387093              -6.4956
        50                         -0.2178549              -5.9281
        51                         -0.2172367              -5.9113
        52                         -0.1966752              -5.3518
        53                         -0.1745223              -4.7490
        54                         -0.1107951              -3.0149
        55                         -0.0761980              -2.0735
        56                         -0.0459776              -1.2511
        57                          0.0784591               2.1350
        58                          0.0898900               2.4460
       ...                                ...                  ...
        94                          0.7518820              20.4598
      -------------------------------------------------------------
                  HL-Gap            0.1210286 Eh            3.2934 eV

     #   Z          covCN         q      C6AA      α(0)
     1   6 C        2.922    -0.035    28.879     8.813
     2   6 C        2.921    -0.036    28.894     8.815
     3   6 C        2.914    -0.036    28.908     8.817
     4   6 C        3.039    -0.002    28.038     8.685
     5   6 C        3.049     0.004    27.892     8.662
     6   6 C        2.914    -0.040    28.999     8.831
     7   6 C        3.844    -0.064    21.687     6.624
     8   6 C        3.042    -0.001    28.005     8.680
     9   6 C        3.038    -0.007    28.166     8.705
    10   6 C        2.916    -0.039    28.975     8.827
    11   6 C        2.915    -0.045    29.113     8.848
    12   6 C        3.047     0.002    27.942     8.670
    13   6 C        3.031    -0.011    28.257     8.719
    14   6 C        3.035    -0.001    28.018     8.682
    15   6 C        2.914    -0.038    28.948     8.823
    16   6 C        2.921    -0.036    28.900     8.816
    17   6 C        2.921    -0.035    28.869     8.811
    18   6 C        2.914    -0.040    28.999     8.830
    19   6 C        3.049     0.005    27.865     8.658
    20   6 C        3.844    -0.067    21.756     6.635
    21   1 H        0.926     0.028     2.617     2.530
    22   1 H        0.926     0.027     2.632     2.537
    23   1 H        0.926     0.027     2.623     2.533
    24   1 H        0.926     0.029     2.606     2.524
    25   1 H        0.924     0.060     2.197     2.318
    26   1 H        0.924     0.060     2.196     2.317
    27   1 H        0.926     0.028     2.609     2.526
    28   1 H        0.926     0.028     2.609     2.526
    29   1 H        0.926     0.033     2.551     2.498
    30   1 H        0.926     0.027     2.627     2.535
    31   1 H        0.926     0.028     2.621     2.532
    32   1 H        0.926     0.028     2.610     2.526
    33   1 H        0.924     0.060     2.198     2.319
    34   1 H        0.924     0.060     2.198     2.318

molecular dipole:
                 x           y           z       tot (Debye)
 q only:        0.321      -0.005       0.001
   full:        0.342      -0.018       0.000       0.872

 projected vibrational frequencies (cm⁻¹)
eigval :       -0.00    -0.00    -0.00    -0.00     0.00     0.00
eigval :       48.82    64.85   111.81   117.50   132.10   215.52
eigval :      232.18   233.39   272.07   313.85   322.75   394.79
eigval :      400.08   425.74   443.51   451.80   456.94   506.29
eigval :      536.20   548.03   554.48   588.25   599.43   616.15
eigval :      644.79   686.48   696.51   700.30   755.37   767.34
eigval :      772.17   823.66   830.94   833.48   844.44   875.20
eigval :      876.02   899.56   901.97   909.02   915.76   919.66
eigval :      926.43   928.43   994.76   997.50  1076.09  1078.50
eigval :     1083.37  1086.91  1090.99  1130.29  1146.02  1174.12
eigval :     1179.94  1181.44  1186.97  1193.11  1209.67  1213.85
eigval :     1245.64  1256.85  1274.16  1275.85  1289.40  1338.95
eigval :     1347.08  1386.95  1406.18  1417.63  1422.04  1429.36
eigval :     1450.09  1453.67  1465.80  1471.79  1585.20  1588.59
eigval :     1596.49  1604.79  1606.03  1613.99  2942.79  2943.11
eigval :     2965.01  2967.31  3063.55  3064.56  3067.02  3068.36
eigval :     3069.10  3075.13  3080.55  3082.26  3084.53  3098.32

   temp. (K)  partition function   enthalpy   heat capacity  entropy
                                   cal/mol     cal/K/mol   cal/K/mol   J/K/mol
 298.15  VIB  0.967E+04             7248.165     54.369     41.565
         ROT  0.488E+07              888.752      2.981     33.584
         INT  0.472E+11             8136.917     57.350     75.149
         TR   0.392E+28             1481.254      4.968     42.481
         TOT                        9618.1713    62.3177   117.6300   492.1640

       T/K    H(0)-H(T)+PV         H(T)/Eh          T*S/Eh         G(T)/Eh
   ------------------------------------------------------------------------
    298.15    0.153275E-01    0.282365E+00    0.558898E-01    0.226475E+00
   ------------------------------------------------------------------------

         :::::::::::::::::::::::::::::::::::::::::::::::::::::
         ::                  THERMODYNAMIC                  ::
         :::::::::::::::::::::::::::::::::::::::::::::::::::::
         :: total free energy         -49.781905573922 Eh   ::
         ::.................................................::
         :: total energy              -50.008380426639 Eh   ::
         :: zero point energy           0.267037138141 Eh   ::
         :: G(RRHO) w/o ZPVE           -0.040562285423 Eh   ::
         :: G(RRHO) contrib.            0.226474852718 Eh   ::
         :::::::::::::::::::::::::::::::::::::::::::::::::::::

           -------------------------------------------------
          | TOTAL ENERGY              -50.008380426639 Eh   |
          | TOTAL ENTHALPY            -49.726015756825 Eh   |
          | TOTAL FREE ENERGY         -49.781905573922 Eh   |
          | GRADIENT NORM               0.000026244623 Eh/α |
          | HOMO-LUMO GAP               3.293356777280 eV   |
           -------------------------------------------------

 * finished run on 2025/09/05 at 11:56:05.574
