   * xtb version 6.7.1 (edcfbbe) compiled by 'albert@albert-system' on 2024-07-22

   ID    Z sym.   atoms
    1    6 C      1-20
    2    1 H      21-34

          program call               : xtb data2507/toluene/CCC/CCC_toluene_S0_finalOpt.xtbopt.xyz --gfn 2 --uhf 2 --gbsa toluene --ohess vtight --parallel 40 --molden --ceasefiles --namespace data2507/toluene/CCC/CCC_toluene_T1_preOpt
      * Solvation model:               GBSA
        Solvent                        toluene
        Solvent mass                       9.2140E+01 g/mol
          :  Hamiltonian                  GFN2-xTB          :
 * total energy  :   -49.8869324 Eh     change       -0.7733462E-08 Eh
 * total energy  :   -49.8950860 Eh     change       -0.8153627E-02 Eh
 * total energy  :   -49.8966038 Eh     change       -0.1517817E-02 Eh
 * total energy  :   -49.8966759 Eh     change       -0.7208020E-04 Eh
 * total energy  :   -49.8967179 Eh     change       -0.4193612E-04 Eh
 * total energy  :   -49.8967544 Eh     change       -0.3650416E-04 Eh
 * total energy  :   -49.8968028 Eh     change       -0.4842080E-04 Eh
 * total energy  :   -49.8968423 Eh     change       -0.3953082E-04 Eh
 * total energy  :   -49.8968747 Eh     change       -0.3243131E-04 Eh
 * total energy  :   -49.8968776 Eh     change       -0.2824446E-05 Eh
 * total energy  :   -49.8968785 Eh     change       -0.9212785E-06 Eh
 * total energy  :   -49.8968788 Eh     change       -0.3308337E-06 Eh
 * total energy  :   -49.8968790 Eh     change       -0.1385175E-06 Eh
 * total energy  :   -49.8968789 Eh     change        0.6384168E-07 Eh
 * total energy  :   -49.8968790 Eh     change       -0.9783115E-07 Eh
   *** GEOMETRY OPTIMIZATION CONVERGED AFTER 15 ITERATIONS ***

 final structure:
================
34
 xtb: 6.7.1 (edcfbbe)
C           -4.84465629795671        1.36841216881896       -0.00252268468717
C           -5.02432719087189       -0.02497284088568       -0.00372651081864
C           -3.95900882567247       -0.88297631455413       -0.00336293192758
C           -2.64191491236163       -0.34088213295163       -0.00181952935100
C           -2.47354293492220        1.09212055414749       -0.00061370404628
C           -3.55351371863546        1.92400000997703       -0.00094285752655
C           -1.00847371553559        1.41273565406293        0.00075280859058
C           -0.37126353295302        0.05127039553314       -0.00029566403497
C           -1.38814069241261       -0.94964028634148       -0.00144437458766
C           -1.03597999923697       -2.35974952096419       -0.00238890304864
C            0.28906780561968       -2.71511676367087       -0.00282779342270
C            1.27846148188074       -1.73806062426746       -0.00220957490634
C            0.94434213759698       -0.31393671619849       -0.00076785656286
C            2.17474864169918        0.42367976041830       -0.00082833311145
C            2.42367720624032        1.79819811661396        0.00017902849118
C            3.73335320267097        2.24082578834306       -0.00076528801082
C            4.79227221866966        1.34239432436762       -0.00269457180108
C            4.55446129961065       -0.03221027614282       -0.00353546770014
C            3.25725994682242       -0.48422302778518       -0.00254499330088
C            2.76236713800079       -1.90573180689299       -0.00315581476021
H           -5.70671060586434        2.01751564627024       -0.00288369359384
H           -6.03179957259040       -0.41761745943489       -0.00498179528173
H           -4.10115344872384       -1.95291765881000       -0.00432295799279
H           -3.43215748754737        2.99816929872063       -0.00006116478948
H           -0.72269928623165        1.99338689278157       -0.88083409824891
H           -0.72396258125870        1.99131871224773        0.88412209335786
H           -1.82043062918473       -3.09856506358687       -0.00278035872728
H            0.57187811173564       -3.75908871627190       -0.00367536730180
H            1.60916992783875        2.50519090024281        0.00166356622572
H            3.93837389565833        3.30219058369415       -0.00005689141265
H            5.80822849826774        1.70938623302609       -0.00352047323875
H            5.38288571143199       -0.72663844920595       -0.00497356361875
H            3.11233332656818       -2.45794059408449       -0.88330330774382
H            3.11335763942448       -2.45893929234199        0.87596794948648

          :  Hamiltonian                  GFN2-xTB          :
         :: gradient norm              0.000078968472 Eh/a0 ::
         :: HOMO-LUMO gap              0.504849647950 eV    ::
         :: SCC energy               -50.837188843308 Eh    ::
         :: -> dispersion             -0.040270946956 Eh    ::
         :: -> Gsolv                  -0.020196402298 Eh    ::
         :: repulsion energy           0.940309833714 Eh    ::

    * Orbital Energies and Occupations

         #    Occupation            Energy/Eh            Energy/eV
      -------------------------------------------------------------
         1        2.0000           -0.6525346             -17.7564
       ...           ...                  ...                  ...
        36        2.0000           -0.4334807             -11.7956
        37        2.0000           -0.4287581             -11.6671
        38        2.0000           -0.4265353             -11.6066
        39        2.0000           -0.4240931             -11.5402
        40        2.0000           -0.4191283             -11.4051
        41        2.0000           -0.4135458             -11.2532
        42        2.0000           -0.4132470             -11.2450
        43        2.0000           -0.4095529             -11.1445
        44        2.0000           -0.3983174             -10.8388
        45        2.0000           -0.3970407             -10.8040
        46        1.9996           -0.3775177             -10.2728
        47        1.0004           -0.3625186              -9.8646
        48        0.9999           -0.2613730              -7.1123 (HOMO)
        49        0.0001           -0.2428199              -6.6075 (LUMO)
        50                         -0.2168831              -5.9017
        51                         -0.2139008              -5.8205
        52                         -0.1946855              -5.2977
        53                         -0.1775366              -4.8310
        54                         -0.1174692              -3.1965
        55                         -0.0795924              -2.1658
        56                         -0.0507959              -1.3822
        57                          0.0653298               1.7777
        58                          0.0876680               2.3856
        59                          0.0933018               2.5389
       ...                                ...                  ...
        94                          0.7547508              20.5378
      -------------------------------------------------------------
                  HL-Gap            0.0185531 Eh            0.5049 eV

     #   Z          covCN         q      C6AA      α(0)
     1   6 C        2.918    -0.039    28.963     8.825
     2   6 C        2.911    -0.032    28.786     8.798
     3   6 C        2.906    -0.040    29.003     8.830
     4   6 C        3.035    -0.002    28.052     8.687
     5   6 C        3.043     0.007    27.825     8.652
     6   6 C        2.906    -0.042    29.043     8.837
     7   6 C        3.839    -0.064    21.706     6.628
     8   6 C        3.037     0.002    27.944     8.670
     9   6 C        3.030    -0.003    28.064     8.689
    10   6 C        2.908    -0.048    29.183     8.858
    11   6 C        2.902    -0.038    28.953     8.823
    12   6 C        3.033    -0.001    28.012     8.681
    13   6 C        3.016    -0.011    28.270     8.722
    14   6 C        3.022    -0.002    28.046     8.687
    15   6 C        2.913    -0.039    28.966     8.825
    16   6 C        2.917    -0.035    28.876     8.812
    17   6 C        2.920    -0.036    28.885     8.813
    18   6 C        2.912    -0.040    29.006     8.831
    19   6 C        3.046     0.005    27.859     8.657
    20   6 C        3.832    -0.063    21.682     6.625
    21   1 H        0.926     0.028     2.621     2.532
    22   1 H        0.925     0.027     2.633     2.537
    23   1 H        0.926     0.027     2.626     2.534
    24   1 H        0.926     0.028     2.617     2.530
    25   1 H        0.924     0.061     2.184     2.311
    26   1 H        0.924     0.061     2.184     2.311
    27   1 H        0.926     0.029     2.603     2.523
    28   1 H        0.925     0.029     2.595     2.519
    29   1 H        0.926     0.032     2.551     2.498
    30   1 H        0.926     0.027     2.627     2.535
    31   1 H        0.926     0.028     2.622     2.532
    32   1 H        0.926     0.028     2.617     2.530
    33   1 H        0.924     0.058     2.227     2.334
    34   1 H        0.924     0.058     2.227     2.334

molecular dipole:
                 x           y           z       tot (Debye)
 q only:        0.334      -0.002       0.000
   full:        0.358      -0.016       0.000       0.911

 projected vibrational frequencies (cm⁻¹)
eigval :       -0.00    -0.00    -0.00     0.00     0.00     0.00
eigval :       40.84    58.59   105.62   108.94   111.87   201.36
eigval :      220.71   230.42   242.68   254.67   315.79   359.31
eigval :      390.48   400.45   412.55   438.25   445.30   452.73
eigval :      500.17   532.91   537.08   543.85   555.38   594.50
eigval :      599.77   642.29   669.98   674.55   705.03   714.13
eigval :      716.44   737.47   756.73   804.98   822.17   836.81
eigval :      857.54   872.12   886.17   896.80   902.07   909.37
eigval :      910.57   915.69   919.22   967.60   985.79  1042.56
eigval :     1072.75  1079.67  1084.22  1100.80  1112.71  1117.26
eigval :     1144.13  1165.90  1176.63  1180.36  1184.09  1194.74
eigval :     1206.67  1238.93  1247.28  1268.47  1284.66  1314.93
eigval :     1331.49  1354.47  1363.47  1370.85  1403.85  1415.37
eigval :     1423.79  1428.24  1434.85  1454.31  1482.65  1500.70
eigval :     1542.74  1554.62  1597.43  1618.06  2884.46  2920.59
eigval :     2930.77  2955.08  3061.37  3062.95  3065.64  3066.04
eigval :     3068.39  3082.51  3083.17  3091.88  3100.51  3102.90

   temp. (K)  partition function   enthalpy   heat capacity  entropy
                                   cal/mol     cal/K/mol   cal/K/mol   J/K/mol
 298.15  VIB  0.263E+05             7768.120     56.939     44.811
         ROT  0.490E+07              888.752      2.981     33.596
         INT  0.129E+12             8656.872     59.920     78.407
         TR   0.392E+28             1481.254      4.968     42.481
         TOT                       10138.1258    64.8877   120.8876   505.7939

       T/K    H(0)-H(T)+PV         H(T)/Eh          T*S/Eh         G(T)/Eh
   ------------------------------------------------------------------------
    298.15    0.161561E-01    0.277525E+00    0.574376E-01    0.220087E+00
   ------------------------------------------------------------------------

         :::::::::::::::::::::::::::::::::::::::::::::::::::::
         ::                  THERMODYNAMIC                  ::
         :::::::::::::::::::::::::::::::::::::::::::::::::::::
         :: total free energy         -49.676791703228 Eh   ::
         ::.................................................::
         :: total energy              -49.896879012354 Eh   ::
         :: zero point energy           0.261368797083 Eh   ::
         :: G(RRHO) w/o ZPVE           -0.041281487957 Eh   ::
         :: G(RRHO) contrib.            0.220087309126 Eh   ::
         :::::::::::::::::::::::::::::::::::::::::::::::::::::

           -------------------------------------------------
          | TOTAL ENERGY              -49.896879012354 Eh   |
          | TOTAL ENTHALPY            -49.619354083382 Eh   |
          | TOTAL FREE ENERGY         -49.676791703228 Eh   |
          | GRADIENT NORM               0.000079103480 Eh/α |
          | HOMO-LUMO GAP               0.504856233353 eV   |
           -------------------------------------------------

 * finished run on 2025/09/05 at 11:56:06.630
