   * xtb version 6.7.1 (edcfbbe) compiled by 'albert@albert-system' on 2024-07-22

   ID    Z sym.   atoms
    1    6 C      1-33, 35-43, 45-54
    2    7 N      34, 44
    3    1 H      55-104

          program call               : xtb data2507/toluene/TBTAC/TBTAC_toluene_S0_finalOpt.xtbopt.xyz --gfn 2 --uhf 2 --gbsa toluene --ohess vtight --parallel 40 --molden --ceasefiles --namespace data2507/toluene/TBTAC/TBTAC_toluene_T1_preOpt
      * Solvation model:               GBSA
        Solvent                        toluene
        Solvent mass                       9.2140E+01 g/mol
          :  Hamiltonian                  GFN2-xTB          :
 * total energy  :  -142.7284376 Eh     change       -0.1048173E-07 Eh
 * total energy  :  -142.7343862 Eh     change       -0.5948593E-02 Eh
 * total energy  :  -142.7364218 Eh     change       -0.2035622E-02 Eh
 * total energy  :  -142.7367138 Eh     change       -0.2919739E-03 Eh
 * total energy  :  -142.7370043 Eh     change       -0.2905614E-03 Eh
 * total energy  :  -142.7371528 Eh     change       -0.1484957E-03 Eh
 * total energy  :  -142.7372797 Eh     change       -0.1268280E-03 Eh
 * total energy  :  -142.7373551 Eh     change       -0.7539943E-04 Eh
 * total energy  :  -142.7374067 Eh     change       -0.5167811E-04 Eh
 * total energy  :  -142.7374475 Eh     change       -0.4077935E-04 Eh
 * total energy  :  -142.7379075 Eh     change       -0.2743186E-06 Eh
 * total energy  :  -142.7379077 Eh     change       -0.2353693E-06 Eh
 * total energy  :  -142.7379080 Eh     change       -0.2577922E-06 Eh
 * total energy  :  -142.7379083 Eh     change       -0.2860946E-06 Eh
 * total energy  :  -142.7379085 Eh     change       -0.2200958E-06 Eh
 * total energy  :  -142.7379087 Eh     change       -0.2215983E-06 Eh
 * total energy  :  -142.7379090 Eh     change       -0.2373602E-06 Eh
 * total energy  :  -142.7379092 Eh     change       -0.2788332E-06 Eh
 * total energy  :  -142.7379092 Eh     change       -0.1109956E-07 Eh
   *** GEOMETRY OPTIMIZATION CONVERGED AFTER 68 ITERATIONS ***

 final structure:
================
104
 xtb: 6.7.1 (edcfbbe)
C            2.41964739302914       -3.06871043364214        2.33171692517438
C            3.20428478051100       -2.86154902837393        1.07108831682435
C            4.52317580761942       -3.29465497147510        1.00562942546301
C            5.29216349624105       -3.09140210314244       -0.12477691655001
C            4.74785310184177       -2.43405643040639       -1.21513068855753
C            3.43639769602478       -2.00374333575219       -1.16585141982391
C            2.65010340272508       -2.22139636929798       -0.03788775063057
C            1.24920879339494       -1.73016189511162       -0.06035005334739
C            1.02421851029941       -0.35732218839410       -0.04577597672481
C            2.16286875826735        0.57552482181046       -0.05156884082712
C            2.29916343380779        1.52350749002955       -1.06300734365486
C            3.37870617433029        2.38119675734611       -1.08773524898193
C            4.36846799207059        2.34132036176198       -0.10722806964346
C            5.54166865678936        3.30690073467391       -0.18159934960980
C            6.53590416340748        3.11883513364731        0.96849136731566
C            5.01078471930555        4.74703095906197       -0.12496068134523
C            6.29284280771663        3.08071635281564       -1.50224108387446
C            4.22181431887892        1.40038349991892        0.90475068017906
C            3.14378447453561        0.53535047661790        0.93306145154259
C           -0.30663533445128        0.13753481397380       -0.01477100653741
C           -0.51335560599791        1.59602502987618       -0.01378140428690
C           -1.27929053640417        2.19480394732630       -1.01017805437233
C           -1.45797654396742        3.56398773718541       -1.05020900376563
C           -0.87951721733193        4.39726934026542       -0.09850559876179
C           -1.05482394127588        5.90844539247091       -0.09939442847886
C           -1.72776355174471        6.33470137150041        1.21414048895395
C           -1.92391838073091        6.40230396110298       -1.26011299466311
C            0.32430813420207        6.57404803210872       -0.21822352049890
C           -0.10875265750604        3.79325727062623        0.89231467659925
C            0.07799601746473        2.42658657969937        0.93526855998205
C           -1.37860610935359       -0.74842478770251       -0.06298652861817
C           -1.14572839521311       -2.13419255849732       -0.31697655126653
C           -2.23540423573407       -2.90164794994284       -0.79250619295850
N           -2.10244270129940       -4.19715554986932       -1.22266443093937
C           -3.53326903788980       -2.33241559558450       -0.89298716684389
C           -3.82239839332742       -1.07540712238159       -0.43094763527115
C           -5.16064903012424       -0.50640674192172       -0.43338261237036
C           -6.18626593127276       -1.04285225638268       -1.20564687177265
C           -7.46769689944237       -0.50809037491636       -1.18737306446655
C           -7.74137584914170        0.59373791348471       -0.39444819080198
C           -6.74069789341323        1.16118752325111        0.36806027019275
C           -5.43598318817215        0.63348431477539        0.36877726318286
C           -4.38167419024314        1.19912080250184        1.14602141380091
N           -4.60128336674627        2.26698038991964        1.98034044767004
C           -3.06591386495373        0.73915296656536        0.98400759818024
C           -2.74897258519480       -0.30807081545638        0.15014643398887
C            0.18396463662836       -2.63331209885561       -0.18430588647395
C            0.47925217070177       -4.07520789653163       -0.13130683988963
C            1.35382704528755       -4.64288731551158       -1.06171318592093
C            1.68586063782204       -5.98244946628426       -1.00905375515855
C            1.14839083855264       -6.78523964803403       -0.01622313238553
C            0.28134097485539       -6.23431396013448        0.91278027177464
C           -0.06322712915702       -4.89123170692937        0.87857225845863
C           -0.99772423568068       -4.33969964990584        1.91311702589670
H            1.99982470945694       -4.07404642923260        2.35015983083296
H            3.06303800284801       -2.95611794425502        3.20283951908507
H            1.59997874993646       -2.35716331799110        2.40022604275135
H            4.95360036376220       -3.79389139069241        1.86313636672707
H            6.31616308552852       -3.43601259482445       -0.15265573808058
H            5.34261040951229       -2.25703068831806       -2.09997851414779
H            3.00395503491643       -1.49009145008734       -2.01404468973244
H            1.55522781494511        1.57635507409118       -1.84588709529323
H            3.44541274589234        3.09541694872581       -1.89556948530566
H            7.35271250747135        3.83029735990081        0.86163462620315
H            6.06005650881902        3.29569883308651        1.93055036171813
H            6.95884136138198        2.11660984460262        0.95901256560359
H            4.46556965869697        4.90927209344233        0.80290259113969
H            4.33938320713307        4.95357730114216       -0.95385502564486
H            5.83681224287601        5.45414018241566       -0.16945264485700
H            5.65252939654298        3.27078089530613       -2.35936474253733
H            7.15220518544862        3.74558898977452       -1.56432959168588
H            6.64543695210953        2.05251348706819       -1.56181086461614
H            4.95057676252202        1.32454128334122        1.69589366770535
H            3.05741184228962       -0.17356872621446        1.74345099084050
H           -1.73853692845856        1.57397193736565       -1.76754506667862
H           -2.05889892607039        3.97256587071340       -1.84663767396587
H           -2.70165384417747        5.85783931011296        1.30716964213032
H           -1.12606733103784        6.05622346084537        2.07504731454471
H           -1.86793677868194        7.41372263547100        1.23076980925756
H           -1.47743421550722        6.14851029202860       -2.21905938550390
H           -2.92375788918934        5.97699946652991       -1.20894886858783
H           -2.01561425527047        7.48570033610893       -1.20872785498736
H            0.81331965583876        6.26096894662613       -1.13876451763180
H            0.21896740886795        7.65711837706154       -0.23404917159353
H            0.96773615291433        6.30610410265070        0.61534902672055
H            0.36424561446298        4.39630318327589        1.65369380525012
H            0.67654031349238        1.99391511277409        1.72474798755410
H           -2.83773719639513       -4.56023182049174       -1.80724799535884
H           -1.17296550704255       -4.54825247121716       -1.38863079554520
H           -4.30734098537133       -2.96186055385616       -1.30518382299249
H           -5.98900858148281       -1.88511269764760       -1.85056637123188
H           -8.24336633644027       -0.94898326927666       -1.79608429345631
H           -8.73578519782370        1.01663411809688       -0.37717484764467
H           -6.96974457107821        2.03656543636452        0.95730840686901
H           -5.53235434292022        2.42090888769153        2.32882219988930
H           -3.85195238153167        2.50687623279637        2.60906801177098
H           -2.28892208208415        1.23714903043074        1.54318396315330
H            1.76166232294913       -4.02103639729378       -1.84527295874882
H            2.36367569816823       -6.39799602066814       -1.74077051378761
H            1.40534815368282       -7.83315370278119        0.03652694556712
H           -0.12999922307834       -6.86082226463235        1.69243673847168
H           -0.76261070980714       -3.30308879212677        2.14159337357108
H           -2.02445513495740       -4.37334422499894        1.54844933537453
H           -0.94387451889099       -4.92734413345866        2.82707319723851

          :  Hamiltonian                  GFN2-xTB          :
         :: gradient norm              0.000038773315 Eh/a0 ::
         :: HOMO-LUMO gap              0.642484442966 eV    ::
         :: SCC energy              -145.327767256019 Eh    ::
         :: -> dispersion             -0.153471532582 Eh    ::
         :: -> Gsolv                  -0.052040244611 Eh    ::
         :: repulsion energy           2.589858013561 Eh    ::

    * Orbital Energies and Occupations

         #    Occupation            Energy/Eh            Energy/eV
      -------------------------------------------------------------
         1        2.0000           -0.6543132             -17.8048
       ...           ...                  ...                  ...
       123        2.0000           -0.3955682             -10.7640
       124        2.0000           -0.3939636             -10.7203
       125        2.0000           -0.3919733             -10.6661
       126        2.0000           -0.3908891             -10.6366
       127        2.0000           -0.3894807             -10.5983
       128        2.0000           -0.3865881             -10.5196
       129        2.0000           -0.3829543             -10.4207
       130        2.0000           -0.3800999             -10.3430
       131        2.0000           -0.3776017             -10.2751
       132        2.0000           -0.3684123             -10.0250
       133        2.0000           -0.3629254              -9.8757
       134        1.0000           -0.3274867              -8.9114
       135        1.0000           -0.2638537              -7.1798 (HOMO)
       136        0.0000           -0.2402428              -6.5373 (LUMO)
       137                         -0.2366638              -6.4399
       138                         -0.2177949              -5.9265
       139                         -0.2171658              -5.9094
       140                         -0.2145536              -5.8383
       141                         -0.2126201              -5.7857
       142                         -0.2110594              -5.7432
       143                         -0.2095877              -5.7032
       144                         -0.2068158              -5.6277
       145                         -0.2053054              -5.5866
       146                         -0.1888159              -5.1379
       ...                                ...                  ...
       266                          0.7347099              19.9925
      -------------------------------------------------------------
                  HL-Gap            0.0236108 Eh            0.6425 eV

     #   Z          covCN         q      C6AA      α(0)
     1   6 C        3.758    -0.102    22.503     6.763
     2   6 C        2.968     0.012    27.752     8.641
     3   6 C        2.926    -0.043    29.057     8.840
     4   6 C        2.918    -0.036    28.906     8.817
     5   6 C        2.918    -0.038    28.937     8.821
     6   6 C        2.927    -0.034    28.847     8.808
     7   6 C        2.981     0.007    27.867     8.659
     8   6 C        2.979    -0.003    28.097     8.695
     9   6 C        2.979    -0.015    28.387     8.740
    10   6 C        2.976     0.009    27.810     8.650
    11   6 C        2.924    -0.036    28.899     8.816
    12   6 C        2.926    -0.038    28.945     8.823
    13   6 C        2.973     0.003    27.961     8.674
    14   6 C        3.902     0.024    20.109     6.374
    15   6 C        3.761    -0.105    22.561     6.771
    16   6 C        3.761    -0.103    22.511     6.764
    17   6 C        3.761    -0.103    22.516     6.764
    18   6 C        2.924    -0.043    29.069     8.842
    19   6 C        2.924    -0.039    28.969     8.827
    20   6 C        2.976    -0.016    28.397     8.741
    21   6 C        2.975     0.011    27.769     8.644
    22   6 C        2.925    -0.037    28.916     8.818
    23   6 C        2.924    -0.042    29.046     8.838
    24   6 C        2.973     0.003    27.962     8.674
    25   6 C        3.902     0.024    20.107     6.374
    26   6 C        3.761    -0.105    22.555     6.770
    27   6 C        3.761    -0.106    22.575     6.773
    28   6 C        3.761    -0.103    22.509     6.763
    29   6 C        2.926    -0.039    28.965     8.826
    30   6 C        2.922    -0.039    28.960     8.825
    31   6 C        2.982    -0.006    28.160     8.705
    32   6 C        2.976    -0.020    28.499     8.757
    33   6 C        2.893     0.067    26.509     8.442
    34   7 N        2.642    -0.258    26.696     7.674
    35   6 C        2.921    -0.067    29.666     8.932
    36   6 C        2.974    -0.003    28.084     8.693
    37   6 C        2.979     0.002    27.971     8.675
    38   6 C        2.921    -0.042    29.049     8.838
    39   6 C        2.916    -0.040    29.003     8.831
    40   6 C        2.914    -0.035    28.860     8.809
    41   6 C        2.920    -0.047    29.177     8.858
    42   6 C        2.980    -0.009    28.227     8.715
    43   6 C        2.893     0.063    26.584     8.453
    44   7 N        2.641    -0.250    26.518     7.648
    45   6 C        2.920    -0.063    29.566     8.917
    46   6 C        2.979    -0.000    28.024     8.684
    47   6 C        2.973    -0.020    28.495     8.756
    48   6 C        2.977    -0.002    28.064     8.690
    49   6 C        2.923    -0.044    29.093     8.845
    50   6 C        2.917    -0.041    29.010     8.832
    51   6 C        2.917    -0.041    29.015     8.833
    52   6 C        2.924    -0.045    29.119     8.849
    53   6 C        2.967     0.010    27.793     8.647
    54   6 C        3.758    -0.108    22.609     6.779
    55   1 H        0.925     0.049     2.331     2.388
    56   1 H        0.925     0.041     2.440     2.443
    57   1 H        0.925     0.040     2.451     2.448
    58   1 H        0.925     0.028     2.622     2.532
    59   1 H        0.926     0.024     2.666     2.553
    60   1 H        0.926     0.023     2.692     2.566
    61   1 H        0.925     0.019     2.748     2.592
    62   1 H        0.925     0.018     2.770     2.603
    63   1 H        0.926     0.023     2.683     2.561
    64   1 H        0.925     0.036     2.497     2.471
    65   1 H        0.925     0.035     2.519     2.482
    66   1 H        0.925     0.034     2.528     2.486
    67   1 H        0.925     0.032     2.562     2.503
    68   1 H        0.925     0.036     2.508     2.477
    69   1 H        0.925     0.038     2.481     2.463
    70   1 H        0.925     0.035     2.517     2.481
    71   1 H        0.925     0.038     2.482     2.464
    72   1 H        0.925     0.031     2.576     2.510
    73   1 H        0.926     0.031     2.573     2.508
    74   1 H        0.926     0.023     2.689     2.564
    75   1 H        0.925     0.018     2.766     2.601
    76   1 H        0.926     0.032     2.552     2.498
    77   1 H        0.925     0.034     2.533     2.489
    78   1 H        0.925     0.036     2.509     2.477
    79   1 H        0.925     0.038     2.478     2.462
    80   1 H        0.925     0.034     2.532     2.489
    81   1 H        0.925     0.036     2.504     2.474
    82   1 H        0.925     0.036     2.497     2.471
    83   1 H        0.925     0.031     2.578     2.511
    84   1 H        0.925     0.037     2.487     2.466
    85   1 H        0.925     0.035     2.512     2.478
    86   1 H        0.926     0.024     2.673     2.557
    87   1 H        0.926     0.018     2.757     2.597
    88   1 H        0.860     0.172     1.264     1.761
    89   1 H        0.860     0.180     1.212     1.724
    90   1 H        0.926     0.029     2.598     2.521
    91   1 H        0.926     0.027     2.631     2.536
    92   1 H        0.926     0.024     2.675     2.558
    93   1 H        0.926     0.025     2.659     2.550
    94   1 H        0.926     0.024     2.670     2.555
    95   1 H        0.860     0.176     1.236     1.742
    96   1 H        0.860     0.174     1.249     1.751
    97   1 H        0.926     0.031     2.575     2.510
    98   1 H        0.926     0.020     2.729     2.583
    99   1 H        0.926     0.021     2.724     2.581
   100   1 H        0.926     0.023     2.684     2.562
   101   1 H        0.925     0.028     2.615     2.529
   102   1 H        0.925     0.043     2.404     2.425
   103   1 H        0.925     0.049     2.330     2.387
   104   1 H        0.925     0.042     2.424     2.435

molecular dipole:
                 x           y           z       tot (Debye)
 q only:       -1.164       0.387       0.786
   full:       -1.077       0.289       0.705       3.354

 projected vibrational frequencies (cm⁻¹)
eigval :       -0.00    -0.00     0.00     0.00     0.00     0.00
eigval :       11.44    17.42    20.95    26.12    27.09    34.48
eigval :       36.27    41.24    44.59    49.65    59.68    66.26
eigval :       73.89    82.21    86.58    94.98    95.39   101.11
eigval :      109.19   121.27   123.96   131.92   140.60   142.42
eigval :      145.86   161.25   162.44   173.30   174.60   178.08
eigval :      186.48   191.18   196.33   208.65   223.32   230.87
eigval :      233.23   242.79   244.07   256.01   270.31   272.91
eigval :      287.73   290.87   298.60   312.28   313.55   316.43
eigval :      322.08   324.46   336.39   351.86   356.52   358.46
eigval :      362.57   369.98   378.57   381.74   383.36   385.61
eigval :      388.84   400.40   408.32   417.13   427.99   431.03
eigval :      436.40   443.38   450.17   456.11   460.27   466.47
eigval :      467.42   474.55   487.80   496.02   498.06   506.35
eigval :      518.41   520.94   526.27   532.03   541.72   547.27
eigval :      549.60   553.64   563.91   590.60   598.24   600.88
eigval :      602.31   607.80   616.03   635.59   651.87   661.87
eigval :      663.52   682.81   691.07   694.61   701.34   706.95
eigval :      715.58   726.80   733.65   750.99   755.51   769.82
eigval :      770.95   788.87   799.32   803.11   810.25   815.25
eigval :      817.65   825.35   831.65   845.43   851.44   870.13
eigval :      873.64   875.30   879.21   880.98   881.23   883.48
eigval :      901.66   909.33   909.92   912.09   916.99   918.24
eigval :      923.80   923.87   929.35   930.53   931.03   959.02
eigval :      959.20   961.21   961.46   962.67   967.98   987.00
eigval :      994.33  1003.28  1005.66  1006.70  1013.84  1031.67
eigval :     1031.82  1034.07  1034.22  1035.02  1036.61  1040.38
eigval :     1072.16  1087.45  1099.21  1100.37  1107.84  1113.36
eigval :     1132.98  1144.47  1144.69  1151.81  1153.80  1157.33
eigval :     1170.82  1179.47  1180.03  1181.82  1184.80  1208.41
eigval :     1215.71  1218.42  1225.48  1225.81  1228.64  1232.13
eigval :     1232.26  1233.20  1244.98  1247.56  1253.79  1263.86
eigval :     1265.00  1267.47  1278.75  1282.97  1283.96  1284.96
eigval :     1291.44  1299.81  1312.56  1313.26  1315.51  1316.92
eigval :     1319.85  1354.56  1360.39  1373.89  1379.68  1385.51
eigval :     1393.09  1395.51  1399.12  1400.60  1402.12  1402.88
eigval :     1404.18  1404.58  1406.80  1409.40  1419.96  1425.45
eigval :     1426.83  1429.09  1432.67  1441.97  1445.75  1464.46
eigval :     1468.20  1472.03  1477.75  1479.98  1480.40  1486.10
eigval :     1487.88  1489.23  1489.96  1491.22  1492.25  1494.16
eigval :     1497.13  1498.59  1500.19  1501.61  1506.00  1507.69
eigval :     1510.52  1512.19  1517.68  1520.05  1527.63  1534.48
eigval :     1538.90  1555.34  1557.41  1559.59  1571.11  1581.39
eigval :     1584.14  1599.62  1600.05  1602.28  3000.82  3004.95
eigval :     3017.28  3017.44  3018.11  3019.21  3019.77  3021.72
eigval :     3023.32  3023.45  3024.32  3025.76  3027.40  3028.65
eigval :     3030.25  3031.14  3032.35  3033.55  3034.41  3040.71
eigval :     3043.95  3044.17  3047.75  3048.98  3057.67  3059.00
eigval :     3060.97  3061.04  3062.97  3064.96  3065.48  3067.26
eigval :     3067.64  3073.50  3076.78  3077.92  3078.79  3079.67
eigval :     3080.29  3081.73  3082.98  3087.49  3093.92  3095.97
eigval :     3103.90  3105.64  3432.71  3456.66  3500.70  3515.43

   temp. (K)  partition function   enthalpy   heat capacity  entropy
                                   cal/mol     cal/K/mol   cal/K/mol   J/K/mol
 298.15  VIB  0.184E+23            30313.838    188.953    186.766
         ROT  0.946E+08              888.752      2.981     39.476
         INT  0.174E+31            31202.590    191.934    226.242
         TR   0.180E+29             1481.254      4.968     45.510
         TOT                       32683.8441   196.9023   271.7523  1137.0118

       T/K    H(0)-H(T)+PV         H(T)/Eh          T*S/Eh         G(T)/Eh
   ------------------------------------------------------------------------
    298.15    0.520850E-01    0.903010E+00    0.129118E+00    0.773892E+00
   ------------------------------------------------------------------------

         :::::::::::::::::::::::::::::::::::::::::::::::::::::
         ::                  THERMODYNAMIC                  ::
         :::::::::::::::::::::::::::::::::::::::::::::::::::::
         :: total free energy        -141.964017554126 Eh   ::
         ::.................................................::
         :: total energy             -142.737909239590 Eh   ::
         :: zero point energy           0.850924969763 Eh   ::
         :: G(RRHO) w/o ZPVE           -0.077033284299 Eh   ::
         :: G(RRHO) contrib.            0.773891685464 Eh   ::
         :::::::::::::::::::::::::::::::::::::::::::::::::::::

           -------------------------------------------------
          | TOTAL ENERGY             -142.737909239590 Eh   |
          | TOTAL ENTHALPY           -141.834899248854 Eh   |
          | TOTAL FREE ENERGY        -141.964017554126 Eh   |
          | GRADIENT NORM               0.000039067578 Eh/α |
          | HOMO-LUMO GAP               0.642483440498 eV   |
           -------------------------------------------------

 * finished run on 2025/08/25 at 00:51:29.772
