   * xtb version 6.7.1 (edcfbbe) compiled by 'albert@albert-system' on 2024-07-22

   ID    Z sym.   atoms
    1    6 C      1-33, 35-43, 45-54
    2    7 N      34, 44
    3    1 H      55-104

          program call               : xtb data2507/toluene/TBTAC/TBTAC_toluene_S0_crest.xyz --gfn 2 --gbsa toluene --ohess vtight --parallel 40 --molden --ceasefiles --namespace data2507/toluene/TBTAC/TBTAC_toluene_S0_finalOpt
      * Solvation model:               GBSA
        Solvent                        toluene
        Solvent mass                       9.2140E+01 g/mol
          :  Hamiltonian                  GFN2-xTB          :
 * total energy  :  -142.8081900 Eh     change       -0.2823015E-08 Eh
 * total energy  :  -142.8082860 Eh     change       -0.9600621E-04 Eh
 * total energy  :  -142.8083706 Eh     change       -0.8458082E-04 Eh
 * total energy  :  -142.8083957 Eh     change       -0.2508191E-04 Eh
 * total energy  :  -142.8084450 Eh     change       -0.4927014E-04 Eh
 * total energy  :  -142.8084608 Eh     change       -0.1587955E-04 Eh
 * total energy  :  -142.8085011 Eh     change       -0.4021842E-04 Eh
 * total energy  :  -142.8085185 Eh     change       -0.1745261E-04 Eh
 * total energy  :  -142.8085435 Eh     change       -0.2495882E-04 Eh
 * total energy  :  -142.8085625 Eh     change       -0.1907644E-04 Eh
 * total energy  :  -142.8086615 Eh     change       -0.5296240E-06 Eh
 * total energy  :  -142.8086619 Eh     change       -0.4341041E-06 Eh
 * total energy  :  -142.8086624 Eh     change       -0.4101965E-06 Eh
 * total energy  :  -142.8086628 Eh     change       -0.4945503E-06 Eh
 * total energy  :  -142.8086634 Eh     change       -0.5652083E-06 Eh
 * total energy  :  -142.8086638 Eh     change       -0.4372315E-06 Eh
 * total energy  :  -142.8086640 Eh     change       -0.1693861E-06 Eh
 * total energy  :  -142.8086643 Eh     change       -0.2584282E-06 Eh
 * total energy  :  -142.8086643 Eh     change       -0.1838998E-08 Eh
   *** GEOMETRY OPTIMIZATION CONVERGED AFTER 44 ITERATIONS ***

 final structure:
================
104
 xtb: 6.7.1 (edcfbbe)
C            2.39665407593743       -3.02959220557161        2.35730721662150
C            3.16805974123059       -2.79807381324740        1.09320988806500
C            4.49538287357539       -3.20358499011619        1.01688530424951
C            5.25063856719902       -2.98427395840595       -0.11935029423736
C            4.68407670111848       -2.33835994569669       -1.20526139352246
C            3.36489820195801       -1.93479982045890       -1.14487390757759
C            2.59274214685062       -2.16968437833643       -0.01073075917327
C            1.18289944721319       -1.70308595477347       -0.02409290206787
C            0.93732177760354       -0.31848753360562        0.03115434173920
C            2.09323077379939        0.60400549554424        0.03144566824622
C            2.30050758186703        1.48331682657341       -1.02508956876847
C            3.40228763026558        2.31396494690291       -1.04417429991952
C            4.34230095016143        2.30470235287354       -0.01598138835895
C            5.54965122364702        3.22728505587570       -0.09201467044159
C            6.49197747037729        3.06721512465306        1.10497047253772
C            5.06611463566417        4.68434444550783       -0.13012297799673
C            6.34279891633383        2.90757958211601       -1.36808934048638
C            4.12061978912566        1.43175651321681        1.04178444663170
C            3.01889033943583        0.59592527940675        1.06564077673762
C           -0.36353713215892        0.15753046940202        0.06308525957058
C           -0.55485354201011        1.62222717717286        0.02467298296084
C           -1.25719373910873        2.19986795520140       -1.02709031877322
C           -1.39709330612461        3.57195119760378       -1.12189672058065
C           -0.84168712788759        4.42255712703794       -0.17311465861448
C           -0.97053933125741        5.93696336430347       -0.23807917747772
C           -1.67692960402362        6.43682872984011        1.03095264992257
C           -1.78023583889901        6.40985029652485       -1.44919989709401
C            0.43350332684414        6.55291690882091       -0.32986950919711
C           -0.13625575405216        3.83618869806214        0.87539459514364
C            0.01144205368251        2.46736286701776        0.97388515457000
C           -1.45538064592948       -0.74278880410327       -0.01104338996575
C           -1.19402870553899       -2.10643840885020       -0.31142799738256
C           -2.29190055139572       -2.90678031009056       -0.77632852140399
N           -2.11339038107156       -4.21420970374155       -1.19544605588941
C           -3.55678417745128       -2.37772809726101       -0.81400048017811
C           -3.87024535775913       -1.10987507367071       -0.28599101210329
C           -5.21819777264784       -0.61170399433500       -0.21681232515565
C           -6.30543211569700       -1.29355285849163       -0.79268850826105
C           -7.57977958694577       -0.78839722701237       -0.75494441615170
C           -7.82945109982299        0.43831005374761       -0.13804903009152
C           -6.79658302414479        1.12600360653269        0.44333272815122
C           -5.48392682420498        0.62151225894128        0.43162371211728
C           -4.40611233800189        1.30949863033423        1.07486263923913
N           -4.64716303430757        2.47319986132020        1.79436009819331
C           -3.12534132687360        0.85157094284951        0.92524095431027
C           -2.81533456461669       -0.30946164263270        0.18641400393211
C            0.13557516733086       -2.58976373161192       -0.21104762228481
C            0.47861019903741       -4.03149222595246       -0.25668421276463
C            1.29533732520759       -4.51220232481517       -1.27763687285941
C            1.69676018769744       -5.83479564910857       -1.30724086569480
C            1.28725624541045       -6.69553183586555       -0.30373992902641
C            0.47080011045802       -6.22734922426694        0.71040561509038
C            0.05422022376677       -4.90319525509538        0.75434454850559
C           -0.85302745427039       -4.44684524319782        1.85681663280131
H            2.01462380966028       -4.04962361498540        2.37875148106719
H            3.03929554386324       -2.89251117637951        3.22536262037972
H            1.55203115605851       -2.34848023134692        2.42881552992004
H            4.94251328242857       -3.69442980103127        1.87050276161259
H            6.28132531040103       -3.30716180232330       -0.15565105315568
H            5.26765588644757       -2.14898873514970       -2.09479779450314
H            2.91651109974088       -1.42776360991073       -1.98859078287561
H            1.59381352018400        1.50893693799906       -1.84300097234661
H            3.52650825914462        2.97945666907411       -1.88574712798551
H            7.33753763212114        3.74337653836704        0.99320728460816
H            5.98731726755999        3.31274924206927        2.03669941565171
H            6.87806241278301        2.05195633765141        1.16487874172031
H            4.49262198922320        4.91268130882300        0.76612561966281
H            4.43391463744227        4.86859291764303       -0.99432224367337
H            5.91685670006326        5.36113294734047       -0.17804741108942
H            5.74667649305745        3.08146781495593       -2.25975823441783
H            7.23093265597450        3.53389047668904       -1.42482401984091
H            6.65422774915635        1.86451588947967       -1.36438527908171
H            4.80929279728982        1.38417407263177        1.86976403016496
H            2.87477145548046       -0.06692404846113        1.90647193255053
H           -1.69849237045590        1.56335352721710       -1.78177329821505
H           -1.95100673971058        3.96687652175838       -1.95798255870580
H           -2.66889142374425        5.99543233111755        1.10602263226491
H           -1.11711380221525        6.17610544679237        1.92504470423231
H           -1.78207868693949        7.51942905685134        0.99887334443063
H           -1.30497249615991        6.10861485404864       -2.38012516481287
H           -2.79286699176903        6.01369776768260       -1.42104739117286
H           -1.84336015860671        7.49639150494310       -1.44070194425563
H            0.94856674490467        6.18147079339976       -1.21366422416079
H            0.36441704637120        7.63666632858127       -0.39963675665843
H            1.03286326445030        6.30461221307101        0.54165983855599
H            0.31573187179471        4.45416404690529        1.63719332773861
H            0.55813583862684        2.04644571822629        1.80597520424825
H           -2.88454927970192       -4.59234772996961       -1.72353540519865
H           -1.20545678547262       -4.45814193285689       -1.55470930369068
H           -4.33915649155922       -2.99843773191017       -1.22326992559429
H           -6.14333225261353       -2.23353865078610       -1.29591571101530
H           -8.39190301979463       -1.33454462233211       -1.21336244091414
H           -8.83134796316770        0.84263378979341       -0.12492115238401
H           -6.99099854171457        2.08649710836123        0.89714583121672
H           -5.52280455570323        2.50984240285157        2.29265693977095
H           -3.86341506276931        2.77467896492718        2.35423063359463
H           -2.33522023630477        1.37870733337388        1.43500775530285
H            1.60806426602852       -3.83870514173974       -2.06271183527805
H            2.33029707260205       -6.18803664251063       -2.10771446141641
H            1.60139999753922       -7.72913147029945       -0.31174746536027
H            0.15118315864675       -6.90305383903295        1.49148624561362
H           -0.68790197783713       -3.40079379579664        2.10060243257363
H           -1.89111429142432       -4.55302656846985        1.54184569595512
H           -0.70608574677895       -5.05002239042721        2.75003637625318

          :  Hamiltonian                  GFN2-xTB          :
         :: gradient norm              0.000030411569 Eh/a0 ::
         :: HOMO-LUMO gap              2.072914190112 eV    ::
         :: SCC energy              -145.410879504014 Eh    ::
         :: -> dispersion             -0.153706957754 Eh    ::
         :: -> Gsolv                  -0.051813396911 Eh    ::
         :: repulsion energy           2.602215227045 Eh    ::

    * Orbital Energies and Occupations

         #    Occupation            Energy/Eh            Energy/eV
      -------------------------------------------------------------
         1        2.0000           -0.6513723             -17.7247
       ...           ...                  ...                  ...
       122        2.0000           -0.3986283             -10.8472
       123        2.0000           -0.3973715             -10.8130
       124        2.0000           -0.3961054             -10.7786
       125        2.0000           -0.3948454             -10.7443
       126        2.0000           -0.3924980             -10.6804
       127        2.0000           -0.3919442             -10.6653
       128        2.0000           -0.3865323             -10.5181
       129        2.0000           -0.3835050             -10.4357
       130        2.0000           -0.3816504             -10.3852
       131        2.0000           -0.3778005             -10.2805
       132        2.0000           -0.3721727             -10.1273
       133        2.0000           -0.3649670              -9.9313
       134        2.0000           -0.3328307              -9.0568 (HOMO)
       135                         -0.2566525              -6.9839 (LUMO)
       136                         -0.2437491              -6.6328
       137                         -0.2352493              -6.4015
       138                         -0.2201061              -5.9894
       139                         -0.2195341              -5.9738
       140                         -0.2171025              -5.9077
       141                         -0.2161418              -5.8815
       142                         -0.2137150              -5.8155
       143                         -0.2110600              -5.7432
       144                         -0.2102927              -5.7224
       145                         -0.2064619              -5.6181
       ...                                ...                  ...
       266                          0.7215003              19.6330
      -------------------------------------------------------------
                  HL-Gap            0.0761782 Eh            2.0729 eV

     #   Z          covCN         q      C6AA      α(0)
     1   6 C        3.758    -0.104    22.529     6.767
     2   6 C        2.968     0.012    27.741     8.639
     3   6 C        2.926    -0.042    29.046     8.838
     4   6 C        2.919    -0.036    28.889     8.814
     5   6 C        2.918    -0.037    28.924     8.819
     6   6 C        2.927    -0.033    28.832     8.806
     7   6 C        2.981     0.005    27.901     8.665
     8   6 C        2.986    -0.003    28.103     8.696
     9   6 C        2.984    -0.006    28.163     8.705
    10   6 C        2.977     0.010    27.798     8.648
    11   6 C        2.924    -0.035    28.874     8.812
    12   6 C        2.927    -0.037    28.918     8.819
    13   6 C        2.973     0.005    27.895     8.663
    14   6 C        3.902     0.025    20.104     6.373
    15   6 C        3.761    -0.106    22.576     6.773
    16   6 C        3.761    -0.103    22.523     6.765
    17   6 C        3.761    -0.104    22.527     6.766
    18   6 C        2.925    -0.042    29.044     8.838
    19   6 C        2.925    -0.037    28.915     8.818
    20   6 C        2.977    -0.006    28.157     8.704
    21   6 C        2.978     0.013    27.711     8.635
    22   6 C        2.925    -0.034    28.845     8.808
    23   6 C        2.924    -0.040    29.004     8.832
    24   6 C        2.973     0.006    27.886     8.662
    25   6 C        3.902     0.025    20.102     6.373
    26   6 C        3.761    -0.105    22.559     6.771
    27   6 C        3.761    -0.107    22.588     6.775
    28   6 C        3.761    -0.103    22.521     6.765
    29   6 C        2.926    -0.038    28.946     8.823
    30   6 C        2.922    -0.038    28.936     8.821
    31   6 C        2.982    -0.006    28.171     8.706
    32   6 C        2.981    -0.015    28.390     8.740
    33   6 C        2.891     0.070    26.437     8.430
    34   7 N        2.642    -0.296    27.636     7.808
    35   6 C        2.925    -0.079    29.974     8.978
    36   6 C        2.979    -0.008    28.221     8.714
    37   6 C        2.980     0.000    28.011     8.682
    38   6 C        2.921    -0.037    28.919     8.819
    39   6 C        2.916    -0.036    28.904     8.816
    40   6 C        2.916    -0.036    28.902     8.816
    41   6 C        2.920    -0.039    28.975     8.827
    42   6 C        2.987    -0.009    28.233     8.716
    43   6 C        2.893     0.064    26.561     8.450
    44   7 N        2.640    -0.295    27.601     7.803
    45   6 C        2.923    -0.074    29.854     8.960
    46   6 C        2.981    -0.005    28.144     8.702
    47   6 C        2.975    -0.004    28.127     8.699
    48   6 C        2.982     0.004    27.926     8.668
    49   6 C        2.924    -0.041    29.026     8.835
    50   6 C        2.918    -0.039    28.970     8.826
    51   6 C        2.918    -0.036    28.894     8.815
    52   6 C        2.925    -0.043    29.062     8.841
    53   6 C        2.968     0.017    27.620     8.621
    54   6 C        3.758    -0.109    22.630     6.782
    55   1 H        0.925     0.051     2.308     2.376
    56   1 H        0.925     0.043     2.411     2.428
    57   1 H        0.925     0.040     2.452     2.449
    58   1 H        0.925     0.030     2.588     2.516
    59   1 H        0.926     0.026     2.638     2.540
    60   1 H        0.926     0.025     2.663     2.552
    61   1 H        0.925     0.020     2.732     2.585
    62   1 H        0.925     0.019     2.749     2.593
    63   1 H        0.926     0.027     2.632     2.537
    64   1 H        0.925     0.037     2.487     2.466
    65   1 H        0.925     0.035     2.510     2.478
    66   1 H        0.925     0.035     2.517     2.481
    67   1 H        0.925     0.032     2.551     2.498
    68   1 H        0.925     0.036     2.502     2.474
    69   1 H        0.925     0.038     2.469     2.457
    70   1 H        0.925     0.036     2.509     2.477
    71   1 H        0.925     0.038     2.472     2.459
    72   1 H        0.925     0.031     2.566     2.505
    73   1 H        0.926     0.035     2.519     2.482
    74   1 H        0.926     0.026     2.642     2.542
    75   1 H        0.925     0.020     2.726     2.582
    76   1 H        0.926     0.036     2.508     2.477
    77   1 H        0.925     0.034     2.529     2.487
    78   1 H        0.925     0.036     2.508     2.476
    79   1 H        0.925     0.039     2.467     2.456
    80   1 H        0.925     0.035     2.521     2.483
    81   1 H        0.925     0.036     2.497     2.471
    82   1 H        0.925     0.037     2.486     2.466
    83   1 H        0.925     0.032     2.563     2.504
    84   1 H        0.925     0.038     2.471     2.458
    85   1 H        0.925     0.036     2.502     2.474
    86   1 H        0.926     0.027     2.628     2.535
    87   1 H        0.926     0.021     2.714     2.576
    88   1 H        0.860     0.158     1.347     1.818
    89   1 H        0.860     0.169     1.279     1.772
    90   1 H        0.926     0.020     2.731     2.584
    91   1 H        0.926     0.030     2.590     2.517
    92   1 H        0.926     0.026     2.642     2.542
    93   1 H        0.926     0.027     2.637     2.539
    94   1 H        0.926     0.030     2.587     2.515
    95   1 H        0.860     0.164     1.310     1.793
    96   1 H        0.860     0.160     1.338     1.812
    97   1 H        0.926     0.025     2.661     2.551
    98   1 H        0.926     0.023     2.687     2.563
    99   1 H        0.926     0.025     2.651     2.546
   100   1 H        0.926     0.029     2.605     2.524
   101   1 H        0.926     0.033     2.546     2.495
   102   1 H        0.925     0.044     2.391     2.418
   103   1 H        0.925     0.054     2.268     2.355
   104   1 H        0.925     0.044     2.391     2.418

molecular dipole:
                 x           y           z       tot (Debye)
 q only:        0.006       0.279       0.603
   full:        0.050       0.177       0.489       1.328

 projected vibrational frequencies (cm⁻¹)
eigval :       -0.00    -0.00     0.00     0.00     0.00     0.00
eigval :       10.17    14.50    17.26    21.75    26.18    28.52
eigval :       37.77    40.00    44.02    47.78    58.14    66.69
eigval :       70.68    80.36    86.04    93.46    96.75   101.66
eigval :      110.07   123.81   128.46   133.70   139.48   141.67
eigval :      146.14   161.18   165.30   171.52   174.90   180.37
eigval :      182.63   191.72   200.42   210.42   221.92   226.39
eigval :      231.52   240.65   244.39   257.74   267.99   274.78
eigval :      283.68   288.90   296.15   313.32   313.72   315.39
eigval :      322.08   330.30   343.04   354.28   357.99   363.08
eigval :      367.89   373.90   376.63   381.18   381.39   384.63
eigval :      394.36   397.85   409.91   416.20   431.53   432.97
eigval :      438.33   445.20   452.46   457.08   462.23   475.41
eigval :      488.98   497.54   505.83   508.82   523.12   526.50
eigval :      533.91   536.37   547.31   548.40   558.03   565.28
eigval :      572.88   586.48   594.19   600.20   608.92   611.23
eigval :      612.97   624.96   650.19   658.27   665.38   672.82
eigval :      676.73   688.74   698.00   700.82   704.17   722.46
eigval :      730.71   737.29   737.74   760.40   768.97   773.65
eigval :      778.41   792.33   801.58   809.99   814.01   814.97
eigval :      819.11   828.18   852.40   856.47   863.94   869.28
eigval :      870.79   877.10   883.50   883.71   884.72   906.60
eigval :      906.89   913.34   915.64   916.56   918.16   921.79
eigval :      926.85   928.93   929.10   930.19   931.77   958.93
eigval :      960.09   961.19   962.53   962.92   965.08   998.85
eigval :     1002.67  1004.07  1007.44  1030.04  1031.33  1031.72
eigval :     1034.00  1034.65  1035.28  1036.42  1044.18  1061.47
eigval :     1074.42  1091.71  1099.69  1101.40  1108.41  1121.64
eigval :     1133.90  1143.80  1144.27  1153.16  1153.38  1162.35
eigval :     1181.14  1182.50  1185.81  1190.61  1193.58  1211.91
eigval :     1214.70  1221.48  1225.70  1226.28  1230.89  1232.13
eigval :     1232.95  1237.49  1246.65  1250.51  1263.46  1264.31
eigval :     1269.08  1276.01  1282.19  1283.29  1286.92  1290.00
eigval :     1303.64  1305.05  1311.10  1313.18  1316.31  1318.89
eigval :     1328.76  1368.91  1382.21  1387.23  1392.41  1394.23
eigval :     1397.01  1398.38  1399.28  1401.43  1401.51  1403.16
eigval :     1405.59  1406.28  1411.20  1425.81  1426.84  1429.08
eigval :     1434.71  1436.94  1468.38  1472.92  1476.07  1477.20
eigval :     1478.56  1486.87  1487.91  1488.37  1488.82  1490.46
eigval :     1490.51  1492.58  1494.10  1494.77  1497.31  1500.57
eigval :     1500.81  1501.70  1506.64  1508.06  1509.73  1510.58
eigval :     1517.26  1518.31  1518.77  1535.31  1541.83  1564.61
eigval :     1569.33  1574.47  1575.73  1583.17  1589.63  1597.08
eigval :     1601.14  1602.10  1604.73  1608.72  3004.63  3007.69
eigval :     3018.06  3018.56  3019.08  3020.24  3021.73  3022.43
eigval :     3024.02  3024.82  3025.34  3026.95  3028.01  3030.59
eigval :     3030.82  3030.96  3034.39  3035.14  3035.28  3043.72
eigval :     3044.91  3047.27  3048.00  3048.33  3059.61  3060.86
eigval :     3064.00  3064.72  3064.96  3065.66  3067.50  3069.53
eigval :     3070.21  3073.21  3077.80  3078.10  3079.99  3080.46
eigval :     3081.79  3082.15  3085.50  3087.79  3100.96  3107.99
eigval :     3108.63  3111.06  3439.34  3449.35  3486.60  3504.56

   temp. (K)  partition function   enthalpy   heat capacity  entropy
                                   cal/mol     cal/K/mol   cal/K/mol   J/K/mol
 298.15  VIB  0.368E+23            30075.407    186.895    186.047
         ROT  0.942E+08              888.752      2.981     39.470
         INT  0.347E+31            30964.160    189.876    225.517
         TR   0.180E+29             1481.254      4.968     45.510
         TOT                       32445.4138   194.8440   271.0273  1133.9782

       T/K    H(0)-H(T)+PV         H(T)/Eh          T*S/Eh         G(T)/Eh
   ------------------------------------------------------------------------
    298.15    0.517051E-01    0.906252E+00    0.128774E+00    0.777478E+00
   ------------------------------------------------------------------------

         :::::::::::::::::::::::::::::::::::::::::::::::::::::
         ::                  THERMODYNAMIC                  ::
         :::::::::::::::::::::::::::::::::::::::::::::::::::::
         :: total free energy        -142.031186099857 Eh   ::
         ::.................................................::
         :: total energy             -142.808664277381 Eh   ::
         :: zero point energy           0.854546931256 Eh   ::
         :: G(RRHO) w/o ZPVE           -0.077068753732 Eh   ::
         :: G(RRHO) contrib.            0.777478177524 Eh   ::
         :::::::::::::::::::::::::::::::::::::::::::::::::::::

           -------------------------------------------------
          | TOTAL ENERGY             -142.808664277381 Eh   |
          | TOTAL ENTHALPY           -141.902412288120 Eh   |
          | TOTAL FREE ENERGY        -142.031186099857 Eh   |
          | GRADIENT NORM               0.000030417029 Eh/α |
          | HOMO-LUMO GAP               2.072914354799 eV   |
           -------------------------------------------------

 * finished run on 2025/08/25 at 00:51:15.580
