   * xtb version 6.7.1 (edcfbbe) compiled by 'albert@albert-system' on 2024-07-22

   ID    Z sym.   atoms
    1    6 C      1-33, 35-43, 45-54
    2    7 N      34, 44
    3    1 H      55-104

          program call               : xtb data2507/toluene/TBTAC/TBTAC.xyz --gfn 2 --gbsa toluene --ohess vtight --parallel 40 --molden --ceasefiles --namespace data2507/toluene/TBTAC/TBTAC_toluene_S0_preOpt
      * Solvation model:               GBSA
        Solvent                        toluene
        Solvent mass                       9.2140E+01 g/mol
          :  Hamiltonian                  GFN2-xTB          :
 * total energy  :  -142.7704367 Eh     change       -0.5180510E-08 Eh
 * total energy  :  -142.7895261 Eh     change       -0.1908940E-01 Eh
 * total energy  :  -142.7974985 Eh     change       -0.7972372E-02 Eh
 * total energy  :  -142.8009446 Eh     change       -0.3446117E-02 Eh
 * total energy  :  -142.8027863 Eh     change       -0.1841721E-02 Eh
 * total energy  :  -142.8034251 Eh     change       -0.6387805E-03 Eh
 * total energy  :  -142.8037855 Eh     change       -0.3604249E-03 Eh
 * total energy  :  -142.8041684 Eh     change       -0.3828457E-03 Eh
 * total energy  :  -142.8045202 Eh     change       -0.3518448E-03 Eh
 * total energy  :  -142.8048070 Eh     change       -0.2867513E-03 Eh
 * total energy  :  -142.8063517 Eh     change       -0.2377940E-06 Eh
 * total energy  :  -142.8063519 Eh     change       -0.1890079E-06 Eh
 * total energy  :  -142.8063520 Eh     change       -0.1563607E-06 Eh
 * total energy  :  -142.8063522 Eh     change       -0.1979438E-06 Eh
 * total energy  :  -142.8063525 Eh     change       -0.2064996E-06 Eh
 * total energy  :  -142.8063527 Eh     change       -0.2243972E-06 Eh
 * total energy  :  -142.8063529 Eh     change       -0.2306963E-06 Eh
 * total energy  :  -142.8063531 Eh     change       -0.2036096E-06 Eh
 * total energy  :  -142.8063531 Eh     change       -0.4012037E-08 Eh
   *** GEOMETRY OPTIMIZATION CONVERGED AFTER 68 ITERATIONS ***

 final structure:
================
104
 xtb: 6.7.1 (edcfbbe)
C            1.16241462333627       -3.37006624228157        1.84291708350769
C            1.37206297182549       -3.88459633051395        0.45138401611418
C            2.29504958026467       -4.90141371887369        0.23481323572641
C            2.51701387804562       -5.41717148559309       -1.02749358814350
C            1.81423832692009       -4.91075694387171       -2.10743165315882
C            0.89417566560726       -3.90060187792534       -1.90604317688752
C            0.65679325590442       -3.38484801706323       -0.63541809943515
C           -0.34008686871479       -2.29035802258801       -0.50662347428233
C            0.10889215458627       -0.95958752038983       -0.50150675314457
C            1.56719580115659       -0.70957309518203       -0.45124518564195
C            2.39119543017832       -1.02240551927667       -1.52256390603847
C            3.75675379469990       -0.80945396046057       -1.45675250059647
C            4.35139745445636       -0.27805550256403       -0.31938675981668
C            5.84783743216563       -0.02993780606067       -0.20158705288566
C            6.39868683882427       -0.84752132917616        0.97633693124260
C            6.08924955307436        1.46679905939735        0.04499359875738
C            6.61575524448482       -0.43596615850319       -1.46317852631293
C            3.51588467723734        0.03600215945409        0.75005706470780
C            2.15364983079994       -0.17336694149102        0.68952037437872
C           -0.80359933424246        0.08219709544737       -0.44582136663071
C           -0.25805041846430        1.43666979458752       -0.21699864237365
C            0.68038129085087        2.00889164737027       -1.06736157404119
C            1.24577043905104        3.23849725216997       -0.78042842624817
C            0.90598142513255        3.94014043793619        0.37011361645351
C            1.52297034088334        5.28115495228909        0.73921683913570
C            2.23758713699831        5.14132246053674        2.09181668223240
C            0.41449022072845        6.33915872693049        0.84475451774406
C            2.54750216634844        5.76504768928118       -0.29165200806421
C           -0.04023231783370        3.36190039261462        1.21464437383554
C           -0.61145534879250        2.13807720427315        0.93258785290483
C           -2.19514242027003       -0.18238591265818       -0.48190254973706
C           -2.64159209493967       -1.52755497159400       -0.34663194039200
C           -4.05420632824649       -1.75665433950394       -0.21456687433832
N           -4.58870862060045       -3.03173876162783       -0.14364755841348
C           -4.90665916601020       -0.69114750839287       -0.07281877945421
C           -4.49742465298039        0.64072715379715       -0.26354495119498
C           -5.41732668518316        1.74406382926481       -0.19732159704738
C           -6.70430631869523        1.60737721480771        0.35197863967969
C           -7.57846062876608        2.66195252856688        0.41575151823503
C           -7.20171759863572        3.91141494245694       -0.07848633426198
C           -5.95000304549652        4.08264157841384       -0.60994575616785
C           -5.02901587392995        3.02184508607839       -0.67502483075635
C           -3.71550715369886        3.17773881184630       -1.22556165261187
N           -3.35964577214038        4.34351573801021       -1.88987973620286
C           -2.82566147255670        2.13904008960612       -1.16019229555426
C           -3.15803405272555        0.88053407457998       -0.61692938317645
C           -1.68613340875775       -2.57289117003538       -0.34248054682338
C           -2.01105377972172       -4.00050017264446       -0.09130691382157
C           -1.96607850913636       -4.91777598266339       -1.13748715549850
C           -2.16658871534707       -6.26702219722047       -0.90969616548939
C           -2.40993644173739       -6.71428686515581        0.37700238284265
C           -2.46847949196625       -5.80642290669875        1.41969398435459
C           -2.27369774101991       -4.44823588576198        1.20847987549470
C           -2.39677412579936       -3.48495017536504        2.34934996984669
H            0.54675026493490       -4.07032150413128        2.40707071662029
H            2.11675941001706       -3.26975826963453        2.35666956180072
H            0.66665561371508       -2.40401552352473        1.83302067307582
H            2.84928933196086       -5.29135614203639        1.07750925261039
H            3.23929985671924       -6.20817268367733       -1.17061526042945
H            1.98400830958284       -5.29967148355940       -3.10125354125600
H            0.35017782277877       -3.49253051149508       -2.74756332563493
H            1.96111044936557       -1.42713916616051       -2.42734836279403
H            4.35037917446550       -1.06830630169809       -2.31867277804655
H            7.47380979296819       -0.70325439068623        1.06309534226934
H            5.93862940785510       -0.54998773630390        1.91470940775668
H            6.20283310336829       -1.90700190500440        0.82127320310476
H            5.61950577409802        1.79638204338551        0.96773732163120
H            5.67910750825960        2.05319351354215       -0.77512659310612
H            7.15636608979825        1.66837660485469        0.11448156971190
H            6.28296536514471        0.13699352544883       -2.32586142559309
H            7.67706157035873       -0.24150160520248       -1.31998182001739
H            6.49315278546421       -1.49673289039041       -1.67056464665065
H            3.92879766902607        0.45420316956805        1.65616522426918
H            1.53502112242335        0.08272457506053        1.53824411604616
H            0.96251058000352        1.49281413623797       -1.97414597840230
H            1.96722006704870        3.63680247461874       -1.47543046810935
H            1.54213483970601        4.87041271779877        2.88158584874756
H            3.00363179418992        4.37045400647026        2.03238511572700
H            2.71325372573328        6.08142319477635        2.36400420510306
H           -0.08559194558693        6.45776111395891       -0.11464192951283
H           -0.33015150105780        6.06170930040944        1.58590741043441
H            0.83982445351066        7.29895294206143        1.13102143015662
H            2.08803524634118        5.90235744349017       -1.26812297490481
H            2.95467584877461        6.72334569745846        0.02510780524453
H            3.37268007696172        5.06220791241714       -0.38159639832626
H           -0.33890614167145        3.86853306957719        2.12057218900511
H           -1.33748519603643        1.71217801572279        1.61137424024245
H           -5.58552197320768       -3.07449896926386       -0.28848414364823
H           -4.07113458768610       -3.76842665846894       -0.59263356653198
H           -5.95085557021139       -0.90978863145516        0.09287795326148
H           -7.01066765211491        0.65687621492586        0.76020395170732
H           -8.55799153452684        2.52936693833863        0.85234868690543
H           -7.89357035838261        4.74019428366991       -0.03476852321794
H           -5.67392682683018        5.05767053802594       -0.98427677904760
H           -3.78683759120202        5.19436658755630       -1.56101831132275
H           -2.36827988640712        4.43660637979856       -2.05113720108219
H           -1.84961657504713        2.28472294776345       -1.59290687386660
H           -1.78371708142397       -4.56361579443217       -2.14172460844586
H           -2.12656750301841       -6.96466500412378       -1.73345548565676
H           -2.55750758857609       -7.76736679383768        0.56757327113215
H           -2.66713985329985       -6.15860068678652        2.42230710581662
H           -3.41643541294050       -3.10105327746369        2.38813271310956
H           -2.18140826792094       -3.97576847791206        3.29561624786588
H           -1.72968215454828       -2.63655953827707        2.22384358974466

          :  Hamiltonian                  GFN2-xTB          :
         :: gradient norm              0.000046624327 Eh/a0 ::
         :: HOMO-LUMO gap              2.097775605264 eV    ::
         :: SCC energy              -145.409485544890 Eh    ::
         :: -> dispersion             -0.153346049814 Eh    ::
         :: -> Gsolv                  -0.051695608623 Eh    ::
         :: repulsion energy           2.603132429184 Eh    ::

    * Orbital Energies and Occupations

         #    Occupation            Energy/Eh            Energy/eV
      -------------------------------------------------------------
         1        2.0000           -0.6511206             -17.7179
       ...           ...                  ...                  ...
       122        2.0000           -0.3987619             -10.8509
       123        2.0000           -0.3975046             -10.8167
       124        2.0000           -0.3964547             -10.7881
       125        2.0000           -0.3957280             -10.7683
       126        2.0000           -0.3932497             -10.7009
       127        2.0000           -0.3898057             -10.6072
       128        2.0000           -0.3865832             -10.5195
       129        2.0000           -0.3854767             -10.4894
       130        2.0000           -0.3844041             -10.4602
       131        2.0000           -0.3780335             -10.2868
       132        2.0000           -0.3739648             -10.1761
       133        2.0000           -0.3656974              -9.9511
       134        2.0000           -0.3314595              -9.0195 (HOMO)
       135                         -0.2543676              -6.9217 (LUMO)
       136                         -0.2421477              -6.5892
       137                         -0.2335461              -6.3551
       138                         -0.2213961              -6.0245
       139                         -0.2197195              -5.9789
       140                         -0.2184695              -5.9449
       141                         -0.2160678              -5.8795
       142                         -0.2143785              -5.8335
       143                         -0.2121638              -5.7733
       144                         -0.2106523              -5.7321
       145                         -0.2077116              -5.6521
       ...                                ...                  ...
       266                          0.7218977              19.6438
      -------------------------------------------------------------
                  HL-Gap            0.0770918 Eh            2.0978 eV

     #   Z          covCN         q      C6AA      α(0)
     1   6 C        3.758    -0.104    22.537     6.768
     2   6 C        2.969     0.011    27.758     8.642
     3   6 C        2.927    -0.042    29.043     8.838
     4   6 C        2.919    -0.036    28.892     8.814
     5   6 C        2.918    -0.038    28.933     8.821
     6   6 C        2.928    -0.033    28.813     8.803
     7   6 C        2.980     0.004    27.927     8.669
     8   6 C        2.989    -0.003    28.083     8.693
     9   6 C        2.984    -0.005    28.150     8.703
    10   6 C        2.977     0.010    27.789     8.647
    11   6 C        2.924    -0.036    28.900     8.816
    12   6 C        2.925    -0.042    29.038     8.837
    13   6 C        2.973     0.006    27.894     8.663
    14   6 C        3.902     0.025    20.104     6.373
    15   6 C        3.761    -0.104    22.531     6.766
    16   6 C        3.761    -0.103    22.511     6.763
    17   6 C        3.761    -0.106    22.575     6.773
    18   6 C        2.927    -0.037    28.917     8.819
    19   6 C        2.924    -0.034    28.846     8.808
    20   6 C        2.977    -0.006    28.160     8.705
    21   6 C        2.979     0.014    27.697     8.633
    22   6 C        2.923    -0.037    28.932     8.821
    23   6 C        2.924    -0.043    29.059     8.840
    24   6 C        2.972     0.004    27.928     8.669
    25   6 C        3.902     0.025    20.102     6.373
    26   6 C        3.762    -0.104    22.528     6.766
    27   6 C        3.761    -0.104    22.538     6.768
    28   6 C        3.761    -0.106    22.579     6.774
    29   6 C        2.926    -0.038    28.939     8.822
    30   6 C        2.924    -0.035    28.877     8.812
    31   6 C        2.981    -0.007    28.177     8.707
    32   6 C        2.979    -0.016    28.411     8.743
    33   6 C        2.891     0.069    26.450     8.432
    34   7 N        2.643    -0.298    27.667     7.812
    35   6 C        2.926    -0.079    29.962     8.977
    36   6 C        2.981    -0.008    28.217     8.714
    37   6 C        2.982     0.001    28.009     8.681
    38   6 C        2.921    -0.037    28.922     8.819
    39   6 C        2.916    -0.036    28.905     8.816
    40   6 C        2.916    -0.036    28.906     8.816
    41   6 C        2.920    -0.038    28.942     8.822
    42   6 C        2.985    -0.009    28.227     8.715
    43   6 C        2.892     0.064    26.564     8.450
    44   7 N        2.641    -0.294    27.589     7.801
    45   6 C        2.924    -0.076    29.886     8.965
    46   6 C        2.981    -0.006    28.160     8.705
    47   6 C        2.975    -0.004    28.111     8.697
    48   6 C        2.984     0.004    27.939     8.670
    49   6 C        2.923    -0.042    29.050     8.839
    50   6 C        2.918    -0.039    28.979     8.828
    51   6 C        2.918    -0.037    28.909     8.817
    52   6 C        2.925    -0.042    29.053     8.839
    53   6 C        2.968     0.016    27.656     8.626
    54   6 C        3.758    -0.109    22.627     6.782
    55   1 H        0.925     0.051     2.303     2.373
    56   1 H        0.925     0.043     2.413     2.429
    57   1 H        0.925     0.040     2.447     2.446
    58   1 H        0.925     0.029     2.598     2.520
    59   1 H        0.926     0.026     2.637     2.540
    60   1 H        0.926     0.026     2.640     2.541
    61   1 H        0.925     0.023     2.694     2.567
    62   1 H        0.926     0.023     2.687     2.564
    63   1 H        0.926     0.034     2.527     2.486
    64   1 H        0.925     0.038     2.472     2.459
    65   1 H        0.925     0.036     2.502     2.473
    66   1 H        0.925     0.032     2.560     2.502
    67   1 H        0.925     0.035     2.511     2.478
    68   1 H        0.925     0.032     2.563     2.503
    69   1 H        0.925     0.038     2.471     2.458
    70   1 H        0.925     0.035     2.514     2.479
    71   1 H        0.925     0.037     2.488     2.467
    72   1 H        0.925     0.035     2.517     2.481
    73   1 H        0.926     0.028     2.620     2.531
    74   1 H        0.926     0.021     2.724     2.581
    75   1 H        0.926     0.022     2.706     2.573
    76   1 H        0.926     0.034     2.529     2.487
    77   1 H        0.925     0.036     2.502     2.474
    78   1 H        0.925     0.032     2.551     2.498
    79   1 H        0.925     0.038     2.471     2.458
    80   1 H        0.925     0.030     2.580     2.512
    81   1 H        0.925     0.036     2.504     2.474
    82   1 H        0.925     0.039     2.463     2.454
    83   1 H        0.925     0.034     2.525     2.485
    84   1 H        0.925     0.038     2.481     2.463
    85   1 H        0.925     0.036     2.502     2.474
    86   1 H        0.926     0.028     2.616     2.529
    87   1 H        0.925     0.022     2.707     2.573
    88   1 H        0.860     0.158     1.345     1.817
    89   1 H        0.860     0.171     1.266     1.763
    90   1 H        0.926     0.022     2.707     2.573
    91   1 H        0.926     0.031     2.570     2.507
    92   1 H        0.926     0.027     2.636     2.539
    93   1 H        0.926     0.027     2.636     2.539
    94   1 H        0.926     0.026     2.649     2.545
    95   1 H        0.860     0.164     1.312     1.794
    96   1 H        0.860     0.159     1.338     1.812
    97   1 H        0.926     0.025     2.652     2.547
    98   1 H        0.926     0.025     2.654     2.548
    99   1 H        0.926     0.027     2.636     2.539
   100   1 H        0.926     0.029     2.606     2.524
   101   1 H        0.926     0.033     2.547     2.496
   102   1 H        0.924     0.054     2.265     2.353
   103   1 H        0.925     0.044     2.401     2.423
   104   1 H        0.925     0.045     2.383     2.414

molecular dipole:
                 x           y           z       tot (Debye)
 q only:        0.432       0.371       0.377
   full:        0.466       0.381       0.321       1.734

 projected vibrational frequencies (cm⁻¹)
eigval :       -0.00    -0.00     0.00     0.00     0.00     0.00
eigval :       12.87    17.50    21.38    26.22    28.76    30.44
eigval :       35.14    36.93    45.66    46.66    50.55    64.67
eigval :       71.34    82.28    84.58    97.89    99.54   105.49
eigval :      109.67   121.45   122.34   130.30   138.15   145.42
eigval :      147.64   161.82   167.00   175.21   178.79   182.22
eigval :      187.39   190.24   192.86   216.80   221.82   225.23
eigval :      227.23   238.51   245.84   257.42   266.33   273.23
eigval :      279.57   293.59   308.74   314.83   316.34   318.82
eigval :      324.59   331.74   336.98   340.87   351.49   360.23
eigval :      364.41   371.82   378.84   381.61   382.78   383.06
eigval :      389.28   399.87   411.34   414.58   432.62   433.77
eigval :      438.48   445.82   454.25   461.68   464.49   470.16
eigval :      482.78   499.50   508.91   512.11   523.24   525.83
eigval :      532.03   540.92   544.35   550.31   555.59   561.19
eigval :      571.85   583.88   593.45   600.86   605.45   611.19
eigval :      618.19   628.62   646.20   651.19   662.68   673.61
eigval :      681.30   683.81   696.01   700.56   704.02   722.40
eigval :      729.92   735.26   740.18   759.59   767.51   771.34
eigval :      776.66   793.59   800.71   811.57   816.32   818.94
eigval :      822.48   829.12   853.15   855.48   861.17   871.50
eigval :      874.51   877.22   881.81   883.62   888.97   904.78
eigval :      907.25   913.36   915.77   919.67   920.91   921.78
eigval :      926.21   929.59   930.83   931.34   934.94   959.35
eigval :      959.59   961.59   961.85   962.76   966.28   998.73
eigval :     1000.48  1003.61  1006.59  1028.53  1030.26  1033.93
eigval :     1034.00  1034.56  1035.38  1036.30  1040.38  1059.52
eigval :     1075.92  1091.42  1098.10  1101.83  1110.63  1122.26
eigval :     1133.90  1143.62  1144.38  1152.70  1154.31  1161.98
eigval :     1182.07  1184.41  1187.68  1190.79  1192.90  1211.67
eigval :     1215.86  1222.02  1225.30  1226.34  1230.86  1232.10
eigval :     1233.06  1238.33  1247.72  1250.64  1263.64  1264.63
eigval :     1268.78  1276.55  1282.16  1284.05  1285.86  1289.53
eigval :     1302.01  1304.21  1311.00  1314.13  1316.93  1319.16
eigval :     1322.03  1365.59  1383.95  1388.17  1393.10  1394.51
eigval :     1396.35  1397.86  1399.13  1400.58  1402.02  1402.88
eigval :     1405.66  1406.82  1411.23  1426.42  1426.73  1429.03
eigval :     1436.37  1437.83  1468.50  1471.30  1473.84  1476.77
eigval :     1479.07  1485.21  1488.33  1488.74  1489.52  1491.17
eigval :     1491.96  1492.65  1493.05  1495.29  1496.46  1500.55
eigval :     1501.00  1502.31  1506.34  1508.81  1511.07  1511.98
eigval :     1517.86  1518.12  1520.71  1534.86  1541.44  1564.31
eigval :     1569.83  1574.95  1576.45  1584.15  1587.74  1598.44
eigval :     1601.61  1602.00  1604.48  1609.65  3004.34  3006.21
eigval :     3018.06  3018.92  3019.14  3019.95  3022.76  3023.56
eigval :     3024.16  3024.37  3025.02  3026.46  3027.71  3030.12
eigval :     3030.76  3034.36  3034.95  3037.05  3043.39  3043.51
eigval :     3046.68  3046.74  3048.70  3054.75  3057.40  3061.67
eigval :     3063.13  3064.99  3065.08  3066.31  3069.01  3069.73
eigval :     3071.85  3073.32  3076.90  3079.25  3079.32  3080.04
eigval :     3080.54  3081.53  3082.19  3089.16  3097.39  3106.57
eigval :     3107.51  3116.47  3449.86  3450.90  3497.48  3507.93

   temp. (K)  partition function   enthalpy   heat capacity  entropy
                                   cal/mol     cal/K/mol   cal/K/mol   J/K/mol
 298.15  VIB  0.176E+23            30063.543    186.808    185.244
         ROT  0.932E+08              888.752      2.981     39.447
         INT  0.164E+31            30952.295    189.788    224.690
         TR   0.180E+29             1481.254      4.968     45.510
         TOT                       32433.5490   194.7566   270.2007  1130.5197

       T/K    H(0)-H(T)+PV         H(T)/Eh          T*S/Eh         G(T)/Eh
   ------------------------------------------------------------------------
    298.15    0.516862E-01    0.906363E+00    0.128381E+00    0.777982E+00
   ------------------------------------------------------------------------

         :::::::::::::::::::::::::::::::::::::::::::::::::::::
         ::                  THERMODYNAMIC                  ::
         :::::::::::::::::::::::::::::::::::::::::::::::::::::
         :: total free energy        -142.028371503835 Eh   ::
         ::.................................................::
         :: total energy             -142.806353117773 Eh   ::
         :: zero point energy           0.854676534319 Eh   ::
         :: G(RRHO) w/o ZPVE           -0.076694920381 Eh   ::
         :: G(RRHO) contrib.            0.777981613938 Eh   ::
         :::::::::::::::::::::::::::::::::::::::::::::::::::::

           -------------------------------------------------
          | TOTAL ENERGY             -142.806353117773 Eh   |
          | TOTAL ENTHALPY           -141.899990433157 Eh   |
          | TOTAL FREE ENERGY        -142.028371503835 Eh   |
          | GRADIENT NORM               0.000046615938 Eh/α |
          | HOMO-LUMO GAP               2.097775825042 eV   |
           -------------------------------------------------

 * finished run on 2025/08/25 at 00:38:07.208
