   * xtb version 6.7.1 (edcfbbe) compiled by 'albert@albert-system' on 2024-07-22

   ID    Z sym.   atoms
    1    6 C      1-33, 35-43, 45-54
    2    7 N      34, 44
    3    1 H      55-104

          program call               : xtb data2507/toluene/TBTAC/TBTAC_toluene_T1_crest.xyz --gfn 2 --uhf 2 --gbsa toluene --ohess vtight --parallel 40 --molden --ceasefiles --namespace data2507/toluene/TBTAC/TBTAC_toluene_T1_finalOpt
      * Solvation model:               GBSA
        Solvent                        toluene
        Solvent mass                       9.2140E+01 g/mol
          :  Hamiltonian                  GFN2-xTB          :
 * total energy  :  -142.7372451 Eh     change       -0.7398313E-08 Eh
 * total energy  :  -142.7373516 Eh     change       -0.1064314E-03 Eh
 * total energy  :  -142.7374405 Eh     change       -0.8892619E-04 Eh
 * total energy  :  -142.7374776 Eh     change       -0.3710613E-04 Eh
 * total energy  :  -142.7375116 Eh     change       -0.3405127E-04 Eh
 * total energy  :  -142.7375442 Eh     change       -0.3260412E-04 Eh
 * total energy  :  -142.7375717 Eh     change       -0.2743628E-04 Eh
 * total energy  :  -142.7375948 Eh     change       -0.2314443E-04 Eh
 * total energy  :  -142.7376164 Eh     change       -0.2156793E-04 Eh
 * total energy  :  -142.7376379 Eh     change       -0.2146534E-04 Eh
 * total energy  :  -142.7380025 Eh     change       -0.2436973E-05 Eh
 * total energy  :  -142.7380040 Eh     change       -0.1484073E-05 Eh
 * total energy  :  -142.7380051 Eh     change       -0.1066072E-05 Eh
 * total energy  :  -142.7380059 Eh     change       -0.7750292E-06 Eh
 * total energy  :  -142.7380064 Eh     change       -0.5274757E-06 Eh
 * total energy  :  -142.7380067 Eh     change       -0.3339690E-06 Eh
 * total energy  :  -142.7380070 Eh     change       -0.2475524E-06 Eh
 * total energy  :  -142.7380072 Eh     change       -0.1732160E-06 Eh
 * total energy  :  -142.7380072 Eh     change       -0.2997837E-08 Eh
   *** GEOMETRY OPTIMIZATION CONVERGED AFTER 41 ITERATIONS ***

 final structure:
================
104
 xtb: 6.7.1 (edcfbbe)
C            2.23877056782566       -3.18916026395788        2.31805121042132
C            3.02892138954000       -3.02488651801536        1.05462425159646
C            4.31969623262737       -3.53437773467948        0.98176685949496
C            5.09268500836508       -3.37630726029430       -0.15315324792392
C            4.58227958138704       -2.68667465428722       -1.23991343394536
C            3.29950186230596       -2.17793042795337       -1.18239040418583
C            2.50799650581647       -2.35096936924676       -0.05050672637253
C            1.13686393136898       -1.78172343140037       -0.06467537125601
C            0.98665364808935       -0.39821411617572       -0.03784320061479
C            2.17458445924882        0.47090089346050       -0.05428550246394
C            2.34611474728555        1.41619131085527       -1.06315998374114
C            3.47249304585093        2.21054860380354       -1.10520262875969
C            4.47773365388873        2.10717308935747       -0.14526773973519
C            5.70630921276027        2.99923648551232       -0.24166642028530
C            6.71046121879513        2.74682450571462        0.88729294855443
C            5.26734801858629        4.46933787635268       -0.17174671524696
C            6.41480203731509        2.73041164703585       -1.57789081644239
C            4.29519670573664        1.17165037282080        0.86589771856477
C            3.17009006490285        0.36943586101960        0.91120846468413
C           -0.31556192106769        0.16636116935865        0.00899616197773
C           -0.44103009197510        1.63408372364023        0.03299800960245
C           -1.17610871744223        2.29210063310696       -0.94934656962333
C           -1.26020835997274        3.67102441354594       -0.97759537126328
C           -0.61403553465116        4.45563226916988       -0.02770098270822
C           -0.66513370470958        5.97641763546747       -0.02971447746838
C           -1.29199374874844        6.46579529560849        1.28453389374222
C           -1.49251356147707        6.53961587689966       -1.18950200780012
C            0.76554009373602        6.52108959983203       -0.15627595537378
C            0.11600767736657        3.79157549190155        0.95578504514472
C            0.20794113971727        2.41487901922948        0.98692642850482
C           -1.43301758197624       -0.66037098807887       -0.04704912546959
C           -1.27585802367405       -2.05281486281438       -0.32115168155887
C           -2.40461180867288       -2.75335717327260       -0.80811925270536
N           -2.34038716038054       -4.04788612651573       -1.25538301163706
C           -3.66858010214472       -2.11188358128558       -0.90485073546714
C           -3.88920170658243       -0.84838807120927       -0.42264826525739
C           -5.19495725948749       -0.20897867766930       -0.41333329778482
C           -6.24263295361893       -0.67086553214748       -1.20355178710048
C           -7.50032083626682       -0.08373558584221       -1.16175635232696
C           -7.72890886095824        0.98853704193011       -0.31579966894602
C           -6.70339055306882        1.48517469682476        0.46271000345397
C           -5.41562447285659        0.91726591278702        0.42549274789488
C           -4.32729872533464        1.42706580211495        1.19388863855334
N           -4.49865995046372        2.43778645906893        2.10694601688324
C           -3.03929800431033        0.89302503555630        1.03006296452879
C           -2.77840529088954       -0.15408686232416        0.17789805798832
C            0.02482535104767       -2.62444676961725       -0.19340348833105
C            0.23886956494976       -4.08105286329261       -0.14885901331316
C            1.07948141805788       -4.69330559496033       -1.08208079634804
C            1.33387073649214       -6.05007733325234       -1.03573928745935
C            0.75067397745269       -6.82531240867384       -0.04692863168132
C           -0.08383502180949       -6.23004657012154        0.88450698970336
C           -0.35020803951967       -4.86907893694536        0.85703866675647
C           -1.25001916772402       -4.26813790132499        1.89480440579392
H            1.75061724714355       -4.16329432595322        2.32974198284855
H            2.89285790223746       -3.12943027542540        3.18636903948730
H            1.47019491523027       -2.42369210962470        2.39797547550546
H            4.72468423914649       -4.05902064854360        1.83644296652277
H            6.09397040410192       -3.78171958981231       -0.18733125612061
H            5.18139897827456       -2.54493274781563       -2.12818503056048
H            2.89351101436157       -1.63792281456228       -2.02728762335094
H            1.59185948286875        1.51603351683766       -1.83148509452457
H            3.56485794304905        2.92402650966004       -1.91123587978516
H            7.56763543902325        3.40628437715579        0.76406983155278
H            6.26667110497924        2.95076692255898        1.85924444041138
H            7.06988718307684        1.72024291274588        0.86788829345425
H            4.74685754540733        4.66043995408044        0.76471526533846
H            4.59877921779594        4.72158734692466       -0.99016105416999
H            6.13512440167305        5.12383343198576       -0.22525413707418
H            5.76971746489572        2.96117030262914       -2.42133398528745
H            7.31197297467373        3.34130341934601       -1.65715686370724
H            6.70218097713062        1.68263711116946       -1.64567237944485
H            5.03306205501634        1.04992783568540        1.64273390274243
H            3.05974743658233       -0.33793417166564        1.71998146571094
H           -1.68322857254490        1.71094890590747       -1.70763911406877
H           -1.83711991568986        4.12648818494543       -1.76656701316911
H           -2.31505054022818        6.10452897985730        1.37074726660698
H           -0.73027350352134        6.11476383131182        2.14592149018639
H           -1.30862858677627        7.55356548227487        1.30866288210365
H           -1.07078845172075        6.24712305414463       -2.14856255841390
H           -2.52503075001932        6.20119203053629       -1.13690547371947
H           -1.49229013321031        7.62690705449869       -1.13984341817374
H            1.22703127034521        6.15179444662670       -1.07009523425876
H            0.75251958870144        7.60874462483056       -0.19044852128406
H            1.38269546158898        6.21370324507154        0.68340629627323
H            0.63445500672681        4.35427681760020        1.71838266627338
H            0.78041762397769        1.93563982889540        1.76867000767513
H           -3.09364108724791       -4.36546235695039       -1.84342646636576
H           -1.43125782141336       -4.44874290462467       -1.42088375463430
H           -4.47493740692559       -2.69071461051399       -1.32909757836170
H           -6.08108037207556       -1.49639611695995       -1.87937619387475
H           -8.29424433705816       -0.46588598496699       -1.78635269317765
H           -8.70828121525146        1.44299190392489       -0.26771681332542
H           -6.90834944472277        2.32415075003812        1.11113894098877
H           -5.30174427252827        3.03696532980409        2.01621715841008
H           -3.65967649308780        2.88333866984050        2.44240668596666
H           -2.23570268226994        1.34024305504784        1.59458296023764
H            1.52278207962861       -4.09242799137637       -1.86270125300384
H            1.98731727949615       -6.50019058222998       -1.76916100730286
H            0.94663513320934       -7.88658109968626        0.00083631715474
H           -0.53101240202728       -6.83568499800465        1.66090115752855
H           -1.24242002572381       -4.87057591484909        2.80060195905694
H           -0.94422094445724       -3.25378929246858        2.13930161749096
H           -2.27473357462139       -4.22382608595879        1.52560458366812

          :  Hamiltonian                  GFN2-xTB          :
         :: gradient norm              0.000107737310 Eh/a0 ::
         :: HOMO-LUMO gap              0.650526562166 eV    ::
         :: SCC energy              -145.327783481708 Eh    ::
         :: -> dispersion             -0.153478824566 Eh    ::
         :: -> Gsolv                  -0.051860118703 Eh    ::
         :: repulsion energy           2.589776320497 Eh    ::

    * Orbital Energies and Occupations

         #    Occupation            Energy/Eh            Energy/eV
      -------------------------------------------------------------
         1        2.0000           -0.6544488             -17.8085
       ...           ...                  ...                  ...
       123        2.0000           -0.3957878             -10.7699
       124        2.0000           -0.3951542             -10.7527
       125        2.0000           -0.3929309             -10.6922
       126        2.0000           -0.3910880             -10.6420
       127        2.0000           -0.3896217             -10.6021
       128        2.0000           -0.3872345             -10.5372
       129        2.0000           -0.3833389             -10.4312
       130        2.0000           -0.3803466             -10.3498
       131        2.0000           -0.3777844             -10.2800
       132        2.0000           -0.3685658             -10.0292
       133        2.0000           -0.3637384              -9.8978
       134        1.0000           -0.3273102              -8.9066
       135        1.0000           -0.2643974              -7.1946 (HOMO)
       136        0.0000           -0.2404910              -6.5441 (LUMO)
       137        0.0000           -0.2371470              -6.4531
       138                         -0.2181592              -5.9364
       139                         -0.2173546              -5.9145
       140                         -0.2149027              -5.8478
       141                         -0.2132722              -5.8034
       142                         -0.2120709              -5.7707
       143                         -0.2104266              -5.7260
       144                         -0.2074670              -5.6455
       145                         -0.2056355              -5.5956
       146                         -0.1892899              -5.1508
       ...                                ...                  ...
       266                          0.7348950              19.9975
      -------------------------------------------------------------
                  HL-Gap            0.0239064 Eh            0.6505 eV

     #   Z          covCN         q      C6AA      α(0)
     1   6 C        3.758    -0.102    22.504     6.763
     2   6 C        2.968     0.012    27.750     8.641
     3   6 C        2.926    -0.042    29.056     8.840
     4   6 C        2.918    -0.036    28.906     8.816
     5   6 C        2.918    -0.038    28.937     8.821
     6   6 C        2.927    -0.034    28.846     8.808
     7   6 C        2.981     0.007    27.866     8.659
     8   6 C        2.979    -0.003    28.091     8.694
     9   6 C        2.979    -0.016    28.393     8.741
    10   6 C        2.975     0.009    27.813     8.651
    11   6 C        2.924    -0.036    28.905     8.817
    12   6 C        2.926    -0.038    28.948     8.823
    13   6 C        2.973     0.003    27.963     8.674
    14   6 C        3.902     0.024    20.109     6.374
    15   6 C        3.761    -0.105    22.561     6.771
    16   6 C        3.761    -0.103    22.509     6.763
    17   6 C        3.761    -0.103    22.515     6.764
    18   6 C        2.924    -0.043    29.068     8.842
    19   6 C        2.924    -0.039    28.969     8.827
    20   6 C        2.975    -0.016    28.398     8.741
    21   6 C        2.975     0.011    27.764     8.643
    22   6 C        2.925    -0.038    28.938     8.822
    23   6 C        2.924    -0.043    29.080     8.843
    24   6 C        2.972     0.001    27.995     8.679
    25   6 C        3.902     0.024    20.108     6.374
    26   6 C        3.761    -0.104    22.542     6.768
    27   6 C        3.761    -0.106    22.570     6.772
    28   6 C        3.762    -0.103    22.508     6.763
    29   6 C        2.926    -0.039    28.975     8.827
    30   6 C        2.923    -0.038    28.957     8.825
    31   6 C        2.982    -0.006    28.153     8.704
    32   6 C        2.976    -0.020    28.496     8.756
    33   6 C        2.893     0.067    26.503     8.441
    34   7 N        2.642    -0.257    26.682     7.672
    35   6 C        2.922    -0.067    29.667     8.932
    36   6 C        2.975    -0.002    28.076     8.691
    37   6 C        2.979     0.003    27.964     8.674
    38   6 C        2.921    -0.042    29.047     8.838
    39   6 C        2.916    -0.040    29.003     8.831
    40   6 C        2.914    -0.035    28.860     8.809
    41   6 C        2.919    -0.047    29.163     8.856
    42   6 C        2.979    -0.008    28.224     8.715
    43   6 C        2.893     0.063    26.578     8.453
    44   7 N        2.641    -0.250    26.518     7.648
    45   6 C        2.920    -0.063    29.557     8.915
    46   6 C        2.979     0.000    28.013     8.682
    47   6 C        2.973    -0.019    28.487     8.755
    48   6 C        2.977    -0.002    28.063     8.690
    49   6 C        2.923    -0.044    29.095     8.846
    50   6 C        2.917    -0.041    29.009     8.832
    51   6 C        2.917    -0.041    29.011     8.833
    52   6 C        2.924    -0.045    29.115     8.849
    53   6 C        2.967     0.010    27.790     8.647
    54   6 C        3.758    -0.108    22.609     6.779
    55   1 H        0.925     0.049     2.328     2.386
    56   1 H        0.925     0.041     2.439     2.442
    57   1 H        0.925     0.040     2.451     2.448
    58   1 H        0.925     0.028     2.620     2.531
    59   1 H        0.926     0.025     2.665     2.553
    60   1 H        0.926     0.023     2.692     2.566
    61   1 H        0.925     0.019     2.750     2.593
    62   1 H        0.925     0.017     2.775     2.605
    63   1 H        0.926     0.023     2.687     2.564
    64   1 H        0.925     0.036     2.497     2.471
    65   1 H        0.925     0.035     2.519     2.482
    66   1 H        0.925     0.034     2.527     2.486
    67   1 H        0.925     0.032     2.562     2.503
    68   1 H        0.925     0.035     2.511     2.478
    69   1 H        0.925     0.038     2.481     2.463
    70   1 H        0.925     0.035     2.518     2.482
    71   1 H        0.925     0.038     2.482     2.464
    72   1 H        0.925     0.031     2.576     2.510
    73   1 H        0.926     0.031     2.572     2.508
    74   1 H        0.926     0.023     2.686     2.563
    75   1 H        0.925     0.018     2.761     2.598
    76   1 H        0.926     0.032     2.560     2.502
    77   1 H        0.925     0.031     2.569     2.506
    78   1 H        0.925     0.036     2.505     2.475
    79   1 H        0.925     0.038     2.472     2.459
    80   1 H        0.925     0.034     2.526     2.486
    81   1 H        0.925     0.035     2.521     2.483
    82   1 H        0.925     0.037     2.493     2.469
    83   1 H        0.925     0.031     2.575     2.510
    84   1 H        0.925     0.037     2.484     2.465
    85   1 H        0.925     0.036     2.506     2.476
    86   1 H        0.926     0.024     2.669     2.555
    87   1 H        0.926     0.019     2.744     2.590
    88   1 H        0.860     0.172     1.262     1.760
    89   1 H        0.860     0.180     1.211     1.724
    90   1 H        0.926     0.029     2.594     2.519
    91   1 H        0.926     0.027     2.625     2.534
    92   1 H        0.926     0.024     2.671     2.556
    93   1 H        0.926     0.025     2.657     2.549
    94   1 H        0.926     0.022     2.697     2.568
    95   1 H        0.860     0.175     1.241     1.745
    96   1 H        0.860     0.174     1.248     1.750
    97   1 H        0.926     0.031     2.578     2.511
    98   1 H        0.926     0.020     2.727     2.583
    99   1 H        0.926     0.021     2.722     2.580
   100   1 H        0.926     0.023     2.682     2.561
   101   1 H        0.925     0.028     2.612     2.528
   102   1 H        0.925     0.042     2.424     2.434
   103   1 H        0.925     0.044     2.399     2.422
   104   1 H        0.925     0.049     2.330     2.387

molecular dipole:
                 x           y           z       tot (Debye)
 q only:       -1.056       0.573       0.556
   full:       -0.910       0.676       0.248       2.949

 projected vibrational frequencies (cm⁻¹)
eigval :       -0.00    -0.00     0.00     0.00     0.00     0.00
eigval :        9.77    17.28    21.73    21.91    24.99    30.94
eigval :       36.36    41.92    46.77    48.62    54.90    65.80
eigval :       74.01    79.61    86.89    92.95    95.49   100.61
eigval :      108.42   116.01   121.78   133.13   138.59   139.75
eigval :      144.16   160.09   161.75   172.81   175.07   179.01
eigval :      184.09   188.93   195.40   208.46   225.83   229.21
eigval :      231.25   240.59   242.30   254.34   269.50   274.31
eigval :      285.15   290.21   309.24   313.35   314.71   316.00
eigval :      320.47   325.03   335.21   348.56   353.90   359.61
eigval :      362.48   368.77   376.58   381.16   382.24   383.51
eigval :      386.67   399.78   407.39   414.90   428.47   431.50
eigval :      435.36   443.66   450.23   454.21   456.10   465.38
eigval :      468.67   484.94   494.61   497.20   502.56   505.85
eigval :      518.34   521.55   526.18   532.14   543.17   547.41
eigval :      549.23   553.20   563.06   590.21   598.02   601.09
eigval :      601.85   607.87   616.12   635.20   651.65   661.55
eigval :      663.29   682.63   691.27   694.42   700.61   706.86
eigval :      715.39   726.43   733.77   747.16   755.20   770.42
eigval :      773.84   789.87   799.20   801.37   810.63   812.54
eigval :      818.60   825.51   827.91   846.78   850.68   868.83
eigval :      873.05   875.28   879.68   883.29   883.81   887.10
eigval :      901.69   908.53   911.81   915.14   916.15   918.58
eigval :      923.36   926.58   927.89   929.32   933.07   959.06
eigval :      959.54   960.47   960.86   962.99   966.23   986.54
eigval :      993.53  1001.95  1004.89  1005.54  1013.16  1028.34
eigval :     1032.02  1033.85  1034.43  1034.78  1036.20  1040.33
eigval :     1072.04  1087.28  1099.36  1100.67  1108.56  1114.98
eigval :     1132.80  1143.49  1144.54  1150.35  1153.47  1156.34
eigval :     1171.22  1179.74  1180.86  1181.31  1186.84  1207.99
eigval :     1214.30  1218.30  1225.15  1226.08  1228.74  1232.08
eigval :     1232.49  1232.79  1245.36  1248.25  1254.78  1264.32
eigval :     1265.44  1267.66  1278.58  1281.82  1283.59  1284.60
eigval :     1291.24  1299.20  1311.91  1312.73  1315.39  1316.62
eigval :     1319.81  1355.26  1361.55  1373.69  1379.23  1385.49
eigval :     1392.93  1394.97  1398.90  1400.39  1401.72  1402.34
eigval :     1402.95  1404.47  1406.54  1410.11  1419.79  1425.48
eigval :     1426.74  1428.97  1433.27  1442.88  1446.78  1464.28
eigval :     1468.26  1473.05  1477.77  1479.49  1479.91  1485.95
eigval :     1488.34  1489.50  1489.56  1490.83  1492.27  1494.63
eigval :     1496.01  1498.14  1500.70  1502.28  1505.27  1507.27
eigval :     1510.95  1511.05  1517.75  1519.58  1528.27  1534.21
eigval :     1538.88  1555.77  1556.36  1559.30  1569.76  1581.64
eigval :     1584.27  1598.78  1599.91  1602.14  2999.91  3004.51
eigval :     3017.22  3018.11  3018.72  3018.94  3020.72  3022.53
eigval :     3022.72  3023.92  3024.35  3026.60  3026.97  3029.87
eigval :     3029.92  3030.77  3031.11  3034.16  3034.87  3039.59
eigval :     3043.94  3044.05  3047.06  3048.77  3058.49  3059.92
eigval :     3061.14  3061.21  3062.88  3063.80  3065.92  3067.26
eigval :     3068.27  3072.49  3076.37  3078.51  3078.91  3079.24
eigval :     3080.98  3082.34  3082.39  3088.01  3094.06  3095.31
eigval :     3103.89  3104.55  3433.33  3454.37  3501.45  3512.03

   temp. (K)  partition function   enthalpy   heat capacity  entropy
                                   cal/mol     cal/K/mol   cal/K/mol   J/K/mol
 298.15  VIB  0.356E+23            30365.745    188.812    187.530
         ROT  0.946E+08              888.752      2.981     39.477
         INT  0.337E+31            31254.498    191.793    227.007
         TR   0.180E+29             1481.254      4.968     45.510
         TOT                       32735.7515   196.7612   272.5178  1140.2144

       T/K    H(0)-H(T)+PV         H(T)/Eh          T*S/Eh         G(T)/Eh
   ------------------------------------------------------------------------
    298.15    0.521677E-01    0.902961E+00    0.129482E+00    0.773479E+00
   ------------------------------------------------------------------------

         :::::::::::::::::::::::::::::::::::::::::::::::::::::
         ::                  THERMODYNAMIC                  ::
         :::::::::::::::::::::::::::::::::::::::::::::::::::::
         :: total free energy        -141.964527868433 Eh   ::
         ::.................................................::
         :: total energy             -142.738007162647 Eh   ::
         :: zero point energy           0.850793540145 Eh   ::
         :: G(RRHO) w/o ZPVE           -0.077314245932 Eh   ::
         :: G(RRHO) contrib.            0.773479294214 Eh   ::
         :::::::::::::::::::::::::::::::::::::::::::::::::::::

           -------------------------------------------------
          | TOTAL ENERGY             -142.738007162647 Eh   |
          | TOTAL ENTHALPY           -141.835045881820 Eh   |
          | TOTAL FREE ENERGY        -141.964527868433 Eh   |
          | GRADIENT NORM               0.000107897533 Eh/α |
          | HOMO-LUMO GAP               0.650526903354 eV   |
           -------------------------------------------------

 * finished run on 2025/08/25 at 01:00:10.309
