   * xtb version 6.7.1 (edcfbbe) compiled by 'albert@albert-system' on 2024-07-22

   ID    Z sym.   atoms
    1    6 C      1-20, 22-30, 32-54, 56-59, 63-70
    2    7 N      21, 31, 55
    3   16 S      60
    4    8 O      61, 62
    5    1 H      71-133

          program call               : xtb data2507/gas/t3Cz-SO/t3Cz-SO.xyz --gfn 2 --ohess vtight --parallel 40 --molden --ceasefiles --namespace data2507/gas/t3Cz-SO/t3Cz-SO_gas_S0_preOpt
          :  Hamiltonian                  GFN2-xTB          :
 * total energy  :  -189.4524043 Eh     change       -0.4239155E-08 Eh
 * total energy  :  -189.4737767 Eh     change       -0.2137235E-01 Eh
 * total energy  :  -189.4800765 Eh     change       -0.6299827E-02 Eh
 * total energy  :  -189.4818822 Eh     change       -0.1805679E-02 Eh
 * total energy  :  -189.4829293 Eh     change       -0.1047179E-02 Eh
 * total energy  :  -189.4832796 Eh     change       -0.3502793E-03 Eh
 * total energy  :  -189.4834292 Eh     change       -0.1496120E-03 Eh
 * total energy  :  -189.4835286 Eh     change       -0.9940986E-04 Eh
 * total energy  :  -189.4836158 Eh     change       -0.8711804E-04 Eh
 * total energy  :  -189.4837145 Eh     change       -0.9871817E-04 Eh
 * total energy  :  -189.4857522 Eh     change       -0.2707687E-06 Eh
 * total energy  :  -189.4857525 Eh     change       -0.2745572E-06 Eh
 * total energy  :  -189.4857527 Eh     change       -0.2392611E-06 Eh
 * total energy  :  -189.4857529 Eh     change       -0.2273574E-06 Eh
 * total energy  :  -189.4857532 Eh     change       -0.2575999E-06 Eh
 * total energy  :  -189.4857535 Eh     change       -0.3226850E-06 Eh
 * total energy  :  -189.4857540 Eh     change       -0.4511472E-06 Eh
 * total energy  :  -189.4857547 Eh     change       -0.6865823E-06 Eh
 * total energy  :  -189.4857547 Eh     change       -0.2342037E-07 Eh
   *** GEOMETRY OPTIMIZATION CONVERGED AFTER 185 ITERATIONS ***

 final structure:
================
133
 xtb: 6.7.1 (edcfbbe)
C           -7.52195509302839       -3.71531050435806        3.29643056337641
C           -6.05413191909542       -3.41272753684220        3.61034319932440
C           -5.23012496877424       -4.66552511429671        3.28087283992507
C           -5.94368561813028       -3.09622531473914        5.10853693670785
C           -5.51559397370017       -2.23582887331482        2.80968180446931
C           -4.18119676476158       -1.84843944468604        2.99157670882947
C           -3.60411530780702       -0.79862804433671        2.30665062997932
C           -4.38643314406997       -0.10777852539818        1.39431119714852
C           -5.73937388501836       -0.46152108771131        1.21036287064294
C           -6.29424348429001       -1.52252618963310        1.91358937997113
C           -6.27561163563357        0.46397768087824        0.25079281670706
C           -7.52359548554136        0.60940377552653       -0.33335627444026
C           -7.74168717320814        1.61170736987066       -1.26922031781684
C           -9.12453281457322        1.75446575176846       -1.88996435158933
C           -9.48187219937404        0.45333163226851       -2.62255198955186
C           -9.21123354514995        2.90444493019638       -2.89710952084125
C          -10.14741372768606        2.02095115480210       -0.77636374531343
C           -6.67482557445857        2.44684125976424       -1.61240133204664
C           -5.41926874906912        2.32439270549500       -1.04568019544430
C           -5.22156801943771        1.33779388791530       -0.09461990679368
N           -4.08272045020447        0.98246739814047        0.60183918701394
C           -2.84073285878605        1.62472568276941        0.52730704382913
C           -2.77853080978203        3.01840717840401        0.65803543495617
C           -1.58120062425122        3.69894839157976        0.57843289878859
C           -0.42397909268161        2.96197172031585        0.37025680695116
C           -0.47002462095460        1.55285990701417        0.27979821622217
C           -1.68242718953210        0.88281489260942        0.34273768083571
C            0.88745296109705        1.10741510629304        0.13043847187844
C            1.45967499080575       -0.14731656561929       -0.01304466776648
C            2.83554911419252       -0.23413448518203       -0.17354836155157
N            3.44728369416605       -1.48394470100648       -0.33102533176612
C            3.05438084890060       -2.47349220681273       -1.21147542741550
C            2.03474827564882       -2.48426346844854       -2.15058185954351
C            1.88129553133481       -3.61402925002339       -2.92786436931727
C            2.71148891896466       -4.73714270013715       -2.81283397948741
C            2.45165041894795       -5.93702497617277       -3.71223744966267
C            2.58294912821391       -5.50592881391563       -5.17985654542227
C            3.43714380735011       -7.08240955693912       -3.46437041786310
C            1.03413194988008       -6.46505531455681       -3.44980467724233
C            3.74261899977282       -4.70464304706505       -1.88880821070706
C            3.92023658048719       -3.58059229172325       -1.09301398209560
C            4.88272915434962       -3.23847447539490       -0.08229407723321
C            5.95552787730599       -3.91521568501064        0.47539872974462
C            6.71012366495478       -3.31912541283818        1.47707014810858
C            7.88821133260679       -4.08176016008670        2.06742659101890
C            7.37713591583452       -5.38793110413160        2.69187892705180
C            8.62568872205411       -3.29398089820158        3.15365337550807
C            8.89051213413012       -4.39876687644332        0.94833292102167
C            6.34932202745616       -2.04091707638413        1.91232261385256
C            5.28383156586871       -1.34264461627901        1.37407540199606
C            4.55543204662743       -1.93717367322255        0.35772764980813
C            3.62249718172752        0.92468930639058       -0.19880223289026
C            3.06823393389938        2.17778002521380       -0.03749690684360
C            1.69549855548672        2.26649016517112        0.14516070952303
N            0.89182853703556        3.38316773060373        0.28854506141788
C            1.33217006161834        4.70635375754959        0.34777978842059
C            2.38738899089447        5.05500408920709        1.19278795686725
C            2.82093621321692        6.36518740157805        1.24933411665360
C            2.19658862759433        7.32436123620764        0.47384163786149
S            2.79560743699150        9.01684012472169        0.53165024986412
O            1.85221944708722        9.85493178837790       -0.15932191772560
O            3.13947724576711        9.33907325524233        1.89099513900590
C            4.30749518881826        8.91528944966099       -0.43481462645650
C            4.21428988484057        8.84270475075047       -1.81115617655745
C            5.37303962379889        8.72593147790279       -2.56036359551278
C            6.60445150811791        8.67941983314150       -1.92440148765005
C            6.68506206669896        8.75419495069871       -0.54269995978310
C            5.52770433164509        8.87091109747059        0.20971131452223
C            1.14951996298204        6.99474266218643       -0.36514032599236
C            0.71529403336598        5.68466649496115       -0.43283671087448
H           -7.65343482452642       -3.96625007368243        2.24637302204066
H           -7.85150036812752       -4.56655383674133        3.88907336074301
H           -8.15767439991134       -2.86839609521110        3.54416466225991
H           -5.28789657570432       -4.88323807068782        2.21630003526280
H           -4.18447862068242       -4.53411169644852        3.54465042114662
H           -5.61429722566362       -5.52269030565862        3.83016178375483
H           -6.34536401931714       -3.91887441543385        5.69672839575341
H           -6.50694755931822       -2.19554233738037        5.34408924308148
H           -4.91077033911542       -2.93851107759753        5.40595575919598
H           -3.56660760386345       -2.38428934109259        3.69895927066301
H           -2.57699814448734       -0.52126050516153        2.49159650323657
H           -7.33046719875975       -1.76510038168014        1.74684504758145
H           -8.31340054143008       -0.06956688138216       -0.05090550019750
H          -10.46231637150658        0.54015616854605       -3.08651023029571
H           -8.74875799835191        0.24668786488117       -3.39963545131714
H           -9.50186349805891       -0.39243311072827       -1.94103902901116
H          -10.22139135843438        2.95777615802094       -3.29869923764043
H           -8.98816293741662        3.85778954334682       -2.42358766220219
H           -8.52817309693268        2.74964829057224       -3.72917105005114
H           -9.88993801224249        2.93231447022500       -0.24053650055575
H          -11.14266374275864        2.13886317613441       -1.20020930171955
H          -10.17694594647138        1.20356830037523       -0.06140351011548
H           -6.81354830565704        3.22140951207699       -2.34842202032836
H           -4.61637412388629        2.97880108655367       -1.35132925851849
H           -3.69196048066838        3.56267118667534        0.84257990406057
H           -1.55151213845820        4.77053924333038        0.70110495908473
H           -1.72817418286849       -0.19032399712462        0.24348632190378
H            0.85251133473362       -1.03865995535657        0.00624594821390
H            1.38387420292283       -1.63310863178117       -2.28479092120775
H            1.08383617677718       -3.61801621209849       -3.65536862155111
H            3.57885730808197       -5.10933901190885       -5.36671718826793
H            1.85799566894627       -4.73794247762981       -5.43458156019473
H            2.42120411718436       -6.35785586731572       -5.83719703599990
H            3.20123394992629       -7.91336769063534       -4.12638797753795
H            4.45883892589323       -6.77069200579754       -3.66880807634918
H            3.37061336382671       -7.44039854011613       -2.43955224077051
H            0.92894128798091       -6.75450444437562       -2.40617483042342
H            0.28248997549962       -5.71255562787186       -3.67114040391520
H            0.83684748730630       -7.33603079093378       -4.07149035446820
H            4.42167582765347       -5.53239168391442       -1.76993609618059
H            6.18664812901903       -4.90790021455145        0.12083238523555
H            6.64798924118942       -5.17164503668484        3.47003237917114
H            6.90274850559093       -6.02304597608346        1.94907623500472
H            8.20263181457559       -5.94081856676460        3.13563314961940
H            9.02874591525452       -2.36433516066225        2.75835640705754
H            9.45737583711746       -3.88736256120655        3.52877228100599
H            7.96878278629390       -3.07160360582149        3.99139282318851
H            8.43912838464761       -5.01277081490559        0.17413980133155
H            9.24401212464325       -3.47780786783494        0.48903499675049
H            9.74734838890610       -4.93470327747377        1.35164235423132
H            6.90787986249395       -1.56374166950076        2.70054099945090
H            5.02619872540176       -0.36391645731798        1.75102132089779
H            4.68420159481069        0.82645323852625       -0.36600128631090
H            3.68829734800281        3.06024541073455       -0.07800255505211
H            2.84234234371313        4.29969674620329        1.81495446963387
H            3.62090297134204        6.66230187425365        1.90882005118908
H            3.24212602429338        8.89667104340966       -2.27539603115153
H            5.31761179325831        8.67409860382608       -3.63720645209664
H            7.50708079947299        8.59006110014900       -2.51041704182498
H            7.64692245149402        8.72463170046801       -0.05350145445554
H            5.55027999715330        8.94614951580512        1.28566729555656
H            0.68563873484006        7.77537863542645       -0.94733836907897
H           -0.08854154910977        5.40755737337793       -1.09740042752000

          :  Hamiltonian                  GFN2-xTB          :
         :: gradient norm              0.000090046587 Eh/a0 ::
         :: HOMO-LUMO gap              2.067920899046 eV    ::
         :: SCC energy              -192.723670969298 Eh    ::
         :: -> dispersion             -0.174839339144 Eh    ::
         :: repulsion energy           3.237916282112 Eh    ::

    * Orbital Energies and Occupations

         #    Occupation            Energy/Eh            Energy/eV
      -------------------------------------------------------------
         1        2.0000           -0.7710629             -20.9817
       ...           ...                  ...                  ...
       164        2.0000           -0.4065811             -11.0636
       165        2.0000           -0.4059799             -11.0473
       166        2.0000           -0.4046809             -11.0119
       167        2.0000           -0.4043318             -11.0024
       168        2.0000           -0.4030020             -10.9662
       169        2.0000           -0.3939495             -10.7199
       170        2.0000           -0.3925371             -10.6815
       171        2.0000           -0.3912089             -10.6453
       172        2.0000           -0.3820068             -10.3949
       173        2.0000           -0.3705211             -10.0824
       174        2.0000           -0.3691502             -10.0451
       175        2.0000           -0.3535836              -9.6215
       176        2.0000           -0.3499691              -9.5231 (HOMO)
       177                         -0.2739744              -7.4552 (LUMO)
       178                         -0.2604193              -7.0864
       179                         -0.2568871              -6.9903
       180                         -0.2540778              -6.9138
       181                         -0.2510716              -6.8320
       182                         -0.2416018              -6.5743
       183                         -0.2370978              -6.4518
       184                         -0.2336685              -6.3584
       185                         -0.2146009              -5.8396
       186                         -0.2133662              -5.8060
       187                         -0.2130497              -5.7974
       ...                                ...                  ...
       348                          1.2044920              32.7759
      -------------------------------------------------------------
                  HL-Gap            0.0759947 Eh            2.0679 eV

     #   Z          covCN         q      C6AA      α(0)
     1   6 C        3.761    -0.107    22.581     6.774
     2   6 C        3.903     0.026    20.088     6.371
     3   6 C        3.762    -0.105    22.551     6.770
     4   6 C        3.762    -0.105    22.551     6.770
     5   6 C        2.973    -0.003    28.087     8.693
     6   6 C        2.931    -0.039    28.981     8.829
     7   6 C        2.908    -0.054    29.346     8.883
     8   6 C        3.079     0.042    26.966     8.513
     9   6 C        3.067    -0.020    28.445     8.745
    10   6 C        2.918    -0.044    29.084     8.844
    11   6 C        3.067    -0.020    28.431     8.743
    12   6 C        2.920    -0.040    28.986     8.829
    13   6 C        2.972    -0.003    28.088     8.693
    14   6 C        3.903     0.026    20.088     6.371
    15   6 C        3.762    -0.105    22.550     6.769
    16   6 C        3.761    -0.106    22.582     6.774
    17   6 C        3.762    -0.105    22.552     6.770
    18   6 C        2.928    -0.044    29.098     8.846
    19   6 C        2.909    -0.055    29.364     8.886
    20   6 C        3.078     0.042    26.975     8.515
    21   7 N        2.802    -0.045    22.116     6.985
    22   6 C        2.912     0.057    26.715     8.475
    23   6 C        2.927    -0.045    29.123     8.850
    24   6 C        2.909    -0.050    29.242     8.867
    25   6 C        3.073     0.042    26.991     8.518
    26   6 C        3.067    -0.014    28.290     8.722
    27   6 C        2.916    -0.047    29.173     8.857
    28   6 C        3.067    -0.014    28.283     8.720
    29   6 C        2.916    -0.047    29.169     8.856
    30   6 C        2.912     0.057    26.723     8.477
    31   7 N        2.802    -0.046    22.119     6.985
    32   6 C        3.080     0.042    26.967     8.514
    33   6 C        2.908    -0.054    29.348     8.883
    34   6 C        2.931    -0.039    28.981     8.829
    35   6 C        2.973    -0.003    28.086     8.693
    36   6 C        3.903     0.026    20.088     6.371
    37   6 C        3.761    -0.105    22.551     6.769
    38   6 C        3.761    -0.107    22.582     6.774
    39   6 C        3.762    -0.105    22.553     6.770
    40   6 C        2.918    -0.044    29.084     8.844
    41   6 C        3.067    -0.020    28.447     8.746
    42   6 C        3.067    -0.020    28.433     8.744
    43   6 C        2.920    -0.040    28.987     8.829
    44   6 C        2.972    -0.003    28.090     8.694
    45   6 C        3.903     0.026    20.088     6.371
    46   6 C        3.762    -0.105    22.552     6.770
    47   6 C        3.761    -0.106    22.581     6.774
    48   6 C        3.762    -0.105    22.551     6.769
    49   6 C        2.928    -0.044    29.101     8.847
    50   6 C        2.909    -0.055    29.367     8.886
    51   6 C        3.078     0.042    26.975     8.515
    52   6 C        2.927    -0.046    29.141     8.853
    53   6 C        2.909    -0.051    29.257     8.869
    54   6 C        3.072     0.041    26.999     8.520
    55   7 N        2.802    -0.037    21.948     6.958
    56   6 C        2.913     0.071    26.417     8.428
    57   6 C        2.924    -0.040    28.993     8.830
    58   6 C        2.957    -0.027    28.673     8.783
    59   6 C        2.970    -0.080    29.993     8.983
    60  16 S        3.815     0.941   108.355    17.520
    61   8 O        0.860    -0.538    24.635     6.655
    62   8 O        0.860    -0.538    24.634     6.654
    63   6 C        2.972    -0.073    29.828     8.958
    64   6 C        2.959    -0.027    28.677     8.784
    65   6 C        2.922    -0.023    28.589     8.768
    66   6 C        2.920    -0.024    28.600     8.770
    67   6 C        2.922    -0.023    28.589     8.768
    68   6 C        2.955    -0.026    28.642     8.778
    69   6 C        2.954    -0.025    28.635     8.777
    70   6 C        2.924    -0.040    29.003     8.832
    71   1 H        0.925     0.035     2.515     2.480
    72   1 H        0.925     0.034     2.526     2.485
    73   1 H        0.925     0.035     2.515     2.480
    74   1 H        0.925     0.033     2.545     2.495
    75   1 H        0.925     0.035     2.512     2.479
    76   1 H        0.925     0.035     2.514     2.480
    77   1 H        0.925     0.035     2.513     2.479
    78   1 H        0.925     0.033     2.544     2.494
    79   1 H        0.925     0.035     2.514     2.479
    80   1 H        0.926     0.028     2.617     2.530
    81   1 H        0.926     0.024     2.677     2.559
    82   1 H        0.926     0.036     2.505     2.475
    83   1 H        0.926     0.030     2.593     2.518
    84   1 H        0.925     0.035     2.515     2.480
    85   1 H        0.925     0.033     2.551     2.498
    86   1 H        0.925     0.036     2.504     2.475
    87   1 H        0.925     0.035     2.522     2.484
    88   1 H        0.925     0.035     2.519     2.482
    89   1 H        0.925     0.034     2.524     2.484
    90   1 H        0.925     0.033     2.548     2.496
    91   1 H        0.925     0.035     2.516     2.480
    92   1 H        0.925     0.036     2.504     2.474
    93   1 H        0.926     0.034     2.524     2.485
    94   1 H        0.926     0.023     2.695     2.567
    95   1 H        0.926     0.046     2.372     2.409
    96   1 H        0.926     0.036     2.497     2.471
    97   1 H        0.926     0.046     2.367     2.406
    98   1 H        0.926     0.047     2.362     2.403
    99   1 H        0.926     0.024     2.677     2.559
   100   1 H        0.926     0.028     2.615     2.529
   101   1 H        0.925     0.033     2.549     2.497
   102   1 H        0.925     0.035     2.514     2.480
   103   1 H        0.925     0.035     2.511     2.478
   104   1 H        0.925     0.034     2.524     2.485
   105   1 H        0.925     0.035     2.518     2.482
   106   1 H        0.925     0.035     2.512     2.479
   107   1 H        0.925     0.033     2.541     2.493
   108   1 H        0.925     0.035     2.511     2.478
   109   1 H        0.925     0.035     2.512     2.479
   110   1 H        0.926     0.036     2.505     2.475
   111   1 H        0.926     0.030     2.592     2.518
   112   1 H        0.925     0.033     2.546     2.495
   113   1 H        0.925     0.036     2.503     2.474
   114   1 H        0.925     0.035     2.514     2.479
   115   1 H        0.925     0.034     2.527     2.486
   116   1 H        0.925     0.035     2.521     2.483
   117   1 H        0.925     0.035     2.520     2.482
   118   1 H        0.925     0.036     2.503     2.474
   119   1 H        0.925     0.032     2.555     2.500
   120   1 H        0.925     0.035     2.515     2.480
   121   1 H        0.926     0.034     2.529     2.487
   122   1 H        0.926     0.022     2.699     2.569
   123   1 H        0.926     0.044     2.399     2.422
   124   1 H        0.926     0.032     2.557     2.501
   125   1 H        0.926     0.058     2.223     2.332
   126   1 H        0.926     0.058     2.221     2.331
   127   1 H        0.926     0.054     2.271     2.357
   128   1 H        0.926     0.050     2.316     2.380
   129   1 H        0.926     0.050     2.323     2.383
   130   1 H        0.926     0.051     2.304     2.373
   131   1 H        0.926     0.063     2.159     2.298
   132   1 H        0.926     0.068     2.107     2.270
   133   1 H        0.926     0.059     2.216     2.328

molecular dipole:
                 x           y           z       tot (Debye)
 q only:        1.066      -1.498      -1.083
   full:        1.161      -1.233      -1.067       5.088

 projected vibrational frequencies (cm⁻¹)
eigval :       -0.00    -0.00     0.00     0.00     0.00     0.00
eigval :        4.99     7.99     8.18     9.38    10.87    12.57
eigval :       19.90    22.28    23.70    30.54    30.93    32.40
eigval :       32.58    33.97    47.53    57.34    63.20    63.42
eigval :       72.02    75.20    76.33    81.12    90.06   104.38
eigval :      115.34   120.09   121.54   125.23   129.21   137.65
eigval :      145.27   158.07   158.98   172.99   175.97   178.93
eigval :      179.77   183.29   194.12   194.28   196.14   202.74
eigval :      215.98   217.65   217.78   222.33   225.01   237.41
eigval :      239.38   243.62   249.92   262.99   267.38   277.18
eigval :      283.16   288.65   296.01   298.54   300.64   303.08
eigval :      316.81   317.57   318.93   320.48   325.15   325.79
eigval :      325.85   336.38   348.31   352.87   354.99   357.25
eigval :      357.27   363.12   365.52   371.81   376.76   379.95
eigval :      386.47   393.92   400.11   401.47   404.10   411.81
eigval :      412.36   415.98   430.84   437.34   442.80   443.71
eigval :      444.14   445.16   449.21   458.69   461.54   466.24
eigval :      466.98   471.15   475.52   484.93   501.42   513.99
eigval :      518.85   521.29   542.40   544.94   556.91   557.56
eigval :      577.84   582.84   584.05   585.04   585.89   587.79
eigval :      599.54   609.72   620.46   636.12   639.19   639.23
eigval :      641.77   644.58   657.88   664.05   678.66   681.26
eigval :      687.47   687.63   692.35   705.36   707.08   707.40
eigval :      712.39   719.46   720.70   732.77   744.30   752.58
eigval :      810.98   813.30   815.51   817.33   821.47   822.01
eigval :      830.09   832.45   832.58   836.91   869.41   870.16
eigval :      873.96   874.00   877.27   880.47   881.04   881.38
eigval :      885.15   885.79   890.07   903.42   904.68   906.57
eigval :      914.71   915.98   916.93   919.56   923.37   926.22
eigval :      926.86   927.68   930.48   931.64   932.90   933.24
eigval :      933.92   959.96   959.97   960.31   960.34   961.65
eigval :      962.51   962.55   962.56   962.88   962.93   963.09
eigval :      963.15   965.26   968.53   999.99  1006.93  1031.29
eigval :     1032.95  1034.58  1035.82  1035.88  1035.92  1035.94
eigval :     1035.96  1036.25  1040.32  1040.38  1069.71  1088.00
eigval :     1102.61  1107.39  1114.34  1114.99  1117.84  1128.92
eigval :     1131.04  1131.11  1133.70  1138.92  1140.30  1155.92
eigval :     1169.67  1177.85  1178.65  1179.01  1179.39  1193.37
eigval :     1197.40  1198.74  1223.54  1227.13  1227.93  1227.97
eigval :     1228.29  1228.36  1230.21  1232.22  1233.39  1235.30
eigval :     1237.43  1239.79  1240.16  1242.34  1247.99  1250.53
eigval :     1254.46  1259.86  1260.68  1272.30  1284.68  1286.51
eigval :     1289.48  1302.61  1303.14  1310.86  1311.56  1320.27
eigval :     1322.55  1342.33  1345.67  1346.96  1348.67  1351.93
eigval :     1366.12  1366.47  1384.32  1391.40  1399.20  1402.34
eigval :     1402.72  1404.54  1404.57  1405.94  1405.98  1406.12
eigval :     1406.13  1412.67  1414.30  1421.43  1429.39  1429.53
eigval :     1429.54  1429.55  1430.48  1431.92  1444.41  1445.24
eigval :     1450.00  1474.62  1475.70  1476.28  1477.68  1484.48
eigval :     1485.06  1492.49  1492.54  1492.63  1492.66  1494.03
eigval :     1495.36  1495.36  1495.37  1495.50  1502.00  1502.08
eigval :     1502.94  1502.98  1505.91  1505.92  1506.17  1506.21
eigval :     1515.24  1515.27  1515.67  1515.82  1520.95  1520.97
eigval :     1520.99  1521.02  1560.65  1568.64  1571.57  1574.84
eigval :     1577.35  1577.81  1578.11  1584.72  1585.24  1597.86
eigval :     1599.57  1605.71  1605.76  1614.54  1619.76  1620.23
eigval :     3019.98  3020.00  3020.35  3020.50  3021.64  3021.64
eigval :     3021.75  3021.93  3026.34  3026.51  3026.52  3026.59
eigval :     3028.70  3028.88  3029.24  3029.46  3030.53  3030.63
eigval :     3030.66  3030.74  3035.12  3035.23  3035.29  3035.39
eigval :     3037.52  3037.62  3037.81  3037.86  3046.84  3046.96
eigval :     3047.42  3047.46  3050.21  3050.56  3051.04  3051.13
eigval :     3077.32  3077.43  3078.53  3078.84  3082.86  3087.07
eigval :     3088.46  3088.65  3089.48  3091.05  3091.40  3091.52
eigval :     3096.29  3096.41  3097.14  3101.17  3102.03  3103.62
eigval :     3104.83  3104.85  3105.35  3107.77  3108.17  3116.31
eigval :     3116.45  3117.40  3117.79

   temp. (K)  partition function   enthalpy   heat capacity  entropy
                                   cal/mol     cal/K/mol   cal/K/mol   J/K/mol
 298.15  VIB  0.575E+33            39573.779    239.867    248.792
         ROT  0.424E+09              888.752      2.981     42.457
         INT  0.243E+42            40462.531    242.848    291.249
         TR   0.278E+29             1481.254      4.968     46.371
         TOT                       41943.7851   247.8159   337.6196  1412.6005

       T/K    H(0)-H(T)+PV         H(T)/Eh          T*S/Eh         G(T)/Eh
   ------------------------------------------------------------------------
    298.15    0.668417E-01    0.115221E+01    0.160414E+00    0.991800E+00
   ------------------------------------------------------------------------

         :::::::::::::::::::::::::::::::::::::::::::::::::::::
         ::                  THERMODYNAMIC                  ::
         :::::::::::::::::::::::::::::::::::::::::::::::::::::
         :: total free energy        -188.493954808937 Eh   ::
         ::.................................................::
         :: total energy             -189.485754687188 Eh   ::
         :: zero point energy           1.085372175492 Eh   ::
         :: G(RRHO) w/o ZPVE           -0.093572297241 Eh   ::
         :: G(RRHO) contrib.            0.991799878251 Eh   ::
         :::::::::::::::::::::::::::::::::::::::::::::::::::::

           -------------------------------------------------
          | TOTAL ENERGY             -189.485754687188 Eh   |
          | TOTAL ENTHALPY           -188.333540835420 Eh   |
          | TOTAL FREE ENERGY        -188.493954808937 Eh   |
          | GRADIENT NORM               0.000090041581 Eh/α |
          | HOMO-LUMO GAP               2.067921193432 eV   |
           -------------------------------------------------

 * finished run on 2025/07/20 at 14:53:39.227
