   * xtb version 6.7.1 (edcfbbe) compiled by 'albert@albert-system' on 2024-07-22

   ID    Z sym.   atoms
    1    6 C      1-20, 22-30, 32-54, 56-59, 63-70
    2    7 N      21, 31, 55
    3   16 S      60
    4    8 O      61, 62
    5    1 H      71-133

          program call               : xtb data2507/gas/t3Cz-SO/t3Cz-SO_gas_S0_finalOpt.xtbopt.xyz --gfn 2 --spinpol --tblite --uhf 2 --ohess vtight --parallel 40 --molden --ceasefiles --namespace data2507/gas/t3Cz-SO/t3Cz-SO_gas_T1_preOpt
 * total energy  :  -189.3918697 Eh     change       -0.3813585E-07 Eh
 * total energy  :  -189.3938134 Eh     change       -0.1943672E-02 Eh
 * total energy  :  -189.3943588 Eh     change       -0.5454631E-03 Eh
 * total energy  :  -189.3944260 Eh     change       -0.6716853E-04 Eh
 * total energy  :  -189.3944688 Eh     change       -0.4276223E-04 Eh
 * total energy  :  -189.3944862 Eh     change       -0.1745294E-04 Eh
 * total energy  :  -189.3945086 Eh     change       -0.2242764E-04 Eh
 * total energy  :  -189.3945248 Eh     change       -0.1611510E-04 Eh
 * total energy  :  -189.3945430 Eh     change       -0.1822269E-04 Eh
 * total energy  :  -189.3945539 Eh     change       -0.1093264E-04 Eh
 * total energy  :  -189.3948572 Eh     change       -0.6574147E-06 Eh
 * total energy  :  -189.3948579 Eh     change       -0.6357962E-06 Eh
 * total energy  :  -189.3948583 Eh     change       -0.4097309E-06 Eh
 * total energy  :  -189.3948590 Eh     change       -0.7699812E-06 Eh
 * total energy  :  -189.3948592 Eh     change       -0.1437270E-06 Eh
 * total energy  :  -189.3948597 Eh     change       -0.5282025E-06 Eh
 * total energy  :  -189.3948591 Eh     change        0.5779174E-06 Eh
 * total energy  :  -189.3948599 Eh     change       -0.7527854E-06 Eh
 * total energy  :  -189.3948599 Eh     change       -0.1235748E-07 Eh
   *** GEOMETRY OPTIMIZATION CONVERGED AFTER 98 ITERATIONS ***

 final structure:
================
133
 xtb: 6.7.1 (edcfbbe)
C           -7.48772431911995       -1.05097334613514        4.41692609898311
C           -7.60935732950982       -1.42759228322375        2.93332286061736
C           -9.06573553535660       -1.22181637060342        2.50806603424409
C           -7.26328302740680       -2.91139578678481        2.74268893857990
C           -6.63826971059244       -0.58229386778830        2.12386849805031
C           -5.26752675660038       -0.67807693120070        2.39651413019125
C           -4.31317683614985        0.04493904232812        1.70856941491501
C           -4.74127426914237        0.88995948749286        0.69533006418461
C           -6.11964148077358        1.03012923952273        0.42423680755887
C           -7.05754008699468        0.29469780588116        1.13249189073758
C           -6.22994754709665        2.01663324741665       -0.61820268539702
C           -7.31112935459163        2.54614953282991       -1.30558010592480
C           -7.09735092890832        3.48462652406209       -2.30623891105278
C           -8.23514331875383        4.11517794822409       -3.09367616415465
C           -9.61110362614281        3.61935472635306       -2.64038957570766
C           -8.06962699185464        3.77008151405546       -4.58066003630402
C           -8.19198455330970        5.63834519098873       -2.90475393544752
C           -5.77957668944913        3.85216356231114       -2.60802740931827
C           -4.68528617947667        3.33945321090412       -1.94008054025188
C           -4.91339013679731        2.42935114435317       -0.91842321629468
N           -4.02094147108780        1.74132287225708       -0.11966494944319
C           -2.63338067050353        1.87275527061069       -0.12840966341364
C           -2.06008842653719        3.15490239696991       -0.14492651012129
C           -0.67629407393810        3.31476448035237       -0.12968624708208
C            0.11674299014380        2.18572218428681       -0.10695531409131
C           -0.45484617864733        0.87198110413424       -0.14262890079584
C           -1.84307987830286        0.72622422001778       -0.13146931284542
C            0.62193750651290       -0.04474863012754       -0.18595322493122
C            0.70125278150530       -1.43856836014575       -0.22598118699111
C            1.95971550949098       -2.03462232492788       -0.20722706532086
N            2.05598174610524       -3.42449074841516       -0.24317094048503
C            2.91418502595000       -4.16132174976380       -1.03596240981976
C            3.81599418721695       -3.74803086467209       -2.00526009408798
C            4.52899925138777       -4.71709251067602       -2.68311940532984
C            4.37101821318468       -6.08788921002564       -2.44113148344449
C            5.21125676792997       -7.07625989037200       -3.23459263334375
C            4.90346711116698       -6.91145104316629       -4.72981149203322
C            6.69786519457974       -6.79322928993017       -2.97479192205627
C            4.93065531259153       -8.53119835379518       -2.84862008781152
C            3.44086919702362       -6.49079226996055       -1.49238610344265
C            2.71268930818032       -5.53809819621032       -0.79644655046888
C            1.68101554197535       -5.63050137441673        0.20288298699708
C            1.08329161166281       -6.70294724329024        0.84712852177958
C            0.11124025546078       -6.47156333939695        1.81103473752201
C           -0.59316932341187       -7.59853551269680        2.55032178043789
C           -2.10479952508439       -7.49431760148894        2.30163639522152
C           -0.30268111945617       -7.47308046445846        4.05284952453006
C           -0.13121625325259       -8.98403749002919        2.09070794334821
C           -0.21993460404556       -5.14658616317812        2.12256778106042
C            0.36197025626989       -4.06075579991171        1.49842035163354
C            1.30463861660399       -4.30507336283226        0.51077848354998
C            3.13246985277209       -1.26440193133276       -0.14226702679718
C            3.06764884304526        0.12726304779077       -0.11298276162408
C            1.82687605697761        0.72870058642822       -0.15923033338641
N            1.49285724152131        2.06833640976694       -0.12133460158225
C            2.39873643824245        3.12309398955546       -0.11790377460935
C            2.23563792631984        4.19773515089835        0.77573648743650
C            3.13380356508178        5.23609373900327        0.77415535606305
C            4.19817888252629        5.23465744551217       -0.12527978622361
S            5.41061134970773        6.53093213350791       -0.05106732354398
O            6.10693253122359        6.59683489193798       -1.31192557503667
O            4.79045927886674        7.73043115601935        0.45438278966798
C            6.52932719412486        5.89317309631682        1.19389709423294
C            6.31525619099744        6.20532358302504        2.52530251061573
C            7.12818528815553        5.64269144910180        3.49250309205954
C            8.14114314060686        4.76883150061242        3.12336623774496
C            8.34717130968038        4.46133034570862        1.78559110541686
C            7.53648513508433        5.02206825674639        0.81565991811492
C            4.37404526050883        4.17361543232842       -1.01120238268760
C            3.48607292399785        3.12637936132753       -1.01099403067884
H           -8.19248436899819       -1.63100827641869        5.00888944040380
H           -6.48760536177861       -1.24254762829243        4.79531683686023
H           -7.70770314908692        0.00551489146336        4.55548331593924
H           -9.37659176910589       -0.19085156327301        2.66013603538656
H           -9.21011655814783       -1.48938155107812        1.46383220491440
H           -9.71163843019401       -1.85799948733625        3.10978055388115
H           -7.32704960613024       -3.17978630423388        1.69016444790402
H           -7.96101683809456       -3.53253714404890        3.30023329927283
H           -6.25845739839972       -3.13390287719715        3.09035062586090
H           -4.92914396751390       -1.33720722923194        3.18101929765371
H           -3.26870123629524       -0.03898215107596        1.96663263383647
H           -8.10090070670736        0.42574093297230        0.89985403687016
H           -8.30188883773031        2.20996406058255       -1.04985597537038
H           -9.78661261914766        3.85484716591776       -1.59321243042966
H          -10.38397203748154        4.11002118104596       -3.22845853622189
H           -9.70944387247908        2.54632490588242       -2.78792497368022
H           -8.88877043823807        4.19564193616312       -5.15632058029571
H           -7.13687064470933        4.15989304659286       -4.97812360182131
H           -8.07434151922248        2.69081070916756       -4.71884609498573
H           -9.01189592918236        6.10543394223132       -3.44609409451494
H           -8.28731221625433        5.88897145470976       -1.85025350556866
H           -7.26006744458852        6.05882104313079       -3.27166135489171
H           -5.59665494073803        4.56303255860920       -3.39879882888391
H           -3.68512561088282        3.63177994694093       -2.21970978996357
H           -2.70006983793130        4.02123870271787       -0.12100900554714
H           -0.24983452160247        4.30506733279117       -0.13626657614595
H           -2.29525545575956       -0.25143042772792       -0.18240235432774
H           -0.18946837160774       -2.03916726298471       -0.31847052941690
H            3.95151453422927       -2.70306763762181       -2.23713939904749
H            5.23209422100940       -4.39007381607701       -3.43339473443583
H            5.15028176614842       -5.91292681909441       -5.07912546743186
H            3.84604103703246       -7.08636107055173       -4.91731576509152
H            5.48043199205218       -7.62742551207420       -5.31117776373896
H            6.91839879862880       -6.88780165670151       -1.91350471984908
H            7.31455743549609       -7.50432783219507       -3.52024146724448
H            6.97382625888730       -5.79163321163526       -3.29193017743492
H            5.56476898092469       -9.19039257808727       -3.43792287776025
H            5.14965688510952       -8.70667933491549       -1.79785803677450
H            3.89516025464084       -8.79707504925184       -3.04823026806860
H            3.26259686020998       -7.53229218597880       -1.28390807532506
H            1.39358692919606       -7.70097580552541        0.58723443926055
H           -2.31572972399079       -7.56235609821973        1.23638100520231
H           -2.62382953982890       -8.30483484236749        2.80876048458900
H           -2.50488012566797       -6.55325596248299        2.66822592525709
H            0.76917646643715       -7.52105238225638        4.23343034642369
H           -0.78101419362796       -8.28581333740830        4.59525739969095
H           -0.67316423262240       -6.53339170169608        4.45260953580048
H            0.93021479312024       -9.12614176385267        2.28005438633379
H           -0.67463223212172       -9.74813136507492        2.64283627363822
H           -0.32916437039184       -9.13125827133742        1.03146970741517
H           -0.95604306322845       -4.95118009215057        2.88698919845504
H            0.09750919544094       -3.05500202187111        1.78652647441995
H            4.08583003307504       -1.75998348022133       -0.06103445634504
H            3.97185886943253        0.70853689084172       -0.02066905210877
H            1.42193850447126        4.17538190876461        1.48451479921952
H            3.03054867614018        6.07143394371594        1.44810420988428
H            5.52862544330304        6.89968960631604        2.77534763743735
H            6.97693328790105        5.88503970529256        4.53400791162541
H            8.77563881151668        4.33083240945245        3.87959690392452
H            9.14179945810127        3.78678994690918        1.50280423996196
H            7.67863005476594        4.81647894963828       -0.23362761760655
H            5.19684863292054        4.21653053528386       -1.70682473665616
H            3.58412421300750        2.32083158058480       -1.72286727861052

 projected vibrational frequencies (cm⁻¹)
eigval :       -0.00    -0.00    -0.00     0.00     0.00     0.00
eigval :        3.80     7.98     8.87     9.08    10.86    13.49
eigval :       22.27    23.28    27.91    30.29    30.38    32.85
eigval :       33.11    33.96    49.86    58.50    60.89    63.53
eigval :       69.27    71.91    78.76    87.67    95.82   108.42
eigval :      114.46   118.72   123.04   126.55   135.24   139.74
eigval :      142.81   158.49   160.55   171.14   173.45   176.04
eigval :      183.86   186.22   195.27   200.43   201.81   206.08
eigval :      215.68   218.56   220.50   221.81   224.84   229.89
eigval :      231.78   234.51   242.13   257.58   257.79   273.32
eigval :      275.19   278.51   287.77   293.91   301.57   308.56
eigval :      317.83   318.04   319.97   322.06   322.69   326.68
eigval :      332.34   338.36   340.25   343.66   355.84   358.48
eigval :      358.83   360.96   364.11   366.42   376.29   379.60
eigval :      382.06   386.94   395.20   398.66   403.75   406.53
eigval :      408.18   408.42   414.09   428.00   440.27   441.60
eigval :      441.63   441.85   446.44   457.32   461.62   463.93
eigval :      465.78   466.13   476.26   485.90   499.82   505.46
eigval :      514.72   519.82   529.80   543.14   549.09   551.52
eigval :      573.53   585.00   585.22   586.01   587.60   591.31
eigval :      595.78   601.20   614.71   626.42   632.58   639.97
eigval :      641.30   641.48   650.74   654.94   656.93   661.87
eigval :      670.58   683.07   690.65   690.88   705.61   707.31
eigval :      710.37   717.77   719.86   726.60   736.37   744.86
eigval :      781.90   783.62   799.78   805.83   809.62   812.93
eigval :      825.65   826.59   830.62   831.37   832.87   835.26
eigval :      850.97   865.79   868.30   869.76   870.28   871.93
eigval :      872.86   874.42   874.85   877.32   883.89   894.80
eigval :      907.07   910.88   914.23   915.05   915.90   916.51
eigval :      917.03   922.96   924.28   924.77   926.22   930.10
eigval :      932.35   952.40   960.31   960.37   960.47   960.47
eigval :      962.87   962.92   963.12   963.27   963.31   963.35
eigval :      963.43   963.50   967.54   985.74   993.18  1024.88
eigval :     1031.06  1031.38  1034.91  1035.00  1035.03  1035.13
eigval :     1035.76  1035.79  1041.65  1041.69  1067.19  1072.13
eigval :     1086.67  1090.07  1103.00  1103.66  1110.02  1115.36
eigval :     1118.86  1119.42  1128.69  1128.87  1134.26  1136.68
eigval :     1165.44  1166.81  1167.22  1177.37  1180.12  1187.83
eigval :     1193.41  1193.90  1197.32  1224.27  1225.34  1226.72
eigval :     1226.81  1226.83  1226.87  1228.24  1229.41  1230.20
eigval :     1231.76  1232.19  1232.88  1233.15  1234.02  1240.40
eigval :     1248.84  1251.19  1257.29  1258.19  1261.48  1262.75
eigval :     1282.08  1282.27  1293.11  1294.67  1294.81  1298.60
eigval :     1315.80  1325.80  1332.10  1341.54  1341.72  1342.72
eigval :     1344.65  1352.51  1358.65  1379.88  1385.28  1401.55
eigval :     1402.08  1404.84  1404.90  1405.60  1405.93  1405.99
eigval :     1406.04  1407.73  1409.29  1410.55  1414.71  1416.08
eigval :     1424.15  1428.38  1428.55  1428.69  1428.75  1429.38
eigval :     1430.36  1431.02  1438.44  1451.23  1453.48  1466.60
eigval :     1466.84  1470.15  1478.08  1479.25  1491.43  1491.47
eigval :     1491.57  1491.62  1493.63  1493.68  1493.76  1494.16
eigval :     1499.88  1500.08  1500.19  1500.50  1504.53  1504.76
eigval :     1504.80  1504.99  1511.81  1514.75  1514.77  1514.98
eigval :     1514.99  1519.26  1519.32  1519.97  1520.06  1522.47
eigval :     1525.91  1537.22  1558.73  1559.55  1561.02  1565.90
eigval :     1570.44  1576.66  1581.10  1582.42  1582.70  1604.90
eigval :     3023.36  3023.39  3023.59  3023.65  3025.22  3025.28
eigval :     3025.42  3025.51  3027.93  3027.94  3028.10  3028.12
eigval :     3031.38  3031.48  3031.52  3031.80  3032.33  3032.34
eigval :     3032.39  3032.59  3036.33  3036.35  3036.57  3036.73
eigval :     3039.47  3039.52  3039.61  3039.82  3048.28  3048.45
eigval :     3049.11  3049.31  3051.47  3051.73  3052.45  3052.66
eigval :     3076.58  3082.08  3086.02  3086.39  3087.21  3088.71
eigval :     3089.21  3089.66  3091.69  3092.36  3096.69  3097.74
eigval :     3099.22  3099.92  3100.41  3100.92  3101.88  3103.73
eigval :     3104.18  3107.62  3108.00  3111.87  3115.08  3118.17
eigval :     3118.30  3121.48  3121.86

   temp. (K)  partition function   enthalpy   heat capacity  entropy
                                   cal/mol     cal/K/mol   cal/K/mol   J/K/mol
 298.15  VIB  0.543E+33            39806.210    242.002    249.823
         ROT  0.419E+09              888.752      2.981     42.433
         INT  0.227E+42            40694.962    244.983    292.257
         TR   0.278E+29             1481.254      4.968     46.371
         TOT                       42176.2158   249.9515   338.6274  1416.8172

       T/K    H(0)-H(T)+PV         H(T)/Eh          T*S/Eh         G(T)/Eh
   ------------------------------------------------------------------------
    298.15    0.672121E-01    0.114743E+01    0.160893E+00    0.986537E+00
   ------------------------------------------------------------------------

         :::::::::::::::::::::::::::::::::::::::::::::::::::::
         ::                  THERMODYNAMIC                  ::
         :::::::::::::::::::::::::::::::::::::::::::::::::::::
         :: total free energy        -188.408323345026 Eh   ::
         ::.................................................::
         :: total energy             -189.394860005829 Eh   ::
         :: zero point energy           1.080217400083 Eh   ::
         :: G(RRHO) w/o ZPVE           -0.093680739279 Eh   ::
         :: G(RRHO) contrib.            0.986536660804 Eh   ::
         :::::::::::::::::::::::::::::::::::::::::::::::::::::

           -------------------------------------------------
          | TOTAL ENERGY             -189.394860005829 Eh   |
          | TOTAL ENTHALPY           -188.247430527602 Eh   |
          | TOTAL FREE ENERGY        -188.408323345026 Eh   |
          | GRADIENT NORM               0.000059734979 Eh/α |
           -------------------------------------------------

 * finished run on 2025/07/20 at 15:32:55.471
