   * xtb version 6.7.1 (edcfbbe) compiled by 'albert@albert-system' on 2024-07-22

   ID    Z sym.   atoms
    1    6 C      1-20, 22-30, 32-54, 56-59, 63-70
    2    7 N      21, 31, 55
    3   16 S      60
    4    8 O      61, 62
    5    1 H      71-133

          program call               : xtb data2507/gas/t3Cz-SO/t3Cz-SO_gas_T1_crest.xyz --gfn 2 --spinpol --tblite --uhf 2 --ohess vtight --parallel 40 --molden --ceasefiles --namespace data2507/gas/t3Cz-SO/t3Cz-SO_gas_T1_finalOpt
 * total energy  :  -189.3948329 Eh     change       -0.3202882E-07 Eh
 * total energy  :  -189.3948402 Eh     change       -0.7336759E-05 Eh
 * total energy  :  -189.3948434 Eh     change       -0.3156491E-05 Eh
 * total energy  :  -189.3948446 Eh     change       -0.1226589E-05 Eh
 * total energy  :  -189.3948465 Eh     change       -0.1872186E-05 Eh
 * total energy  :  -189.3948481 Eh     change       -0.1621811E-05 Eh
 * total energy  :  -189.3948503 Eh     change       -0.2232855E-05 Eh
 * total energy  :  -189.3948515 Eh     change       -0.1131557E-05 Eh
 * total energy  :  -189.3948523 Eh     change       -0.8633766E-06 Eh
 * total energy  :  -189.3948534 Eh     change       -0.1054924E-05 Eh
 * total energy  :  -189.3948579 Eh     change       -0.1104714E-05 Eh
 * total energy  :  -189.3948588 Eh     change       -0.8760638E-06 Eh
 * total energy  :  -189.3948593 Eh     change       -0.4872527E-06 Eh
 * total energy  :  -189.3948597 Eh     change       -0.3624168E-06 Eh
 * total energy  :  -189.3948599 Eh     change       -0.2382774E-06 Eh
 * total energy  :  -189.3948601 Eh     change       -0.1535204E-06 Eh
 * total energy  :  -189.3948600 Eh     change        0.1234687E-07 Eh
 * total energy  :  -189.3948602 Eh     change       -0.1471040E-06 Eh
 * total energy  :  -189.3948602 Eh     change       -0.2336432E-07 Eh
   *** GEOMETRY OPTIMIZATION CONVERGED AFTER 22 ITERATIONS ***

 final structure:
================
133
 xtb: 6.7.1 (edcfbbe)
C           -7.43750771788491       -1.72248840414820        4.27790211997797
C           -7.49890694384016       -2.08243149005350        2.78646129158418
C           -8.95887674950388       -1.99053621561622        2.33450040644848
C           -7.02731008506917       -3.52909829338294        2.58015778417355
C           -6.58595773277284       -1.14588163554138        2.01044899779700
C           -5.21730225979423       -1.13357065240946        2.30895214888127
C           -4.31323238565100       -0.32227548993105        1.65226686850140
C           -4.79073014866837        0.50299337013951        0.64484292360387
C           -6.17064140335383        0.53421562510664        0.34834245962946
C           -7.05763209071662       -0.28863163303690        1.02535700123153
C           -6.34234920137713        1.52680855380673       -0.67994490935506
C           -7.45019902593393        1.97738726142734       -1.38102365431936
C           -7.29556070515775        2.94755215442658       -2.36216016832875
C           -8.46605486381726        3.49482765047173       -3.16382887235376
C           -9.80521134258146        2.88212096764954       -2.74450863943252
C           -8.24457377025535        3.18563382191050       -4.65143948625954
C           -8.55132707869656        5.01357791396509       -2.95482994657019
C           -6.00719728688903        3.42787384322049       -2.63069742839046
C           -4.88732740649541        2.99566677482016       -1.94838787638262
C           -5.05894571521385        2.05181152576788       -0.94652467212522
N           -4.12798682797235        1.42528212991199       -0.14122172933984
C           -2.75549552231358        1.66774591118836       -0.12240841259282
C           -2.28653658929824        2.99152727962861       -0.10564334325400
C           -0.92027784428902        3.26095429085209       -0.06389843636974
C           -0.03983168045092        2.19854372858394       -0.04905477138418
C           -0.50398796345380        0.84444294884157       -0.11800127826785
C           -1.87603836253911        0.58815239390517       -0.13246488410839
C            0.64302048037301        0.01737781918847       -0.16118632776559
C            0.83387313481030       -1.36444897377094       -0.22782988785545
C            2.13554621523382       -1.85882207095071       -0.20123194880752
N            2.34202364130148       -3.23543916092546       -0.26663081315290
C            3.26479462389339       -3.88395157545898       -1.06414396104740
C            4.14817916800211       -3.37775766669835       -2.00590571723905
C            4.94124958580850       -4.27182139460638       -2.69775340040971
C            4.88124245450786       -5.65691565601308       -2.49667995296306
C            5.80357720198619       -6.55746220893624       -3.30336899613654
C            5.50772728436271       -6.37046828100054       -4.79840869915358
C            7.26133909786338       -6.17526985856149       -3.00935101509270
C            5.62390793748252       -8.03986001084992       -2.96464402368511
C            3.96941268290254       -6.15426472564879       -1.57535512852622
C            3.16240867521099       -5.27814123406413       -0.86581340300761
C            2.12504516717695       -5.47495948750345        0.11230523440613
C            1.59719304699830       -6.60654927295634        0.71515456722064
C            0.59507411448477       -6.47499326539992        1.66702307232321
C           -0.03857560558673       -7.67159439772870        2.35941633810526
C           -1.54969220417309       -7.66688836728417        2.08674933759832
C            0.21824635667945       -7.57306231221069        3.87003850000388
C            0.52816100156433       -9.00576160041229        1.86642836238893
C            0.16360057589597       -5.18735208502741        2.01065537693368
C            0.67416527766091       -4.04419350614664        1.42780687693892
C            1.64690366468871       -4.19021232020086        0.44995123903457
C            3.24200044619366       -0.99940395828458       -0.10122463100696
C            3.06585702702231        0.38182274104902       -0.04582333436331
C            1.78182544649364        0.88349580895689       -0.10073783461323
N            1.34137577032768        2.19126353522132       -0.04383481332638
C            2.16088579182167        3.31401868730915       -0.01033261042196
C            1.90353227321705        4.35606269658665        0.89946440841355
C            2.71825820692743        5.46084308314612        0.92811787928162
C            3.79001376747948        5.55877952026166        0.04299422770841
S            4.89892740539248        6.94205809142027        0.15658265111819
O            5.58258247636542        7.10288508396657       -1.10268812000937
O            4.18975167569948        8.07255230951099        0.70237500152184
C            6.06942395944956        6.35204818190043        1.37724476744641
C            5.82772389612670        6.58663202493484        2.71981897814900
C            6.68606592705972        6.05629071162185        3.66576391711225
C            7.77209550010031        5.29115874263717        3.26420542053302
C            8.00539396099956        5.06079560398009        1.91548891621839
C            7.14943722152156        5.58962658450820        0.96669550458662
C            4.05821502550686        4.53156349438634       -0.85953927012458
C            3.25481840930852        3.41853671005502       -0.88911872923962
H           -8.10246709744868       -2.36926168670838        4.84628785363124
H           -6.43225109648101       -1.83657371280213        4.67359006454878
H           -7.74762270318545       -0.69051904064117        4.42831111726887
H           -9.35717553369394       -0.99160461063657        2.49615687258509
H           -9.06035190561977       -2.25109569920024        1.28346498663785
H           -9.56120073365966       -2.68822492350065        2.91278834704580
H           -7.04712326923380       -3.78349466252123        1.52242635923668
H           -7.68245340695098       -4.21526047054331        3.11258316520260
H           -6.01484731855804       -3.67405753859727        2.94615580303909
H           -4.84036218235555       -1.77669518063905        3.08914446692697
H           -3.27030557276089       -0.32485965247173        1.92953689284533
H           -8.10369953286850       -0.23981865146304        0.77387003242843
H           -8.41447593340800        1.55618344144508       -1.15129931095670
H          -10.01833390304881        3.08621518377223       -1.69771897171256
H          -10.60451646698211        3.31770878708748       -3.34055806032652
H           -9.81337232685217        1.80709650291070       -2.90906241566747
H           -9.08416138660671        3.55204389812358       -5.23822303863251
H           -7.33880736117435        3.65497409733572       -5.02465889334968
H           -8.15933938471043        2.11159135957731       -4.80347817097214
H           -9.39674824945699        5.41969565807687       -3.50601036163553
H           -8.68615905389169        5.24057775898921       -1.89929781638065
H           -7.65057105292873        5.51410179348002       -3.29831142691432
H           -5.86854335238765        4.16502656245982       -3.40625058887418
H           -3.90958787757601        3.37447557482060       -2.20235060834787
H           -2.99416852730307        3.80341079250611       -0.07722970958183
H           -0.57437349670399        4.28203464707774       -0.04478469867945
H           -2.24768040323409       -0.42128937142746       -0.20850669108938
H           -0.00461304962382       -2.03176902276315       -0.34719141514688
H            4.20944255101730       -2.31950551260648       -2.20684821581580
H            5.62962815885215       -3.87245588652075       -3.42632393483308
H            5.68771187143497       -5.34696476110728       -5.11468278247900
H            4.46854831946623       -6.61451478926285       -5.00924433929054
H            6.14335325367898       -7.02590214709601       -5.38991000810779
H            7.47196092274686       -6.28615473757761       -1.94762857847340
H            7.93667860437814       -6.82253722728433       -3.56473072911077
H            7.46802656575895       -5.14696369776872       -3.29184659350682
H            6.31331201001037       -8.63332599933325       -3.56166676425125
H            5.83903962086109       -8.23069691236490       -1.91576292709838
H            4.61369490502797       -8.37380469080797       -3.18990394385716
H            3.86548174589210       -7.21164456494243       -1.39895892616072
H            1.98386308311579       -7.57127154118012        0.43288634934632
H           -1.73834543218863       -7.71521143769066        1.01625109428345
H           -2.01742575923598       -8.52815697782248        2.55891638308841
H           -2.02182600859024       -6.76896909192147        2.47518037697157
H           -0.20898098101333       -8.43455747624550        4.37881412436582
H           -0.22525554374026       -6.67527226297144        4.29120422169701
H            1.28775467251074       -7.55001785366394        4.06854390247284
H            1.59374001670375       -9.07867481817737        2.07111992015100
H            0.03137204497518       -9.82344660070776        2.38466327481248
H            0.35862144600899       -9.13270257273229        0.79966091725404
H           -0.59637151407284       -5.06855354902054        2.76741765852126
H            0.33254916807956       -3.06923381474706        1.73966107327218
H            4.23054961105816       -1.41918778527383       -0.01398431169383
H            3.91926542141190        1.03129185657462        0.07210463897334
H            1.08538645846521        4.25759530043985        1.59655806897883
H            2.54257977887721        6.27319669385690        1.61507584693313
H            4.98298478427770        7.19788426239406        2.99592378006784
H            6.51325242552076        6.23936907423225        4.71598690257567
H            8.44191486516327        4.87823697263911        4.00391733309242
H            8.85639448108067        4.47129909572586        1.60770745068930
H            7.31000363930544        5.44286781794626       -0.08979346299300
H            4.88291408808897        4.65109487480194       -1.54386240444487
H            3.42375875903202        2.63619942985815       -1.61350141026125

 projected vibrational frequencies (cm⁻¹)
eigval :       -0.00    -0.00    -0.00    -0.00     0.00     0.00
eigval :        6.96     8.30     8.53     9.17    10.94    13.71
eigval :       22.50    23.74    27.67    30.20    30.33    32.99
eigval :       33.10    33.79    49.89    58.40    61.25    63.47
eigval :       69.35    72.00    79.09    87.71    95.69   108.50
eigval :      114.52   118.53   123.07   126.34   135.77   139.86
eigval :      142.98   158.53   160.46   171.55   173.41   175.81
eigval :      183.80   186.15   195.95   200.35   201.70   206.36
eigval :      215.63   218.46   220.51   221.57   224.81   229.85
eigval :      231.69   234.74   242.35   257.43   257.79   273.25
eigval :      275.09   278.61   287.75   294.28   301.29   308.42
eigval :      317.71   317.97   320.00   321.92   322.62   326.82
eigval :      332.31   338.23   340.27   343.46   355.42   358.36
eigval :      358.83   360.85   364.09   366.49   376.14   379.46
eigval :      381.99   386.88   395.07   398.75   403.74   406.38
eigval :      407.99   408.35   414.28   428.06   440.17   441.43
eigval :      441.65   441.86   446.42   457.11   461.62   463.95
eigval :      465.72   466.12   476.14   486.01   499.65   505.57
eigval :      514.65   519.74   529.44   543.21   549.09   551.51
eigval :      573.63   585.02   585.22   585.99   587.61   591.28
eigval :      595.78   601.18   614.76   626.46   632.51   639.96
eigval :      641.29   641.43   650.77   654.79   656.87   661.93
eigval :      670.47   683.12   690.63   690.88   705.75   707.43
eigval :      710.48   717.76   719.74   726.89   736.61   744.86
eigval :      780.87   782.67   799.79   804.91   808.86   812.62
eigval :      825.38   826.36   830.16   831.12   832.87   835.12
eigval :      850.64   865.54   868.14   869.77   870.18   871.69
eigval :      872.67   874.30   874.59   877.00   883.83   894.57
eigval :      907.72   911.31   914.14   914.84   915.80   915.94
eigval :      916.64   922.92   924.21   924.69   926.11   929.91
eigval :      932.27   952.27   960.18   960.24   960.35   960.36
eigval :      962.78   962.82   963.04   963.19   963.21   963.26
eigval :      963.35   963.39   967.44   984.39   992.91  1024.50
eigval :     1030.85  1031.15  1034.79  1034.89  1034.91  1035.01
eigval :     1035.64  1035.68  1041.41  1041.42  1066.86  1073.24
eigval :     1087.28  1090.31  1102.77  1103.83  1109.96  1115.74
eigval :     1118.56  1118.91  1128.66  1128.82  1134.41  1136.48
eigval :     1165.59  1166.60  1167.05  1177.07  1179.90  1188.45
eigval :     1193.49  1193.97  1197.50  1224.07  1225.16  1226.64
eigval :     1226.74  1226.76  1226.80  1228.19  1229.59  1230.24
eigval :     1231.72  1232.05  1232.84  1233.15  1233.98  1240.18
eigval :     1248.57  1251.27  1257.11  1258.11  1261.35  1262.90
eigval :     1282.25  1282.29  1293.05  1294.62  1294.76  1298.56
eigval :     1316.80  1325.77  1332.29  1341.42  1341.64  1342.76
eigval :     1344.57  1352.75  1358.42  1380.19  1385.40  1401.41
eigval :     1402.02  1404.51  1404.61  1405.29  1405.63  1405.69
eigval :     1405.76  1408.41  1409.25  1410.89  1414.63  1416.19
eigval :     1424.53  1428.59  1428.75  1428.82  1428.84  1429.26
eigval :     1430.43  1431.27  1439.20  1449.98  1453.74  1466.89
eigval :     1467.08  1470.66  1478.52  1479.46  1490.96  1491.06
eigval :     1491.13  1491.19  1493.29  1493.31  1493.33  1493.70
eigval :     1499.60  1499.73  1499.77  1500.07  1504.25  1504.32
eigval :     1504.35  1504.53  1511.81  1514.27  1514.30  1514.50
eigval :     1514.52  1518.83  1518.90  1519.50  1519.69  1522.99
eigval :     1525.78  1537.93  1558.67  1559.72  1561.96  1565.87
eigval :     1571.03  1576.94  1582.06  1582.36  1583.19  1605.97
eigval :     3023.24  3023.25  3023.45  3023.53  3025.07  3025.13
eigval :     3025.28  3025.40  3027.74  3027.77  3027.92  3027.94
eigval :     3031.23  3031.30  3031.37  3031.63  3032.04  3032.06
eigval :     3032.11  3032.32  3036.12  3036.15  3036.37  3036.53
eigval :     3039.10  3039.15  3039.25  3039.46  3047.93  3048.06
eigval :     3048.81  3048.98  3051.18  3051.42  3052.20  3052.43
eigval :     3076.44  3081.93  3085.98  3086.44  3087.19  3088.92
eigval :     3089.49  3089.67  3091.68  3092.31  3097.17  3097.81
eigval :     3099.04  3100.10  3100.50  3101.10  3101.99  3103.73
eigval :     3104.25  3107.70  3107.98  3111.99  3115.08  3118.23
eigval :     3118.34  3121.51  3121.60

   temp. (K)  partition function   enthalpy   heat capacity  entropy
                                   cal/mol     cal/K/mol   cal/K/mol   J/K/mol
 298.15  VIB  0.282E+33            39802.331    242.032    249.173
         ROT  0.418E+09              888.752      2.981     42.431
         INT  0.118E+42            40691.083    245.013    291.604
         TR   0.278E+29             1481.254      4.968     46.371
         TOT                       42172.3372   249.9814   337.9747  1414.0863

       T/K    H(0)-H(T)+PV         H(T)/Eh          T*S/Eh         G(T)/Eh
   ------------------------------------------------------------------------
    298.15    0.672059E-01    0.114738E+01    0.160583E+00    0.986797E+00
   ------------------------------------------------------------------------

         :::::::::::::::::::::::::::::::::::::::::::::::::::::
         ::                  THERMODYNAMIC                  ::
         :::::::::::::::::::::::::::::::::::::::::::::::::::::
         :: total free energy        -188.408063516179 Eh   ::
         ::.................................................::
         :: total energy             -189.394860163538 Eh   ::
         :: zero point energy           1.080173451036 Eh   ::
         :: G(RRHO) w/o ZPVE           -0.093376803677 Eh   ::
         :: G(RRHO) contrib.            0.986796647359 Eh   ::
         :::::::::::::::::::::::::::::::::::::::::::::::::::::

           -------------------------------------------------
          | TOTAL ENERGY             -189.394860163538 Eh   |
          | TOTAL ENTHALPY           -188.247480815328 Eh   |
          | TOTAL FREE ENERGY        -188.408063516179 Eh   |
          | GRADIENT NORM               0.000115828640 Eh/α |
           -------------------------------------------------

 * finished run on 2025/07/20 at 16:21:15.023
