   * xtb version 6.7.1 (edcfbbe) compiled by 'albert@albert-system' on 2024-07-22

   ID    Z sym.   atoms
    1    6 C      1-20, 22-30, 32-54, 56-59, 63-70
    2    7 N      21, 31, 55
    3   16 S      60
    4    8 O      61, 62
    5    1 H      71-133

          program call               : xtb data2507/gas/t3Cz-SO/t3Cz-SO_gas_S0_crest.xyz --gfn 2 --ohess vtight --parallel 40 --molden --ceasefiles --namespace data2507/gas/t3Cz-SO/t3Cz-SO_gas_S0_finalOpt
          :  Hamiltonian                  GFN2-xTB          :
 * total energy  :  -189.4865309 Eh     change       -0.4067118E-08 Eh
 * total energy  :  -189.4865328 Eh     change       -0.1826729E-05 Eh
 * total energy  :  -189.4865348 Eh     change       -0.2069216E-05 Eh
 * total energy  :  -189.4865398 Eh     change       -0.4931098E-05 Eh
 * total energy  :  -189.4865434 Eh     change       -0.3665396E-05 Eh
 * total energy  :  -189.4865469 Eh     change       -0.3490340E-05 Eh
 * total energy  :  -189.4865527 Eh     change       -0.5792294E-05 Eh
 * total energy  :  -189.4865605 Eh     change       -0.7817498E-05 Eh
 * total energy  :  -189.4865660 Eh     change       -0.5529712E-05 Eh
 * total energy  :  -189.4865701 Eh     change       -0.4027032E-05 Eh
 * total energy  :  -189.4866447 Eh     change       -0.2285869E-06 Eh
 * total energy  :  -189.4866450 Eh     change       -0.2236078E-06 Eh
 * total energy  :  -189.4866452 Eh     change       -0.2736649E-06 Eh
 * total energy  :  -189.4866456 Eh     change       -0.3576094E-06 Eh
 * total energy  :  -189.4866461 Eh     change       -0.4804744E-06 Eh
 * total energy  :  -189.4866468 Eh     change       -0.6792374E-06 Eh
 * total energy  :  -189.4866471 Eh     change       -0.2929239E-06 Eh
 * total energy  :  -189.4866474 Eh     change       -0.3954345E-06 Eh
 * total energy  :  -189.4866475 Eh     change       -0.9270573E-07 Eh
   *** GEOMETRY OPTIMIZATION CONVERGED AFTER 70 ITERATIONS ***

 final structure:
================
133
 xtb: 6.7.1 (edcfbbe)
C           -7.44493620367611       -1.01231818799774        4.40010546912833
C           -7.58589567708793       -1.38724366981254        2.91800020732626
C           -9.04291862506029       -1.15791594497217        2.50708632417026
C           -7.26725697114725       -2.87673463945973        2.72547378649316
C           -6.60933839168925       -0.55765397231180        2.09676061941451
C           -5.23750847049143       -0.67391884208524        2.35897233293393
C           -4.27789820326876        0.03003787343662        1.66096228031540
C           -4.70015638707017        0.88169026822517        0.65186020500684
C           -6.07646495055136        1.03763888869941        0.38556271946126
C           -7.02085208763017        0.31642807772769        1.10462357852715
C           -6.17968509721298        2.01104333389747       -0.66602884076688
C           -7.25952468232626        2.55454889721933       -1.34967240626164
C           -7.04083008451347        3.47989358996194       -2.35642600549493
C           -8.17488429434317        4.12386234325653       -3.14086879739256
C           -9.55456203080360        3.64639683123657       -2.67920332729661
C           -8.02344674406939        3.77365978594396       -4.62791569285840
C           -8.11299278797410        5.64672819153822       -2.95609564232834
C           -5.71976876125259        3.82783091357905       -2.66952453026609
C           -4.62853415242700        3.30400267381725       -2.00728563236520
C           -4.86110206760007        2.40044436537989       -0.98186142650456
N           -3.97282714872354        1.71243526942978       -0.17840943902006
C           -2.57814038639105        1.83254715920769       -0.19275589161213
C           -1.99121543843368        3.10425912643007       -0.16172328253423
C           -0.62095727631604        3.26794494538876       -0.16368331145568
C            0.17342979006396        2.13025204746046       -0.16663800609188
C           -0.40832871949075        0.84383673507583       -0.21922900628353
C           -1.78604721460332        0.69366828468363       -0.23820005419171
C            0.67692300828137       -0.09574696779607       -0.26145776774840
C            0.72396382558991       -1.48058665608028       -0.29996892342873
C            1.96465034839519       -2.10236692532180       -0.28671937540022
N            2.04793928025525       -3.49996282029900       -0.30654020352088
C            2.84933866283699       -4.25530012981053       -1.13978883899247
C            3.70010772516536       -3.86367765719767       -2.16188725877050
C            4.36876098758994       -4.84721703290108       -2.86135675874650
C            4.21782684220254       -6.21352280683374       -2.58788002302790
C            5.00750124882438       -7.21878311573931       -3.41377657025623
C            4.61489178651896       -7.07709831908627       -4.89118510490330
C            6.50815585131154       -6.94167630731796       -3.24538397095416
C            4.74288807578316       -8.66593062545496       -2.98913882925902
C            3.34539496129956       -6.59383598839168       -1.58191099246565
C            2.65884882566885       -5.62506456873235       -0.86154816380276
C            1.69255362765070       -5.69448400337252        0.19930352157443
C            1.12512696420690       -6.75405779750187        0.89534528606092
C            0.21212498822285       -6.50285942629593        1.90575108581365
C           -0.45673047122393       -7.61291326161986        2.70368968778291
C           -1.97845287686205       -7.51334318422667        2.52605383414917
C           -0.09490034393223       -7.45725663831410        4.18759005508291
C           -0.01736008792263       -9.00848621805477        2.25234893022848
C           -0.09989556291483       -5.17063694676149        2.20918950758927
C            0.44875584467900       -4.09910719998313        1.53509809966949
C            1.34105284064493       -4.36364285356949        0.50757474510119
C            3.13955323070088       -1.34131682965783       -0.23092224738417
C            3.10678481446044        0.03804892491868       -0.21235290526224
C            1.86826110491333        0.66334392629025       -0.24244334681934
N            1.55238629028628        2.00933701446751       -0.18518315853125
C            2.46628002880006        3.06361450304261       -0.15425864139646
C            2.31877383498328        4.09078847284569        0.77978985948750
C            3.21784988210810        5.13929792753856        0.79881081295229
C            4.26325062090292        5.15813247437243       -0.10537447955699
S            5.44648875045042        6.50786894786301       -0.03962013575490
O            6.28522575044048        6.43247876365938       -1.20613052335723
O            4.73652515426171        7.73151859931091        0.22207906545794
C            6.42170380822478        6.08767937558175        1.41040655665825
C            6.21834244122857        6.77055118557812        2.59288759956255
C            6.95148521940737        6.41425527487884        3.71311071522341
C            7.87089291097744        5.38006793733754        3.63503163030062
C            8.06643993458112        4.70172758527523        2.44144954500404
C            7.33570108166639        5.05584320163050        1.31982131104117
C            4.42711312167973        4.14424752526267       -1.02980217890389
C            3.52603554564545        3.09730376076088       -1.06158378332540
H           -8.15172962592056       -1.58175757590637        5.00033389289521
H           -6.44363625078321       -1.21783148476740        4.76818044103697
H           -7.64802122657480        0.04748812335569        4.53984315518877
H           -9.33316859030668       -0.12059399247798        2.65689488645113
H           -9.20205976269306       -1.42683351856691        1.46537525790983
H           -9.69428662551183       -1.77997172739012        3.11801177912739
H           -7.34522264100585       -3.14402178924345        1.67359627616981
H           -7.96938260887595       -3.48697026662093        3.28998633966217
H           -6.26254782745946       -3.11521909112024        3.06298228841554
H           -4.90308078621382       -1.33811555136036        3.14146150912022
H           -3.23173630149631       -0.07565563382281        1.90716537481624
H           -8.06316291242298        0.45876409449279        0.87295502456601
H           -8.25264337850111        2.23608150585276       -1.08005819795434
H           -9.72191205824407        3.88863696759229       -1.63223349932423
H          -10.32511793586299        4.14252959190833       -3.26614878431811
H           -9.66459741673771        2.57363550289661       -2.82002418727589
H           -8.84038421585750        4.20776364770191       -5.20082308883596
H           -7.08786366561708        4.15050736613358       -5.03152563427602
H           -8.04196908175836        2.69411014883365       -4.76283669087032
H           -8.92876636383264        6.12389749735702       -3.49540381411961
H           -8.20086632620073        5.90046601823198       -1.90160704953546
H           -7.17664324328811        6.05410430590957       -3.32695138962115
H           -5.53296659069027        4.53326797139320       -3.46490627075008
H           -3.62594651997334        3.58461000768877       -2.29383795148736
H           -2.63256485724247        3.97130783323255       -0.12481357379049
H           -0.18889293211410        4.25663359372915       -0.16535716279343
H           -2.23596268391223       -0.28455609072332       -0.30339410512956
H           -0.18187634436593       -2.06440760210669       -0.34490915386431
H            3.83065324206218       -2.82247120566843       -2.41692972005885
H            5.03141817963948       -4.53685367718596       -3.65496517419966
H            4.84394104500951       -6.08482072763066       -5.26962195603627
H            3.54764818174438       -7.24998488951583       -5.01382348712578
H            5.15450131336059       -7.80434284092607       -5.49448754294015
H            6.78885201949901       -7.02078937527807       -2.19703895026014
H            7.08949944837639       -7.66455233369764       -3.81416424043546
H            6.77001128016776       -5.94643458454945       -3.59347984480016
H            5.33733946909268       -9.33879676413224       -3.60419127352388
H            5.02206880810950       -8.82575560148650       -1.95020748331090
H            3.69572055407588       -8.92748157281028       -3.12226571837892
H            3.17707503473230       -7.63022153130159       -1.34119207639583
H            1.41528786454191       -7.75741340673282        0.63183304504029
H           -2.23990260134990       -7.60417052756867        1.47374859380874
H           -2.47366571567331       -8.31158658728677        3.07522869023852
H           -2.35979930925451       -6.56341616643816        2.89000166109230
H            0.98446743280807       -7.50320113000010        4.31735105919322
H           -0.54738400434971       -8.25721872919910        4.77016379123911
H           -0.44480250131471       -6.50838883177147        4.58444195218799
H            1.05303385389262       -9.14475820462320        2.38822392636753
H           -0.52966901226737       -9.76067958878201        2.84916515068935
H           -0.26986079762033       -9.17916963642340        1.20837050937860
H           -0.79689050717552       -4.95902667636627        3.00584838464888
H            0.19513468642023       -3.08712086544188        1.81383301870485
H            4.08771965271645       -1.85463470555777       -0.18294003876036
H            4.02223070374316        0.60609322216508       -0.14968699828601
H            1.50970432353100        4.05009562865644        1.49270851607437
H            3.11631600591097        5.95108539691685        1.50157300117478
H            5.50321335780391        7.57808372716676        2.61020715651928
H            6.80835824776240        6.94315092289333        4.64320794893979
H            8.44303926782522        5.10376008549304        4.50818331475356
H            8.78867402122139        3.90133539294502        2.38578498431877
H            7.47478664699063        4.55866783855616        0.37267428370169
H            5.24575289918603        4.20756609871539       -1.72938373925031
H            3.62045342990017        2.31544504767192       -1.79940692272017

          :  Hamiltonian                  GFN2-xTB          :
         :: gradient norm              0.000098962269 Eh/a0 ::
         :: HOMO-LUMO gap              2.077561268218 eV    ::
         :: SCC energy              -192.724890414151 Eh    ::
         :: -> dispersion             -0.175241911227 Eh    ::
         :: repulsion energy           3.238242873771 Eh    ::

    * Orbital Energies and Occupations

         #    Occupation            Energy/Eh            Energy/eV
      -------------------------------------------------------------
         1        2.0000           -0.7709605             -20.9789
       ...           ...                  ...                  ...
       164        2.0000           -0.4065350             -11.0624
       165        2.0000           -0.4061432             -11.0517
       166        2.0000           -0.4051865             -11.0257
       167        2.0000           -0.4038241             -10.9886
       168        2.0000           -0.4028847             -10.9631
       169        2.0000           -0.3940731             -10.7233
       170        2.0000           -0.3929064             -10.6915
       171        2.0000           -0.3920199             -10.6674
       172        2.0000           -0.3818905             -10.3918
       173        2.0000           -0.3695495             -10.0560
       174        2.0000           -0.3685936             -10.0299
       175        2.0000           -0.3542577              -9.6398
       176        2.0000           -0.3500292              -9.5248 (HOMO)
       177                         -0.2736803              -7.4472 (LUMO)
       178                         -0.2603128              -7.0835
       179                         -0.2567612              -6.9868
       180                         -0.2541875              -6.9168
       181                         -0.2509641              -6.8291
       182                         -0.2416817              -6.5765
       183                         -0.2369086              -6.4466
       184                         -0.2333994              -6.3511
       185                         -0.2137975              -5.8177
       186                         -0.2131215              -5.7993
       187                         -0.2128353              -5.7915
       ...                                ...                  ...
       348                          1.2048667              32.7861
      -------------------------------------------------------------
                  HL-Gap            0.0763489 Eh            2.0776 eV

     #   Z          covCN         q      C6AA      α(0)
     1   6 C        3.761    -0.105    22.549     6.769
     2   6 C        3.903     0.026    20.088     6.371
     3   6 C        3.761    -0.107    22.584     6.774
     4   6 C        3.762    -0.105    22.550     6.769
     5   6 C        2.973    -0.003    28.090     8.694
     6   6 C        2.931    -0.040    28.988     8.830
     7   6 C        2.908    -0.054    29.346     8.883
     8   6 C        3.081     0.042    26.976     8.515
     9   6 C        3.068    -0.020    28.445     8.745
    10   6 C        2.918    -0.044    29.091     8.845
    11   6 C        3.068    -0.021    28.447     8.746
    12   6 C        2.918    -0.044    29.091     8.845
    13   6 C        2.973    -0.003    28.085     8.693
    14   6 C        3.903     0.026    20.088     6.371
    15   6 C        3.761    -0.107    22.584     6.774
    16   6 C        3.761    -0.105    22.552     6.770
    17   6 C        3.762    -0.105    22.552     6.770
    18   6 C        2.931    -0.040    28.985     8.829
    19   6 C        2.908    -0.054    29.347     8.883
    20   6 C        3.080     0.042    26.977     8.515
    21   7 N        2.803    -0.045    22.106     6.983
    22   6 C        2.913     0.057    26.716     8.476
    23   6 C        2.927    -0.046    29.139     8.852
    24   6 C        2.909    -0.050    29.246     8.868
    25   6 C        3.071     0.042    26.996     8.519
    26   6 C        3.067    -0.014    28.288     8.721
    27   6 C        2.916    -0.047    29.167     8.856
    28   6 C        3.067    -0.014    28.283     8.720
    29   6 C        2.916    -0.047    29.170     8.857
    30   6 C        2.913     0.057    26.721     8.476
    31   7 N        2.803    -0.045    22.110     6.984
    32   6 C        3.080     0.042    26.976     8.515
    33   6 C        2.908    -0.054    29.349     8.883
    34   6 C        2.931    -0.040    28.990     8.830
    35   6 C        2.973    -0.003    28.089     8.693
    36   6 C        3.903     0.026    20.088     6.371
    37   6 C        3.761    -0.105    22.552     6.770
    38   6 C        3.762    -0.105    22.551     6.769
    39   6 C        3.761    -0.107    22.585     6.775
    40   6 C        2.918    -0.044    29.091     8.845
    41   6 C        3.068    -0.021    28.448     8.746
    42   6 C        3.068    -0.020    28.447     8.746
    43   6 C        2.918    -0.044    29.091     8.845
    44   6 C        2.973    -0.003    28.088     8.693
    45   6 C        3.903     0.026    20.088     6.371
    46   6 C        3.762    -0.105    22.551     6.769
    47   6 C        3.761    -0.105    22.549     6.769
    48   6 C        3.761    -0.107    22.585     6.775
    49   6 C        2.931    -0.040    28.986     8.829
    50   6 C        2.908    -0.054    29.346     8.883
    51   6 C        3.080     0.042    26.976     8.515
    52   6 C        2.927    -0.046    29.141     8.853
    53   6 C        2.909    -0.051    29.256     8.869
    54   6 C        3.072     0.041    27.000     8.520
    55   7 N        2.802    -0.037    21.949     6.958
    56   6 C        2.913     0.071    26.418     8.428
    57   6 C        2.924    -0.041    29.007     8.832
    58   6 C        2.957    -0.027    28.669     8.782
    59   6 C        2.970    -0.080    29.994     8.983
    60  16 S        3.815     0.941   108.355    17.520
    61   8 O        0.860    -0.538    24.637     6.655
    62   8 O        0.860    -0.538    24.638     6.655
    63   6 C        2.972    -0.073    29.825     8.958
    64   6 C        2.955    -0.025    28.636     8.777
    65   6 C        2.922    -0.023    28.586     8.768
    66   6 C        2.920    -0.024    28.599     8.770
    67   6 C        2.922    -0.023    28.590     8.768
    68   6 C        2.959    -0.027    28.679     8.784
    69   6 C        2.953    -0.025    28.636     8.777
    70   6 C        2.924    -0.040    28.998     8.831
    71   1 H        0.925     0.035     2.514     2.479
    72   1 H        0.925     0.035     2.518     2.481
    73   1 H        0.925     0.033     2.547     2.496
    74   1 H        0.925     0.035     2.515     2.480
    75   1 H        0.925     0.035     2.511     2.478
    76   1 H        0.925     0.034     2.527     2.486
    77   1 H        0.925     0.033     2.542     2.493
    78   1 H        0.925     0.035     2.515     2.480
    79   1 H        0.925     0.035     2.515     2.480
    80   1 H        0.926     0.027     2.625     2.533
    81   1 H        0.926     0.023     2.688     2.564
    82   1 H        0.926     0.036     2.497     2.471
    83   1 H        0.926     0.036     2.497     2.471
    84   1 H        0.925     0.035     2.514     2.479
    85   1 H        0.925     0.034     2.525     2.485
    86   1 H        0.925     0.035     2.514     2.480
    87   1 H        0.925     0.035     2.512     2.479
    88   1 H        0.925     0.035     2.513     2.479
    89   1 H        0.925     0.033     2.545     2.495
    90   1 H        0.925     0.035     2.513     2.479
    91   1 H        0.925     0.033     2.546     2.495
    92   1 H        0.925     0.035     2.511     2.478
    93   1 H        0.926     0.028     2.615     2.529
    94   1 H        0.926     0.024     2.678     2.559
    95   1 H        0.926     0.046     2.374     2.409
    96   1 H        0.926     0.036     2.498     2.472
    97   1 H        0.926     0.046     2.365     2.405
    98   1 H        0.926     0.047     2.360     2.402
    99   1 H        0.926     0.023     2.692     2.566
   100   1 H        0.926     0.028     2.621     2.532
   101   1 H        0.925     0.035     2.514     2.480
   102   1 H        0.925     0.033     2.543     2.494
   103   1 H        0.925     0.035     2.511     2.478
   104   1 H        0.925     0.033     2.549     2.497
   105   1 H        0.925     0.035     2.513     2.479
   106   1 H        0.925     0.035     2.516     2.480
   107   1 H        0.925     0.034     2.525     2.485
   108   1 H        0.925     0.035     2.514     2.480
   109   1 H        0.925     0.035     2.512     2.478
   110   1 H        0.926     0.036     2.497     2.471
   111   1 H        0.926     0.036     2.497     2.471
   112   1 H        0.925     0.033     2.541     2.493
   113   1 H        0.925     0.035     2.513     2.479
   114   1 H        0.925     0.035     2.512     2.479
   115   1 H        0.925     0.033     2.550     2.497
   116   1 H        0.925     0.035     2.513     2.479
   117   1 H        0.925     0.035     2.517     2.481
   118   1 H        0.925     0.035     2.516     2.481
   119   1 H        0.925     0.034     2.525     2.485
   120   1 H        0.925     0.035     2.511     2.478
   121   1 H        0.926     0.028     2.621     2.532
   122   1 H        0.926     0.023     2.685     2.562
   123   1 H        0.926     0.044     2.393     2.419
   124   1 H        0.926     0.033     2.545     2.495
   125   1 H        0.926     0.058     2.226     2.333
   126   1 H        0.926     0.058     2.228     2.334
   127   1 H        0.926     0.064     2.155     2.295
   128   1 H        0.926     0.051     2.303     2.373
   129   1 H        0.926     0.050     2.323     2.383
   130   1 H        0.926     0.050     2.317     2.380
   131   1 H        0.926     0.053     2.283     2.363
   132   1 H        0.926     0.068     2.106     2.269
   133   1 H        0.926     0.059     2.213     2.326

molecular dipole:
                 x           y           z       tot (Debye)
 q only:        0.018      -1.542       1.491
   full:        0.224      -1.310       1.489       5.073

 projected vibrational frequencies (cm⁻¹)
eigval :       -0.00     0.00     0.00     0.00     0.00     0.00
eigval :        5.24     7.90     8.29     8.73    10.39    13.87
eigval :       19.79    22.36    23.86    30.60    30.90    33.19
eigval :       33.73    33.87    48.31    59.11    61.51    63.25
eigval :       68.13    71.20    76.81    87.14    96.90   105.43
eigval :      114.61   118.02   122.86   123.24   131.26   137.14
eigval :      142.16   160.09   161.06   173.46   174.88   177.77
eigval :      183.62   186.64   195.92   202.55   203.12   207.64
eigval :      216.02   219.11   221.01   222.56   225.12   230.48
eigval :      231.96   241.00   246.52   259.08   259.30   272.38
eigval :      275.77   280.62   284.37   292.67   309.09   313.50
eigval :      317.52   317.56   321.76   322.00   324.19   326.83
eigval :      334.74   341.79   344.01   346.59   359.65   360.13
eigval :      360.18   362.98   363.54   368.07   377.46   381.82
eigval :      386.19   397.44   398.83   401.65   405.83   411.50
eigval :      412.10   416.37   430.77   431.55   442.32   442.88
eigval :      443.53   443.95   450.97   457.11   461.69   465.75
eigval :      466.03   467.99   475.03   486.78   501.84   514.61
eigval :      519.25   521.23   542.92   547.06   551.30   561.30
eigval :      577.58   583.96   584.53   585.05   585.45   588.32
eigval :      599.63   608.36   627.60   631.44   639.62   639.72
eigval :      642.11   647.10   657.96   663.97   678.48   681.60
eigval :      687.52   687.60   692.35   705.53   707.01   707.34
eigval :      713.21   719.60   720.71   733.32   744.25   752.40
eigval :      811.32   814.00   817.52   819.50   822.16   822.81
eigval :      830.48   831.58   833.43   836.56   869.04   869.57
eigval :      872.69   873.58   874.00   874.32   878.34   880.37
eigval :      884.84   886.26   890.58   906.33   907.95   909.48
eigval :      915.49   916.25   918.16   920.55   923.00   926.07
eigval :      927.55   928.10   930.43   932.33   933.08   933.69
eigval :      934.82   960.18   960.22   960.30   960.32   962.67
eigval :      962.85   962.86   962.90   962.92   962.99   963.07
eigval :      963.42   964.74   968.57  1000.29  1006.81  1030.57
eigval :     1031.40  1033.87  1035.71  1035.80  1035.87  1035.90
eigval :     1035.97  1036.31  1042.16  1042.30  1069.67  1088.12
eigval :     1102.66  1107.02  1113.65  1115.02  1118.10  1129.13
eigval :     1130.38  1130.65  1133.68  1138.62  1140.13  1155.99
eigval :     1169.78  1177.22  1177.63  1177.92  1179.37  1193.44
eigval :     1196.23  1197.05  1224.43  1228.14  1228.22  1228.31
eigval :     1228.35  1230.53  1231.73  1232.18  1232.69  1235.91
eigval :     1237.83  1238.43  1240.02  1241.11  1245.92  1249.37
eigval :     1254.36  1260.27  1260.94  1272.48  1283.51  1286.10
eigval :     1288.94  1304.89  1305.64  1312.53  1313.90  1320.47
eigval :     1322.62  1342.72  1347.65  1347.82  1348.56  1349.86
eigval :     1362.45  1362.74  1384.96  1391.89  1399.20  1402.54
eigval :     1402.80  1404.75  1404.81  1405.82  1406.02  1406.11
eigval :     1406.17  1412.73  1414.31  1421.39  1429.40  1429.51
eigval :     1429.57  1429.62  1430.65  1432.28  1444.70  1445.37
eigval :     1450.32  1474.61  1476.63  1483.24  1484.39  1486.18
eigval :     1486.22  1492.64  1492.64  1492.67  1492.72  1494.62
eigval :     1495.24  1495.37  1495.38  1495.60  1501.76  1502.07
eigval :     1502.20  1502.41  1505.99  1506.05  1506.07  1506.18
eigval :     1515.05  1515.06  1515.25  1515.26  1520.48  1520.54
eigval :     1521.34  1521.41  1560.56  1567.79  1570.72  1574.74
eigval :     1577.48  1577.77  1578.11  1582.57  1583.05  1598.05
eigval :     1599.94  1605.32  1605.44  1615.18  1618.21  1618.80
eigval :     3020.27  3020.37  3020.51  3020.55  3021.64  3021.78
eigval :     3021.80  3021.85  3026.63  3026.65  3026.75  3026.80
eigval :     3028.90  3029.09  3029.39  3029.65  3030.70  3030.75
eigval :     3030.84  3030.91  3035.29  3035.33  3035.51  3035.65
eigval :     3037.53  3037.58  3037.72  3037.82  3046.52  3046.59
eigval :     3046.84  3047.01  3049.89  3049.97  3050.43  3050.63
eigval :     3076.22  3076.63  3077.06  3077.88  3083.02  3088.17
eigval :     3089.53  3090.50  3090.97  3091.25  3091.45  3091.96
eigval :     3096.36  3096.53  3097.22  3101.43  3102.16  3104.21
eigval :     3104.46  3105.11  3105.39  3107.46  3108.05  3114.94
eigval :     3115.01  3118.39  3118.47

   temp. (K)  partition function   enthalpy   heat capacity  entropy
                                   cal/mol     cal/K/mol   cal/K/mol   J/K/mol
 298.15  VIB  0.498E+33            39564.103    239.891    248.623
         ROT  0.424E+09              888.752      2.981     42.461
         INT  0.211E+42            40452.855    242.872    291.083
         TR   0.278E+29             1481.254      4.968     46.371
         TOT                       41934.1091   247.8399   337.4539  1411.9073

       T/K    H(0)-H(T)+PV         H(T)/Eh          T*S/Eh         G(T)/Eh
   ------------------------------------------------------------------------
    298.15    0.668263E-01    0.115225E+01    0.160335E+00    0.991917E+00
   ------------------------------------------------------------------------

         :::::::::::::::::::::::::::::::::::::::::::::::::::::
         ::                  THERMODYNAMIC                  ::
         :::::::::::::::::::::::::::::::::::::::::::::::::::::
         :: total free energy        -188.494730175261 Eh   ::
         ::.................................................::
         :: total energy             -189.486647540376 Eh   ::
         :: zero point energy           1.085426369083 Eh   ::
         :: G(RRHO) w/o ZPVE           -0.093509003968 Eh   ::
         :: G(RRHO) contrib.            0.991917365115 Eh   ::
         :::::::::::::::::::::::::::::::::::::::::::::::::::::

           -------------------------------------------------
          | TOTAL ENERGY             -189.486647540376 Eh   |
          | TOTAL ENTHALPY           -188.334394914802 Eh   |
          | TOTAL FREE ENERGY        -188.494730175261 Eh   |
          | GRADIENT NORM               0.000098995737 Eh/α |
          | HOMO-LUMO GAP               2.077560187041 eV   |
           -------------------------------------------------

 * finished run on 2025/07/20 at 15:32:10.877
