   * xtb version 6.7.1 (edcfbbe) compiled by 'albert@albert-system' on 2024-07-22

   ID    Z sym.   atoms
    1    6 C      1-12, 14-17, 19-22, 24-39
    2    7 N      13, 23
    3   16 S      18
    4    1 H      40-61

          program call               : xtb data2507/gas/ZDZ/ZDZ_gas_S0_crest.xyz --gfn 2 --ohess vtight --parallel 40 --molden --ceasefiles --namespace data2507/gas/ZDZ/ZDZ_gas_S0_finalOpt
          :  Hamiltonian                  GFN2-xTB          :
 * total energy  :   -97.4946844 Eh     change       -0.2070550E-08 Eh
 * total energy  :   -97.4946858 Eh     change       -0.1329673E-05 Eh
 * total energy  :   -97.4946868 Eh     change       -0.9998308E-06 Eh
 * total energy  :   -97.4946880 Eh     change       -0.1235386E-05 Eh
 * total energy  :   -97.4946889 Eh     change       -0.8996043E-06 Eh
 * total energy  :   -97.4946895 Eh     change       -0.5549099E-06 Eh
 * total energy  :   -97.4946899 Eh     change       -0.4333354E-06 Eh
 * total energy  :   -97.4946903 Eh     change       -0.3853415E-06 Eh
 * total energy  :   -97.4946905 Eh     change       -0.1893075E-06 Eh
 * total energy  :   -97.4946905 Eh     change       -0.5177075E-07 Eh
   *** GEOMETRY OPTIMIZATION CONVERGED AFTER 10 ITERATIONS ***

 final structure:
================
61
 xtb: 6.7.1 (edcfbbe)
C           -4.08835446488577        3.98534677420312        1.22500748741578
C           -3.04928427549572        3.21719320285148        1.74520848290199
C           -2.87764765201211        1.89489202873841        1.38270991673688
C           -3.77121601578764        1.35131711549693        0.47102411800235
C           -4.84284588430726        2.11633819069460       -0.04341941216190
C           -4.99529262715328        3.44319542293932        0.33671478369063
C           -5.58904250371775        1.24532306937790       -0.90778699743770
C           -6.71728313405551        1.42199491007285       -1.69774924046530
C           -7.17459574221986        0.35572010241765       -2.44575085288319
C           -6.51223141127466       -0.86960366313399       -2.42532706956364
C           -5.38794003326031       -1.06966407427442       -1.64733151322159
C           -4.93898187213856       -0.00946935456092       -0.87310867684659
N           -3.84204438662214        0.06791992371467       -0.03670250725608
C           -2.95876643712233       -0.97752618892471        0.25916744284725
C           -3.46294253009220       -2.22297280074099        0.65296474354075
C           -2.61198304155274       -3.26590118220287        0.95213768615343
C           -1.24454643231251       -3.05429935159411        0.87385573943192
S            0.00003371632408       -4.23022124691478        1.22986881993495
C            1.24475899274254       -3.05425629574665        0.87450008132874
C            2.61216168380738       -3.26581613922925        0.95349422275572
C            3.46325172555243       -2.22277882550949        0.65507061677274
C            2.95923593814331       -0.97723110846915        0.26139929909634
N            3.84257976110621        0.06848093773832       -0.03332836805370
C            3.77125637861272        1.35153989130721        0.47517640561862
C            2.87702100488565        1.89440444028446        1.38663190180827
C            3.04824085620621        3.21649334909114        1.75008672725082
C            4.08753502722967        3.98512536239617        1.23103931887916
C            4.99514291740028        3.44365879314895        0.34301559690579
C            4.84312126558678        2.11702715535827       -0.03807487488287
C            5.58998857490744        1.24666144786486       -0.90251620505086
C            6.71869457287336        1.42398567828300       -1.69166824140864
C            7.17661330725344        0.35824466962976       -2.44005566982569
C            6.51439706846356       -0.86718299498634       -2.42083176468448
C            5.38965552824135       -1.06789101845554       -1.64366160230050
C            4.94007414561109       -0.00823807430770       -0.86905554704738
C            1.59009968188550       -0.77273230606805        0.17223980721702
C            0.72009944733532       -1.80857734845213        0.48952922751634
C           -0.71972634216565       -1.80865085050058        0.48902785834228
C           -1.58958786093665       -0.77294875734245        0.17087842527476
H           -4.18695046580958        5.01610445912971        1.53126794615164
H           -2.36411598851899        3.66381518689095        2.45061994119762
H           -2.08075199862289        1.30373490662045        1.80855439307405
H           -5.81066475354827        4.03294132739892       -0.05412053095289
H           -7.22003710902022        2.37690384321942       -1.72632229188040
H           -8.05186000298501        0.47087957138164       -3.06472784323521
H           -6.88319706672180       -1.68080934534182       -3.03430043668473
H           -4.87121102306710       -2.01764370023521       -1.65425170501604
H           -4.53058168990286       -2.35545913593925        0.73663045326457
H           -2.99899602184479       -4.22616281441387        1.25494360281969
H            2.99904612609285       -4.22613123832280        1.25630043446566
H            4.53084837924842       -2.35525067605808        0.73931632086253
H            2.07990527273380        1.30287173206629        1.81154350782627
H            2.36254585180985        3.66257598142394        2.45532590172042
H            4.18579506640934        5.01569354911969        1.53804095972121
H            5.81069142220609        4.03375885268207       -0.04691353904566
H            7.22133323667009        2.37898364693376       -1.71931871989553
H            8.05423315400674        0.47391425115151       -3.05843350214890
H            6.88587683869263       -1.67795484015195       -3.03006904438750
H            4.87307919311782       -2.01594837465133       -1.65143790516543
H            1.20565272013083        0.18185349496931       -0.15224264972196
H           -1.20497869343301        0.18157706123129       -0.15359218270188

          :  Hamiltonian                  GFN2-xTB          :
         :: gradient norm              0.000034250918 Eh/a0 ::
         :: HOMO-LUMO gap              2.482286116973 eV    ::
         :: SCC energy               -99.305943874762 Eh    ::
         :: -> dispersion             -0.087226782881 Eh    ::
         :: repulsion energy           1.811253360492 Eh    ::

    * Orbital Energies and Occupations

         #    Occupation            Energy/Eh            Energy/eV
      -------------------------------------------------------------
         1        2.0000           -0.7338960             -19.9703
       ...           ...                  ...                  ...
        79        2.0000           -0.4220520             -11.4846
        80        2.0000           -0.4192361             -11.4080
        81        2.0000           -0.4190268             -11.4023
        82        2.0000           -0.4183225             -11.3831
        83        2.0000           -0.4181985             -11.3798
        84        2.0000           -0.4057520             -11.0411
        85        2.0000           -0.4056616             -11.0386
        86        2.0000           -0.4019577             -10.9378
        87        2.0000           -0.3861400             -10.5074
        88        2.0000           -0.3790144             -10.3135
        89        2.0000           -0.3790131             -10.3135
        90        2.0000           -0.3649234              -9.9301
        91        2.0000           -0.3607289              -9.8159 (HOMO)
        92                         -0.2695065              -7.3336 (LUMO)
        93                         -0.2507242              -6.8226
        94                         -0.2469416              -6.7196
        95                         -0.2426303              -6.6023
        96                         -0.2385321              -6.4908
        97                         -0.2222752              -6.0484
        98                         -0.2222727              -6.0483
        99                         -0.2145086              -5.8371
       100                         -0.2116065              -5.7581
       101                         -0.1931496              -5.2559
       102                         -0.1889414              -5.1414
       ...                                ...                  ...
       183                          0.7456208              20.2894
      -------------------------------------------------------------
                  HL-Gap            0.0912223 Eh            2.4823 eV

     #   Z          covCN         q      C6AA      α(0)
     1   6 C        2.920    -0.040    29.006     8.832
     2   6 C        2.924    -0.033    28.824     8.804
     3   6 C        2.910    -0.051    29.264     8.870
     4   6 C        3.074     0.046    26.888     8.502
     5   6 C        3.068    -0.017    28.351     8.731
     6   6 C        2.913    -0.032    28.809     8.801
     7   6 C        3.068    -0.017    28.353     8.731
     8   6 C        2.913    -0.033    28.811     8.802
     9   6 C        2.920    -0.041    29.006     8.832
    10   6 C        2.924    -0.033    28.826     8.805
    11   6 C        2.910    -0.051    29.268     8.871
    12   6 C        3.074     0.046    26.886     8.502
    13   7 N        2.803    -0.044    22.087     6.980
    14   6 C        2.911     0.061    26.629     8.462
    15   6 C        2.925    -0.044    29.086     8.844
    16   6 C        2.934    -0.038    28.940     8.823
    17   6 C        3.003     0.034    27.219     8.558
    18  16 S        2.210    -0.081   144.419    20.226
    19   6 C        3.003     0.034    27.219     8.558
    20   6 C        2.934    -0.038    28.940     8.823
    21   6 C        2.925    -0.044    29.086     8.844
    22   6 C        2.911     0.061    26.629     8.462
    23   7 N        2.803    -0.044    22.087     6.980
    24   6 C        3.074     0.046    26.888     8.502
    25   6 C        2.910    -0.051    29.264     8.870
    26   6 C        2.924    -0.033    28.824     8.804
    27   6 C        2.920    -0.040    29.006     8.832
    28   6 C        2.913    -0.032    28.809     8.801
    29   6 C        3.068    -0.017    28.351     8.731
    30   6 C        3.068    -0.017    28.353     8.731
    31   6 C        2.913    -0.033    28.811     8.802
    32   6 C        2.920    -0.041    29.006     8.832
    33   6 C        2.924    -0.033    28.826     8.805
    34   6 C        2.910    -0.051    29.268     8.871
    35   6 C        3.074     0.046    26.886     8.502
    36   6 C        2.920    -0.047    29.167     8.856
    37   6 C        3.105    -0.002    27.936     8.660
    38   6 C        3.105    -0.002    27.936     8.660
    39   6 C        2.920    -0.047    29.167     8.856
    40   1 H        0.926     0.029     2.605     2.524
    41   1 H        0.926     0.029     2.595     2.519
    42   1 H        0.926     0.026     2.648     2.545
    43   1 H        0.926     0.032     2.565     2.504
    44   1 H        0.926     0.031     2.565     2.505
    45   1 H        0.926     0.029     2.606     2.525
    46   1 H        0.926     0.029     2.594     2.518
    47   1 H        0.926     0.027     2.633     2.537
    48   1 H        0.926     0.048     2.340     2.392
    49   1 H        0.926     0.047     2.362     2.403
    50   1 H        0.926     0.047     2.362     2.403
    51   1 H        0.926     0.048     2.340     2.392
    52   1 H        0.926     0.026     2.648     2.545
    53   1 H        0.926     0.029     2.595     2.519
    54   1 H        0.926     0.029     2.605     2.524
    55   1 H        0.926     0.032     2.565     2.504
    56   1 H        0.926     0.031     2.565     2.505
    57   1 H        0.926     0.029     2.606     2.525
    58   1 H        0.926     0.029     2.594     2.518
    59   1 H        0.926     0.027     2.633     2.537
    60   1 H        0.926     0.047     2.351     2.398
    61   1 H        0.926     0.047     2.351     2.398

molecular dipole:
                 x           y           z       tot (Debye)
 q only:       -0.000      -0.335       0.089
   full:       -0.000      -0.282       0.069       0.738

 projected vibrational frequencies (cm⁻¹)
eigval :       -0.00    -0.00    -0.00    -0.00     0.00     0.00
eigval :       15.68    16.18    21.03    36.05    42.39    49.49
eigval :       89.07   103.57   109.40   111.80   120.34   142.70
eigval :      144.77   162.98   168.36   172.36   219.19   251.25
eigval :      267.45   271.58   272.05   276.31   276.58   316.03
eigval :      334.60   361.57   386.49   396.82   396.82   399.88
eigval :      421.26   421.30   424.26   434.48   436.46   440.40
eigval :      457.29   504.94   517.80   519.21   524.31   528.16
eigval :      539.10   540.73   541.25   542.88   561.51   583.74
eigval :      588.79   603.38   615.75   647.41   663.07   663.50
eigval :      669.19   673.65   673.83   690.98   708.38   708.51
eigval :      718.80   741.16   755.41   758.94   769.13   769.73
eigval :      780.60   781.02   815.96   825.66   826.77   865.18
eigval :      865.86   873.41   873.52   882.13   885.75   897.85
eigval :      898.19   902.05   902.11   904.04   904.96   916.22
eigval :      916.33   922.50   923.28   925.33   925.41   927.51
eigval :      998.87  1009.97  1013.16  1013.48  1051.70  1070.65
eigval :     1070.99  1074.07  1074.48  1089.44  1113.13  1118.95
eigval :     1152.24  1152.75  1160.88  1164.55  1171.97  1176.51
eigval :     1181.11  1181.61  1185.67  1192.11  1221.73  1226.26
eigval :     1232.30  1236.92  1237.38  1245.38  1269.05  1300.11
eigval :     1300.17  1302.10  1306.06  1331.29  1334.50  1349.84
eigval :     1354.84  1359.49  1360.94  1362.73  1364.01  1405.16
eigval :     1413.95  1423.62  1428.12  1428.41  1446.36  1461.38
eigval :     1471.91  1476.51  1480.37  1488.36  1488.43  1548.44
eigval :     1550.47  1574.93  1575.18  1583.61  1586.99  1589.20
eigval :     1589.53  1599.45  1599.57  1614.77  1615.37  3076.11
eigval :     3076.37  3076.75  3076.81  3081.13  3081.29  3082.26
eigval :     3082.38  3087.77  3088.13  3089.64  3089.84  3095.41
eigval :     3095.68  3095.78  3096.06  3097.11  3097.24  3097.34
eigval :     3100.58  3106.33  3106.52

   temp. (K)  partition function   enthalpy   heat capacity  entropy
                                   cal/mol     cal/K/mol   cal/K/mol   J/K/mol
 298.15  VIB  0.514E+12            16476.833    110.188     99.012
         ROT  0.511E+08              888.752      2.981     38.252
         INT  0.262E+20            17365.585    113.169    137.264
         TR   0.113E+29             1481.254      4.968     44.581
         TOT                       18846.8392   118.1371   181.8452   760.8404

       T/K    H(0)-H(T)+PV         H(T)/Eh          T*S/Eh         G(T)/Eh
   ------------------------------------------------------------------------
    298.15    0.300344E-01    0.490140E+00    0.864005E-01    0.403740E+00
   ------------------------------------------------------------------------

         :::::::::::::::::::::::::::::::::::::::::::::::::::::
         ::                  THERMODYNAMIC                  ::
         :::::::::::::::::::::::::::::::::::::::::::::::::::::
         :: total free energy         -97.090950829101 Eh   ::
         ::.................................................::
         :: total energy              -97.494690514389 Eh   ::
         :: zero point energy           0.460105869497 Eh   ::
         :: G(RRHO) w/o ZPVE           -0.056366184209 Eh   ::
         :: G(RRHO) contrib.            0.403739685288 Eh   ::
         :::::::::::::::::::::::::::::::::::::::::::::::::::::

           -------------------------------------------------
          | TOTAL ENERGY              -97.494690514389 Eh   |
          | TOTAL ENTHALPY            -97.004550294882 Eh   |
          | TOTAL FREE ENERGY         -97.090950829101 Eh   |
          | GRADIENT NORM               0.000034238384 Eh/α |
          | HOMO-LUMO GAP               2.482285567187 eV   |
           -------------------------------------------------

 * finished run on 2025/07/16 at 19:23:58.403
