   * xtb version 6.7.1 (edcfbbe) compiled by 'albert@albert-system' on 2024-07-22

   ID    Z sym.   atoms
    1    6 C      1-12, 14-17, 19-22, 24-39
    2    7 N      13, 23
    3   16 S      18
    4    1 H      40-61

          program call               : xtb data2507/gas/ZDZ/ZDZ_gas_S0_finalOpt.xtbopt.xyz --gfn 2 --spinpol --tblite --uhf 2 --ohess vtight --parallel 40 --molden --ceasefiles --namespace data2507/gas/ZDZ/ZDZ_gas_T1_preOpt
 * total energy  :   -97.3932164 Eh     change        0.1075585E-07 Eh
 * total energy  :   -97.3955553 Eh     change       -0.2338891E-02 Eh
 * total energy  :   -97.3962953 Eh     change       -0.7400756E-03 Eh
 * total energy  :   -97.3963482 Eh     change       -0.5284088E-04 Eh
 * total energy  :   -97.3963723 Eh     change       -0.2411952E-04 Eh
 * total energy  :   -97.3963796 Eh     change       -0.7261065E-05 Eh
 * total energy  :   -97.3963852 Eh     change       -0.5653127E-05 Eh
 * total energy  :   -97.3963892 Eh     change       -0.3988885E-05 Eh
 * total energy  :   -97.3963916 Eh     change       -0.2440471E-05 Eh
 * total energy  :   -97.3963934 Eh     change       -0.1750479E-05 Eh
 * total energy  :   -97.3963978 Eh     change       -0.5521472E-06 Eh
 * total energy  :   -97.3963984 Eh     change       -0.5322861E-06 Eh
 * total energy  :   -97.3963988 Eh     change       -0.4599851E-06 Eh
 * total energy  :   -97.3963992 Eh     change       -0.4259125E-06 Eh
 * total energy  :   -97.3963997 Eh     change       -0.4515920E-06 Eh
 * total energy  :   -97.3964003 Eh     change       -0.5624846E-06 Eh
 * total energy  :   -97.3964010 Eh     change       -0.7141735E-06 Eh
 * total energy  :   -97.3964009 Eh     change        0.1937225E-07 Eh
 * total energy  :   -97.3964010 Eh     change       -0.1932175E-07 Eh
   *** GEOMETRY OPTIMIZATION CONVERGED AFTER 23 ITERATIONS ***

 final structure:
================
61
 xtb: 6.7.1 (edcfbbe)
C           -4.05404407435358        3.99181568091003        1.20500574605170
C           -3.02385342712765        3.21806469438659        1.73163674712380
C           -2.86805325447026        1.88805839898856        1.37928007655944
C           -3.76538078043504        1.34993611276872        0.46804358326742
C           -4.83429946967590        2.12179748368402       -0.04784018750826
C           -4.97256125165662        3.45203436251889        0.32229890274743
C           -5.59498114658601        1.24790376055915       -0.89788465387301
C           -6.72117112346466        1.42791871171211       -1.68816951241463
C           -7.18880071822508        0.35577541965655       -2.42713306112714
C           -6.53813989448804       -0.87437190605138       -2.39835280937185
C           -5.41260398407146       -1.07720587612311       -1.61796592181493
C           -4.95642862781115       -0.01500908463002       -0.85084696798369
N           -3.85275494499164        0.06233993687715       -0.02425202606551
C           -2.97167305193027       -0.97981559992402        0.26723516856005
C           -3.48744401072668       -2.23897962841811        0.62052315652826
C           -2.60791564496280       -3.28240580305642        0.92220268386943
C           -1.25658793142957       -3.05597476505044        0.85467300629592
S            0.00007029767661       -4.23343701076072        1.17983321700348
C            1.25680889953315       -3.05578452234960        0.85566352445285
C            2.60812684816344       -3.28201909611141        0.92424870579945
C            3.48772703817687       -2.23843977584426        0.62334764644527
C            2.97206618739608       -0.97931270770502        0.26980357382992
N            3.85321165496195        0.06303893531714       -0.02078035129342
C            3.76531722454421        1.35048914463777        0.47179569971961
C            2.86722128997671        1.88826068135448        1.38249192918207
C            3.02262006209031        3.21817217896894        1.73536517535489
C            4.05313661320576        3.99218521741885        1.20976337170191
C            4.97237995158282        3.45275940035554        0.32758318347790
C            4.83454409694753        2.12262671861020       -0.04304674286899
C            5.59598833383706        1.24904333750368       -0.89275067766792
C            6.72275902001294        1.42939446343764       -1.68211130552582
C            7.19107691960862        0.35749813382793       -2.42101090507421
C            6.54052908145590       -0.87272766383903       -2.39305915622154
C            5.41442016780918       -1.07589749092277       -1.61359631003914
C            4.95752590733384       -0.01395250804803       -0.84654714213141
C            1.60532555232907       -0.74676375239377        0.20171118556804
C            0.70366905411439       -1.78794593133049        0.49108722200115
C           -0.70333749822640       -1.78805939969443        0.49049706013965
C           -1.60493176663245       -0.74705478712488        0.20025062145429
H           -4.14246831235958        5.02613447389452        1.50228786431914
H           -2.33478463622954        3.66149673197158        2.43462869847860
H           -2.08193390493428        1.28868989839377        1.81179791264613
H           -5.78368679291311        4.04771903023058       -0.06774886570332
H           -7.21509028076307        2.38680496064512       -1.72781402676724
H           -8.06542572525452        0.47502858494180       -3.04624634165474
H           -6.91516217496931       -1.68701968416622       -3.00088167646488
H           -4.90089669290919       -2.02696992902237       -1.61891622849020
H           -4.55115145659760       -2.37862955213049        0.71328382974829
H           -2.99120247631118       -4.24594209960772        1.21973953420562
H            2.99131342628707       -4.24551934889401        1.22203887619383
H            4.55139150439888       -2.37794152685648        0.71690665728784
H            2.08082203735678        1.28867547924733        1.81420698280033
H            2.33295089964160        3.66133649266275        2.43794284718376
H            4.14122446950490        5.02642938681974        1.50741220808674
H            5.78374574828967        4.04865344553554       -0.06165696919276
H            7.21657899490936        2.38835920608579       -1.72116792238340
H            8.06812639163187        0.47703740463638       -3.03947208906087
H            6.91811074285129       -1.68517105311915       -2.99552029737319
H            4.90284183846287       -2.02573336752509       -1.61514073140944
H            1.23309617191408        0.21101838149829       -0.12610097097804
H           -1.23256749299922        0.21072656634853       -0.12741341723774

 projected vibrational frequencies (cm⁻¹)
eigval :       -0.00    -0.00    -0.00     0.00     0.00     0.00
eigval :       15.58    16.05    21.85    35.94    43.51    49.44
eigval :       87.71   103.46   108.95   110.15   119.59   140.92
eigval :      144.11   154.17   163.12   173.14   202.91   227.56
eigval :      259.07   264.96   269.94   273.74   276.92   302.58
eigval :      318.71   359.64   360.22   380.94   392.14   393.99
eigval :      394.01   417.97   418.92   428.58   430.65   436.20
eigval :      452.17   498.03   498.84   514.21   514.47   516.34
eigval :      527.80   533.71   533.77   544.32   549.18   576.53
eigval :      584.41   590.46   597.58   621.33   641.01   642.51
eigval :      653.87   656.10   671.68   672.10   702.36   704.84
eigval :      707.86   730.94   747.77   752.32   753.21   756.30
eigval :      766.52   767.81   775.85   776.06   796.03   802.62
eigval :      810.98   845.33   851.22   867.49   867.93   869.04
eigval :      869.95   884.55   895.66   897.91   899.98   900.85
eigval :      901.46   901.65   916.49   916.90   917.69   918.09
eigval :      922.96   986.94  1010.38  1010.65  1014.27  1022.33
eigval :     1064.45  1067.95  1068.03  1070.40  1099.39  1105.80
eigval :     1112.74  1141.47  1141.80  1144.51  1149.29  1166.20
eigval :     1173.61  1177.77  1178.17  1179.64  1181.38  1202.59
eigval :     1221.52  1224.91  1228.28  1229.94  1231.92  1254.57
eigval :     1274.17  1281.36  1282.39  1292.04  1309.36  1336.56
eigval :     1342.25  1343.50  1349.51  1350.91  1356.48  1365.45
eigval :     1379.84  1384.83  1408.41  1409.83  1410.42  1411.22
eigval :     1442.02  1445.43  1460.36  1461.11  1473.75  1478.66
eigval :     1479.89  1491.22  1505.23  1550.53  1551.59  1552.94
eigval :     1572.95  1573.02  1575.85  1575.93  1602.17  3080.05
eigval :     3080.17  3080.18  3080.55  3086.25  3086.54  3087.74
eigval :     3087.89  3092.64  3093.44  3093.48  3094.08  3094.45
eigval :     3095.49  3095.70  3097.51  3097.75  3099.66  3099.75
eigval :     3100.80  3115.97  3116.41

   temp. (K)  partition function   enthalpy   heat capacity  entropy
                                   cal/mol     cal/K/mol   cal/K/mol   J/K/mol
 298.15  VIB  0.821E+12            16878.981    112.892    101.355
         ROT  0.510E+08              888.752      2.981     38.250
         INT  0.419E+20            17767.734    115.872    139.606
         TR   0.113E+29             1481.254      4.968     44.581
         TOT                       19248.9876   120.8406   184.1867   770.6373

       T/K    H(0)-H(T)+PV         H(T)/Eh          T*S/Eh         G(T)/Eh
   ------------------------------------------------------------------------
    298.15    0.306752E-01    0.484675E+00    0.875131E-01    0.397162E+00
   ------------------------------------------------------------------------

         :::::::::::::::::::::::::::::::::::::::::::::::::::::
         ::                  THERMODYNAMIC                  ::
         :::::::::::::::::::::::::::::::::::::::::::::::::::::
         :: total free energy         -96.999238907506 Eh   ::
         ::.................................................::
         :: total energy              -97.396400967295 Eh   ::
         :: zero point energy           0.453999901233 Eh   ::
         :: G(RRHO) w/o ZPVE           -0.056837841444 Eh   ::
         :: G(RRHO) contrib.            0.397162059789 Eh   ::
         :::::::::::::::::::::::::::::::::::::::::::::::::::::

           -------------------------------------------------
          | TOTAL ENERGY              -97.396400967295 Eh   |
          | TOTAL ENTHALPY            -96.911725851792 Eh   |
          | TOTAL FREE ENERGY         -96.999238907506 Eh   |
          | GRADIENT NORM               0.000154071819 Eh/α |
           -------------------------------------------------

 * finished run on 2025/07/16 at 19:24:03.967
