   * xtb version 6.7.1 (edcfbbe) compiled by 'albert@albert-system' on 2024-07-22

   ID    Z sym.   atoms
    1    6 C      1-12, 14-17, 19-22, 24-39
    2    7 N      13, 23
    3   16 S      18
    4    1 H      40-61

          program call               : xtb data2507/gas/ZDZ/ZDZ_gas_T1_crest.xyz --gfn 2 --spinpol --tblite --uhf 2 --ohess vtight --parallel 40 --molden --ceasefiles --namespace data2507/gas/ZDZ/ZDZ_gas_T1_finalOpt
 * total energy  :   -97.3963794 Eh     change       -0.7633830E-07 Eh
 * total energy  :   -97.3963979 Eh     change       -0.1854785E-04 Eh
 * total energy  :   -97.3964063 Eh     change       -0.8341443E-05 Eh
 * total energy  :   -97.3964070 Eh     change       -0.6849356E-06 Eh
 * total energy  :   -97.3964066 Eh     change        0.3236104E-06 Eh
 * total energy  :   -97.3964072 Eh     change       -0.6064032E-06 Eh
 * total energy  :   -97.3964074 Eh     change       -0.1854552E-06 Eh
 * total energy  :   -97.3964077 Eh     change       -0.2458561E-06 Eh
 * total energy  :   -97.3964079 Eh     change       -0.2033625E-06 Eh
 * total energy  :   -97.3964080 Eh     change       -0.1546713E-06 Eh
 * total energy  :   -97.3964082 Eh     change       -0.1231207E-06 Eh
 * total energy  :   -97.3964083 Eh     change       -0.1175515E-06 Eh
 * total energy  :   -97.3964084 Eh     change       -0.1019340E-06 Eh
 * total energy  :   -97.3964085 Eh     change       -0.7821973E-07 Eh
   *** GEOMETRY OPTIMIZATION CONVERGED AFTER 14 ITERATIONS ***

 final structure:
================
61
 xtb: 6.7.1 (edcfbbe)
C           -4.00276437665016        3.99955872245342        1.18512800162400
C           -2.97177656631913        3.22061428058885        1.70235436149397
C           -2.83195697237145        1.88713533566786        1.35645129572441
C           -3.74598373314300        1.35070650760570        0.46092820369992
C           -4.81621841150546        2.12787240969512       -0.04401349373661
C           -4.93832001060841        3.46157428325669        0.31938967513347
C           -5.59665345490024        1.25464901089411       -0.87666983768499
C           -6.73420467293200        1.43849557910738       -1.64958887525960
C           -7.22250634506481        0.36525994016660       -2.37343809771236
C           -6.58090356062163       -0.86966037638878       -2.34743217673026
C           -5.44398670299708       -1.07620581969492       -1.58464904113672
C           -4.96718766300947       -0.01295348495769       -0.83171080334086
N           -3.85028049464551        0.06080597910275       -0.02264677968869
C           -2.97135266374418       -0.98461116337649        0.26268223227529
C           -3.48747779521147       -2.24068248934460        0.62659707210880
C           -2.60830848132703       -3.28503487955481        0.92627744195868
C           -1.25685048244695       -3.06233710620986        0.84903103680996
S            0.00014258221133       -4.23866899954751        1.17750678301539
C            1.25691240571889       -3.06218912808537        0.84876560733534
C            2.60841669108473       -3.28470504949614        0.92577772621699
C            3.48738437688288       -2.24030864299107        0.62569637033284
C            2.97105521226070       -0.98441384271262        0.26140461976037
N            3.84986128536498        0.06084900776635       -0.02477170061982
C            3.74563784663869        1.35113598301883        0.45781997069092
C            2.83165075451570        1.88834904620288        1.35290920872602
C            2.97155497467172        3.22210290273588        1.69775276462120
C            4.00261644384069        4.00055759651182        1.17994872411004
C            4.93815744991737        3.46181126259733        0.31466773226843
C            4.81594622191656        2.12783607919793       -0.04769899697750
C            5.59633681066448        1.25393816310327       -0.87967434291374
C            6.73394780752192        1.43712855859260       -1.65266744325773
C            7.22220783128583        0.36332135786300       -2.37569791722971
C            6.58047052228302       -0.87150658887298       -2.34886711719188
C            5.44348126270691       -1.07739251324281       -1.58600127480374
C            4.96677299589384       -0.01358198705832       -0.83379741088672
C            1.60410389465742       -0.75682620169836        0.18117275797590
C            0.70335978913554       -1.79753841840741        0.47411477318395
C           -0.70352045864166       -1.79759840266189        0.47436816806934
C           -1.60445623253995       -0.75686925825382        0.18208553981726
H           -4.07836161359659        5.03651085215125        1.47673661979639
H           -2.26928646684449        3.66261595453776        2.39286729612159
H           -2.04514255180428        1.28407829463312        1.78250099789008
H           -5.75013122674236        4.06141146110333       -0.06277345578814
H           -7.22124309811654        2.40096644820748       -1.68742277222912
H           -8.10855311380784        0.48732092306441       -2.97843622284174
H           -6.97428161671302       -1.68327554511404       -2.93809562945855
H           -4.93958294451896       -2.02984185768347       -1.58834302665714
H           -4.55060593061220       -2.37689099190826        0.73029759577482
H           -2.99202336033552       -4.24592812472000        1.23177406406267
H            2.99231674063247       -4.24549316152161        1.23136898940642
H            4.55054201106234       -2.37634303585940        0.72931329426567
H            2.04479815685066        1.28570666160368        1.77946906637814
H            2.26908557455991        3.66469609296167        2.38790638162579
H            4.07828472293013        5.03773658097476        1.47073319133005
H            5.75001545405659        4.06127980036152       -0.06797016756931
H            7.22106839796253        2.39953024080725       -1.69117198516917
H            8.10831372278017        0.48485891278688       -2.98071567135909
H            6.97378992177532       -1.68558504792502       -2.93892969897303
H            4.93897401306018       -2.03097414015391       -1.58910318739050
H            1.23123601901899        0.19721635689727       -0.15658825427320
H           -1.23180078359122        0.19738124752237       -0.15532787202428

 projected vibrational frequencies (cm⁻¹)
eigval :       -0.00    -0.00     0.00     0.00     0.00     0.00
eigval :       15.49    15.88    21.84    36.60    43.40    49.39
eigval :       87.46   103.47   108.84   110.21   119.70   140.86
eigval :      144.17   154.21   162.83   173.67   204.08   227.59
eigval :      259.15   264.91   270.07   273.74   277.15   302.63
eigval :      318.88   359.63   360.37   380.92   392.22   394.06
eigval :      394.17   417.86   418.85   428.22   430.68   436.38
eigval :      452.17   498.77   498.98   514.42   514.56   516.45
eigval :      527.86   533.62   533.76   544.59   549.22   576.63
eigval :      584.48   590.58   597.50   621.36   641.02   642.57
eigval :      653.87   656.22   671.68   672.10   701.98   704.86
eigval :      707.69   730.68   747.10   751.94   752.87   756.01
eigval :      766.26   767.73   775.75   775.92   796.10   802.52
eigval :      811.15   844.87   851.08   867.60   868.06   868.98
eigval :      870.13   884.86   895.53   897.75   900.02   900.88
eigval :      901.50   901.71   916.35   916.89   917.61   918.03
eigval :      923.16   986.96  1010.11  1010.44  1013.57  1022.12
eigval :     1064.67  1067.72  1067.78  1070.26  1101.19  1105.99
eigval :     1112.37  1141.46  1141.85  1145.05  1149.78  1166.09
eigval :     1172.43  1177.64  1178.05  1179.39  1181.50  1203.29
eigval :     1221.84  1224.90  1228.00  1229.79  1231.75  1254.71
eigval :     1274.55  1281.39  1281.99  1291.99  1309.89  1336.58
eigval :     1342.33  1343.56  1349.05  1350.96  1356.60  1365.60
eigval :     1380.28  1385.27  1408.38  1410.06  1410.81  1411.55
eigval :     1442.03  1445.76  1460.46  1461.25  1473.96  1478.91
eigval :     1479.60  1491.19  1505.79  1550.51  1551.51  1553.20
eigval :     1572.93  1573.02  1575.87  1575.99  1602.21  3080.18
eigval :     3080.37  3080.49  3080.71  3086.39  3086.69  3087.91
eigval :     3088.06  3093.02  3093.70  3093.84  3094.30  3095.05
eigval :     3095.97  3096.05  3097.87  3098.74  3100.01  3100.63
eigval :     3101.02  3116.33  3116.60

   temp. (K)  partition function   enthalpy   heat capacity  entropy
                                   cal/mol     cal/K/mol   cal/K/mol   J/K/mol
 298.15  VIB  0.820E+12            16876.676    112.896    101.353
         ROT  0.509E+08              888.752      2.981     38.244
         INT  0.417E+20            17765.428    115.877    139.597
         TR   0.113E+29             1481.254      4.968     44.581
         TOT                       19246.6818   120.8450   184.1781   770.6012

       T/K    H(0)-H(T)+PV         H(T)/Eh          T*S/Eh         G(T)/Eh
   ------------------------------------------------------------------------
    298.15    0.306715E-01    0.484699E+00    0.875090E-01    0.397190E+00
   ------------------------------------------------------------------------

         :::::::::::::::::::::::::::::::::::::::::::::::::::::
         ::                  THERMODYNAMIC                  ::
         :::::::::::::::::::::::::::::::::::::::::::::::::::::
         :: total free energy         -96.999218018687 Eh   ::
         ::.................................................::
         :: total energy              -97.396408430023 Eh   ::
         :: zero point energy           0.454027833982 Eh   ::
         :: G(RRHO) w/o ZPVE           -0.056837422646 Eh   ::
         :: G(RRHO) contrib.            0.397190411336 Eh   ::
         :::::::::::::::::::::::::::::::::::::::::::::::::::::

           -------------------------------------------------
          | TOTAL ENERGY              -97.396408430023 Eh   |
          | TOTAL ENTHALPY            -96.911709056269 Eh   |
          | TOTAL FREE ENERGY         -96.999218018687 Eh   |
          | GRADIENT NORM               0.000070824476 Eh/α |
           -------------------------------------------------

 * finished run on 2025/07/16 at 19:28:14.397
