   * xtb version 6.7.1 (edcfbbe) compiled by 'albert@albert-system' on 2024-07-22

   ID    Z sym.   atoms
    1    6 C      1-12, 14-17, 19-22, 24-39
    2    7 N      13, 23
    3   16 S      18
    4    1 H      40-61

          program call               : xtb data2507/gas/ZDZ/ZDZ.xyz --gfn 2 --ohess vtight --parallel 40 --molden --ceasefiles --namespace data2507/gas/ZDZ/ZDZ_gas_S0_preOpt
          :  Hamiltonian                  GFN2-xTB          :
 * total energy  :   -97.4751821 Eh     change       -0.2862762E-08 Eh
 * total energy  :   -97.4899426 Eh     change       -0.1476052E-01 Eh
 * total energy  :   -97.4931988 Eh     change       -0.3256215E-02 Eh
 * total energy  :   -97.4937805 Eh     change       -0.5817004E-03 Eh
 * total energy  :   -97.4942066 Eh     change       -0.4261512E-03 Eh
 * total energy  :   -97.4943720 Eh     change       -0.1653790E-03 Eh
 * total energy  :   -97.4944778 Eh     change       -0.1057308E-03 Eh
 * total energy  :   -97.4945228 Eh     change       -0.4507724E-04 Eh
 * total energy  :   -97.4945560 Eh     change       -0.3312932E-04 Eh
 * total energy  :   -97.4945781 Eh     change       -0.2217774E-04 Eh
 * total energy  :   -97.4946821 Eh     change       -0.7359039E-06 Eh
 * total energy  :   -97.4946827 Eh     change       -0.6062342E-06 Eh
 * total energy  :   -97.4946832 Eh     change       -0.4730233E-06 Eh
 * total energy  :   -97.4946836 Eh     change       -0.3363992E-06 Eh
 * total energy  :   -97.4946838 Eh     change       -0.2142083E-06 Eh
 * total energy  :   -97.4946839 Eh     change       -0.1480430E-06 Eh
 * total energy  :   -97.4946840 Eh     change       -0.1264447E-06 Eh
 * total energy  :   -97.4946842 Eh     change       -0.1288731E-06 Eh
 * total energy  :   -97.4946842 Eh     change       -0.1262478E-08 Eh
   *** GEOMETRY OPTIMIZATION CONVERGED AFTER 44 ITERATIONS ***

 final structure:
================
61
 xtb: 6.7.1 (edcfbbe)
C           -7.19635150557353       -0.29387900845764        2.30008705885514
C           -6.54544502755557       -1.50874837989440        2.09778172358591
C           -5.41379543144240       -1.59921227314532        1.31001034357797
C           -4.94548192407480       -0.43760163776080        0.71305343960304
C           -5.58391888978299        0.80408958162676        0.93442991207233
C           -6.71974533691223        0.86971354633186        1.73048033169288
C           -4.81945072737684        1.78972347633479        0.22261433111546
C           -4.95444223628046        3.16114301074017        0.05135634846080
C           -4.03217864376996        3.82393340962754       -0.73326390444020
C           -2.99546356095038        3.13352897625771       -1.35684568180536
C           -2.84119919167361        1.76913769439446       -1.20219342132145
C           -3.74962917362921        1.10125943724782       -0.39351539328822
N           -3.83838741446400       -0.24440391013101       -0.09065214807959
C           -2.95800824471861       -1.23894841862497       -0.53350418596801
C           -3.46276077393823       -2.40827560254629       -1.11515021682509
C           -2.61249377933819       -3.39651712282130       -1.56474328348050
C           -1.24492683122100       -3.20336834925501       -1.44938734428277
S           -0.00000392754071       -4.31154969300467       -1.97980244539421
C            1.24492128047433       -3.20337420217474       -1.44938059509084
C            2.61248800771566       -3.39652814310693       -1.56473080239899
C            3.46275692227755       -2.40828872960862       -1.11513669545315
C            2.95800639123406       -1.23895839422895       -0.53349531547930
N            3.83838684172693       -0.24441360875824       -0.09064628909148
C            4.94548055137785       -0.43760910057170        0.71306083684974
C            5.41379198474300       -1.59921741423092        1.31002378904999
C            6.54544219675378       -1.50875152082651        2.09779409577647
C            7.19635213823674       -0.29388262154063        2.30009121439678
C            6.71974856333263        0.86970767253608        1.73047765726138
C            5.58392080507213        0.80408190303364        0.93442926463818
C            4.81945232904265        1.78971408173589        0.22261165335845
C            4.95444500660570        3.16113281997594        0.05134845983069
C            4.03218392191083        3.82392051650942       -0.73327697395631
C            2.99546984889987        3.13351420078574       -1.35685826613088
C            2.84120347955434        1.76912385616861       -1.20219969359409
C            3.74963132617726        1.10124830366193       -0.39351704406817
C            1.58882472392635       -1.05585935118102       -0.40629715895449
C            0.71981628215763       -2.03274652620285       -0.87595573095420
C           -0.71981967886578       -2.03274276388423       -0.87595998209830
C           -1.58882633045425       -1.05585359595129       -0.40630225088160
H           -8.07994222498979       -0.26561328996939        2.92012764371257
H           -6.93149602719705       -2.39990657773811        2.57034720121985
H           -4.90630707030861       -2.54275528319518        1.17638684240913
H           -7.21350242943798        1.81450263262265        1.90079980074772
H           -5.76820687226717        3.69259218881460        0.52116388617430
H           -4.11677315891342        4.89082940066136       -0.87659842231639
H           -2.29815140402950        3.67591650558744       -1.97821663404297
H           -2.04600633995565        1.24208055069744       -1.70785921668880
H           -4.53007615845279       -2.52268481162465       -1.22524008084809
H           -3.00031047988652       -4.29800355353210       -2.01252906763224
H            3.00030313896849       -4.29801625446487       -2.01251457105707
H            4.53007223201511       -2.52270134386963       -1.22522389401160
H            4.90630389889818       -2.54276087568247        1.17640247407118
H            6.93149319092610       -2.39990841908118        2.57036198435520
H            8.07994141835170       -0.26561488135498        2.92013375509708
H            7.21350405284905        1.81449764277523        1.90079676780789
H            5.76821319151474        3.69258223843690        0.52114966264330
H            4.11678175633920        4.89081531159704       -0.87661891826548
H            2.29815791069404        3.67589995435792       -1.97823112013094
H            2.04600857133095        1.24206587835972       -1.70786144612699
H            1.20350083498239       -0.16403090540840        0.06319753752985
H           -1.20350100308880       -0.16402722705123        0.06319517826213

          :  Hamiltonian                  GFN2-xTB          :
         :: gradient norm              0.000028618941 Eh/a0 ::
         :: HOMO-LUMO gap              2.483849658840 eV    ::
         :: SCC energy               -99.305973964069 Eh    ::
         :: -> dispersion             -0.087287284073 Eh    ::
         :: repulsion energy           1.811289787006 Eh    ::

    * Orbital Energies and Occupations

         #    Occupation            Energy/Eh            Energy/eV
      -------------------------------------------------------------
         1        2.0000           -0.7337774             -19.9671
       ...           ...                  ...                  ...
        79        2.0000           -0.4220316             -11.4841
        80        2.0000           -0.4192480             -11.4083
        81        2.0000           -0.4190508             -11.4030
        82        2.0000           -0.4183510             -11.3839
        83        2.0000           -0.4182076             -11.3800
        84        2.0000           -0.4057745             -11.0417
        85        2.0000           -0.4056901             -11.0394
        86        2.0000           -0.4018713             -10.9355
        87        2.0000           -0.3861261             -10.5070
        88        2.0000           -0.3790477             -10.3144
        89        2.0000           -0.3790468             -10.3144
        90        2.0000           -0.3649456              -9.9307
        91        2.0000           -0.3606926              -9.8149 (HOMO)
        92                         -0.2694128              -7.3311 (LUMO)
        93                         -0.2507092              -6.8221
        94                         -0.2469698              -6.7204
        95                         -0.2426110              -6.6018
        96                         -0.2384786              -6.4893
        97                         -0.2223149              -6.0495
        98                         -0.2223131              -6.0494
        99                         -0.2144547              -5.8356
       100                         -0.2115070              -5.7554
       101                         -0.1931523              -5.2559
       102                         -0.1888882              -5.1399
       ...                                ...                  ...
       183                          0.7455718              20.2880
      -------------------------------------------------------------
                  HL-Gap            0.0912798 Eh            2.4838 eV

     #   Z          covCN         q      C6AA      α(0)
     1   6 C        2.920    -0.040    29.006     8.832
     2   6 C        2.924    -0.033    28.826     8.805
     3   6 C        2.910    -0.051    29.268     8.871
     4   6 C        3.074     0.046    26.886     8.502
     5   6 C        3.068    -0.017    28.353     8.731
     6   6 C        2.913    -0.033    28.811     8.802
     7   6 C        3.068    -0.016    28.351     8.731
     8   6 C        2.913    -0.032    28.809     8.801
     9   6 C        2.920    -0.040    29.006     8.832
    10   6 C        2.924    -0.033    28.824     8.804
    11   6 C        2.910    -0.051    29.264     8.870
    12   6 C        3.074     0.046    26.889     8.502
    13   7 N        2.803    -0.044    22.085     6.980
    14   6 C        2.911     0.061    26.630     8.462
    15   6 C        2.925    -0.044    29.088     8.845
    16   6 C        2.934    -0.038    28.940     8.823
    17   6 C        3.003     0.034    27.220     8.558
    18  16 S        2.210    -0.081   144.428    20.227
    19   6 C        3.003     0.034    27.220     8.558
    20   6 C        2.934    -0.038    28.940     8.823
    21   6 C        2.925    -0.044    29.088     8.845
    22   6 C        2.911     0.061    26.630     8.462
    23   7 N        2.803    -0.044    22.085     6.980
    24   6 C        3.074     0.046    26.886     8.502
    25   6 C        2.910    -0.051    29.268     8.871
    26   6 C        2.924    -0.033    28.826     8.805
    27   6 C        2.920    -0.040    29.006     8.832
    28   6 C        2.913    -0.033    28.811     8.802
    29   6 C        3.068    -0.017    28.353     8.731
    30   6 C        3.068    -0.016    28.351     8.731
    31   6 C        2.913    -0.032    28.809     8.801
    32   6 C        2.920    -0.040    29.006     8.832
    33   6 C        2.924    -0.033    28.824     8.804
    34   6 C        2.910    -0.051    29.264     8.870
    35   6 C        3.074     0.046    26.889     8.502
    36   6 C        2.920    -0.047    29.170     8.857
    37   6 C        3.105    -0.002    27.936     8.660
    38   6 C        3.105    -0.002    27.936     8.660
    39   6 C        2.920    -0.047    29.170     8.857
    40   1 H        0.926     0.029     2.606     2.525
    41   1 H        0.926     0.029     2.594     2.518
    42   1 H        0.926     0.027     2.632     2.537
    43   1 H        0.926     0.031     2.565     2.505
    44   1 H        0.926     0.032     2.564     2.504
    45   1 H        0.926     0.029     2.605     2.524
    46   1 H        0.926     0.029     2.595     2.519
    47   1 H        0.926     0.026     2.647     2.544
    48   1 H        0.926     0.048     2.341     2.392
    49   1 H        0.926     0.047     2.363     2.404
    50   1 H        0.926     0.047     2.363     2.404
    51   1 H        0.926     0.048     2.341     2.392
    52   1 H        0.926     0.027     2.632     2.537
    53   1 H        0.926     0.029     2.594     2.518
    54   1 H        0.926     0.029     2.606     2.525
    55   1 H        0.926     0.031     2.565     2.505
    56   1 H        0.926     0.032     2.564     2.504
    57   1 H        0.926     0.029     2.605     2.524
    58   1 H        0.926     0.029     2.595     2.519
    59   1 H        0.926     0.026     2.647     2.544
    60   1 H        0.926     0.048     2.351     2.398
    61   1 H        0.926     0.048     2.351     2.398

molecular dipole:
                 x           y           z       tot (Debye)
 q only:       -0.000      -0.315      -0.135
   full:       -0.000      -0.266      -0.106       0.727

 projected vibrational frequencies (cm⁻¹)
eigval :       -0.00     0.00     0.00     0.00     0.00     0.00
eigval :       15.66    15.90    21.04    32.66    43.35    49.45
eigval :       89.00   103.80   109.59   112.19   120.56   142.62
eigval :      144.91   163.05   168.31   173.00   220.51   244.32
eigval :      267.48   271.45   272.12   276.43   276.99   316.64
eigval :      334.71   362.30   386.51   396.82   397.05   400.17
eigval :      419.94   421.28   422.41   434.53   436.34   440.30
eigval :      458.14   505.04   517.69   519.21   524.18   528.20
eigval :      539.18   540.59   541.24   542.53   561.78   583.75
eigval :      588.53   603.38   617.36   642.53   663.44   663.47
eigval :      669.14   673.35   673.87   680.94   708.41   708.54
eigval :      718.76   741.48   755.44   759.00   769.16   769.77
eigval :      780.59   781.06   816.02   825.66   826.34   865.07
eigval :      865.81   873.41   873.52   882.56   886.24   897.83
eigval :      898.16   902.04   902.11   904.18   905.21   916.18
eigval :      916.21   922.56   923.44   925.34   925.46   927.53
eigval :      998.89  1009.98  1013.18  1013.56  1051.68  1070.75
eigval :     1071.11  1074.20  1074.65  1089.60  1113.33  1119.01
eigval :     1152.25  1152.80  1160.81  1164.46  1171.99  1176.52
eigval :     1181.09  1181.64  1185.83  1192.15  1222.00  1226.89
eigval :     1232.48  1236.97  1237.46  1245.40  1269.15  1300.05
eigval :     1300.17  1301.85  1305.95  1332.93  1334.61  1349.90
eigval :     1355.01  1359.44  1361.02  1362.81  1363.97  1405.83
eigval :     1414.06  1424.27  1428.07  1428.37  1446.42  1462.86
eigval :     1471.83  1476.51  1480.47  1488.35  1488.42  1548.46
eigval :     1552.49  1575.06  1575.20  1584.52  1587.19  1589.17
eigval :     1589.50  1599.42  1599.55  1614.72  1615.32  3076.15
eigval :     3076.43  3076.82  3076.88  3081.20  3081.37  3082.35
eigval :     3082.47  3087.83  3088.23  3089.74  3089.95  3095.46
eigval :     3095.73  3095.83  3096.11  3097.16  3097.35  3097.47
eigval :     3100.81  3106.37  3106.53

   temp. (K)  partition function   enthalpy   heat capacity  entropy
                                   cal/mol     cal/K/mol   cal/K/mol   J/K/mol
 298.15  VIB  0.564E+12            16486.638    110.179     99.075
         ROT  0.509E+08              888.752      2.981     38.245
         INT  0.287E+20            17375.390    113.160    137.320
         TR   0.113E+29             1481.254      4.968     44.581
         TOT                       18856.6439   118.1281   181.9010   761.0737

       T/K    H(0)-H(T)+PV         H(T)/Eh          T*S/Eh         G(T)/Eh
   ------------------------------------------------------------------------
    298.15    0.300500E-01    0.490139E+00    0.864270E-01    0.403712E+00
   ------------------------------------------------------------------------

         :::::::::::::::::::::::::::::::::::::::::::::::::::::
         ::                  THERMODYNAMIC                  ::
         :::::::::::::::::::::::::::::::::::::::::::::::::::::
         :: total free energy         -97.090971890922 Eh   ::
         ::.................................................::
         :: total energy              -97.494684177064 Eh   ::
         :: zero point energy           0.460089334643 Eh   ::
         :: G(RRHO) w/o ZPVE           -0.056377048501 Eh   ::
         :: G(RRHO) contrib.            0.403712286142 Eh   ::
         :::::::::::::::::::::::::::::::::::::::::::::::::::::

           -------------------------------------------------
          | TOTAL ENERGY              -97.494684177064 Eh   |
          | TOTAL ENTHALPY            -97.004544867646 Eh   |
          | TOTAL FREE ENERGY         -97.090971890922 Eh   |
          | GRADIENT NORM               0.000028622694 Eh/α |
          | HOMO-LUMO GAP               2.483849617455 eV   |
           -------------------------------------------------

 * finished run on 2025/07/16 at 19:21:32.242
