   * xtb version 6.7.1 (edcfbbe) compiled by 'albert@albert-system' on 2024-07-22

   ID    Z sym.   atoms
    1    6 C      1-6, 8-13, 15-19, 22-26, 28-33, 35-42, 44, 45
    2    8 O      7, 34, 43
    3    7 N      14, 20, 21, 27
    4    1 H      46-69

          program call               : xtb data2507/gas/PTZ–TAZ/PTZ–TAZ.xyz --gfn 2 --ohess vtight --parallel 40 --molden --ceasefiles --namespace data2507/gas/PTZ–TAZ/PTZ–TAZ_gas_S0_preOpt
          :  Hamiltonian                  GFN2-xTB          :
 * total energy  :  -117.5323514 Eh     change       -0.3213600E-08 Eh
 * total energy  :  -117.5446149 Eh     change       -0.1226354E-01 Eh
 * total energy  :  -117.5485938 Eh     change       -0.3978896E-02 Eh
 * total energy  :  -117.5499638 Eh     change       -0.1369926E-02 Eh
 * total energy  :  -117.5507884 Eh     change       -0.8246650E-03 Eh
 * total energy  :  -117.5511798 Eh     change       -0.3914024E-03 Eh
 * total energy  :  -117.5513628 Eh     change       -0.1829328E-03 Eh
 * total energy  :  -117.5514416 Eh     change       -0.7884175E-04 Eh
 * total energy  :  -117.5514881 Eh     change       -0.4648032E-04 Eh
 * total energy  :  -117.5515085 Eh     change       -0.2039146E-04 Eh
 * total energy  :  -117.5544807 Eh     change       -0.7237857E-06 Eh
 * total energy  :  -117.5544815 Eh     change       -0.7255024E-06 Eh
 * total energy  :  -117.5544822 Eh     change       -0.7249781E-06 Eh
 * total energy  :  -117.5544829 Eh     change       -0.7267108E-06 Eh
 * total energy  :  -117.5544837 Eh     change       -0.7242745E-06 Eh
 * total energy  :  -117.5544844 Eh     change       -0.7227005E-06 Eh
 * total energy  :  -117.5544851 Eh     change       -0.7189006E-06 Eh
 * total energy  :  -117.5544858 Eh     change       -0.7152401E-06 Eh
 * total energy  :  -117.5544858 Eh     change       -0.6216865E-08 Eh
   *** GEOMETRY OPTIMIZATION CONVERGED AFTER 152 ITERATIONS ***

 final structure:
================
69
 xtb: 6.7.1 (edcfbbe)
C           -8.09516793184009       -3.72478143754831       -1.14279734308449
C           -6.80587708703839       -3.68138193337070       -0.65266300473581
C           -6.22917373596732       -2.47002987799980       -0.30218089697090
C           -6.92969025683487       -1.27928005410081       -0.44789097777981
C           -8.25076934816426       -1.33850184210256       -0.91124150762508
C           -8.82030138080906       -2.54860320156951       -1.26173134940962
O           -9.04326514236058       -0.22414005312571       -1.02339014088416
C           -8.49384739499163        0.98234633235050       -0.66866569607990
C           -9.30098276850357        2.09769757704392       -0.79612480895772
C           -8.80797303626715        3.35774780490160       -0.49219551485720
C           -7.49812673530127        3.49301471760476       -0.07948399762989
C           -6.68525358853187        2.37741196529761        0.05227259245793
C           -7.17365581398635        1.10472908578078       -0.21547056263917
N           -6.38023671770319       -0.04168296188723       -0.09953483709973
C           -5.04856452030002        0.05365177638548        0.34560607524620
C           -4.76907212245909        0.53909220540082        1.62372201293890
C           -3.46561976893673        0.65138721801614        2.05443176693883
C           -2.41683813715779        0.27838842284265        1.21126926552006
C           -1.05804783910155        0.42867048922259        1.66709691150792
N           -0.66847955728075        0.87696679224522        2.82664459481882
N            0.66770468742403        0.87667384519730        2.82704620480617
C            1.05777474007093        0.42818558464946        1.66774268057560
C            2.41677479581009        0.27750290448621        1.21266348804807
C            2.69574778937978       -0.21921661924595       -0.06078493759130
C            4.00176050710503       -0.33021000555945       -0.48851093097498
C            5.04883701458352        0.05327315483367        0.34793564284705
N            6.38065846621510       -0.04100547125005       -0.09701740737714
C            7.17255980315807        1.10631617588002       -0.21440676415879
C            6.68291053670060        2.37856476435491        0.05311929344708
C            7.49429665808356        3.49507275159949       -0.08012687494305
C            8.80386909210866        3.36115322645515       -0.49413589561725
C            9.29809716004934        2.10151423630172       -0.79779450465986
C            8.49245667895073        0.98525673486574       -0.66881878888307
O            9.04301373379986       -0.22078261052794       -1.02331345995688
C            8.25193643931337       -1.33602265911268       -0.90986767075133
C            8.82252902133744       -2.54564008041777       -1.26029387885935
C            8.09884529725647       -3.72258676868144       -1.14009796156006
C            6.80995203907858       -3.68043024759274       -0.64880425051130
C            6.23217485760953       -2.46956518234556       -0.29840098602495
C            6.93121610489719       -1.27810152634391       -0.44533549261578
C            4.76878648184054        0.53911980507461        1.62577084046637
C            3.46515899483170        0.65115296673384        2.05602883755277
O            0.00003394300246        0.11996117369220        0.87813253565972
C           -2.69522662280274       -0.21753808024122       -0.06261517923054
C           -4.00106505214157       -0.32874220174689       -0.49081670345164
H           -8.54683962772990       -4.66366593754624       -1.42131162494914
H           -6.23599414048969       -4.58991027678362       -0.53310413849834
H           -5.22763730654639       -2.45346825133981        0.09815485679594
H           -9.83710448774210       -2.54855934598319       -1.62046519776446
H          -10.31269460211703        1.95786480520201       -1.14176667727064
H           -9.44575516198331        4.22167010580912       -0.59181435967891
H           -7.09232118628218        4.46828055665141        0.14082666831131
H           -5.65851723542639        2.50194481606470        0.35832852456348
H           -5.58514528951438        0.82123083065639        2.27195932523463
H           -3.23073693911309        1.02179474477289        3.03923472906176
H            1.88414892795369       -0.50437740387049       -0.71300292312991
H            4.22227026338969       -0.70234889916376       -1.47806116277506
H            5.65634727824229        2.50206096507411        0.36016650020392
H            7.08753001026730        4.46997124755769        0.14003869419807
H            9.44048673137089        4.22579368229761       -0.59496304770380
H           10.30961878539371        1.96270334898788       -1.14440327064998
H            9.83898904235535       -2.54461336518876       -1.61999879395249
H            8.55133984042209       -4.66108997812935       -1.41856463151557
H            6.24123673170330       -4.58956138331115       -0.52827018722744
H            5.23097129083511       -2.45389829985708        0.10281454732622
H            5.58456434416916        0.82191533102261        2.27409285349710
H            3.22983007962370        1.02199995167044        3.04056015215030
H           -1.88331945163372       -0.50201509696371       -0.71474887164656
H           -4.22112418124943       -0.70033304400266       -1.48067238246132

          :  Hamiltonian                  GFN2-xTB          :
         :: gradient norm              0.000063970359 Eh/a0 ::
         :: HOMO-LUMO gap              1.530903417706 eV    ::
         :: SCC energy              -119.505063982221 Eh    ::
         :: -> dispersion             -0.092479592912 Eh    ::
         :: repulsion energy           1.950578168536 Eh    ::

    * Orbital Energies and Occupations

         #    Occupation            Energy/Eh            Energy/eV
      -------------------------------------------------------------
         1        2.0000           -0.7709084             -20.9775
       ...           ...                  ...                  ...
        95        2.0000           -0.4247157             -11.5571
        96        2.0000           -0.4245160             -11.5517
        97        2.0000           -0.4232733             -11.5179
        98        2.0000           -0.4178420             -11.3701
        99        2.0000           -0.4178377             -11.3699
       100        2.0000           -0.4147592             -11.2862
       101        2.0000           -0.4147473             -11.2858
       102        2.0000           -0.4024334             -10.9508
       103        2.0000           -0.3924444             -10.6790
       104        2.0000           -0.3915706             -10.6552
       105        2.0000           -0.3890666             -10.5870
       106        2.0000           -0.3465339              -9.4297
       107        2.0000           -0.3454985              -9.4015 (HOMO)
       108                         -0.2892389              -7.8706 (LUMO)
       109                         -0.2656306              -7.2282
       110                         -0.2459097              -6.6915
       111                         -0.2459038              -6.6914
       112                         -0.2403567              -6.5404
       113                         -0.2403518              -6.5403
       114                         -0.2316339              -6.3031
       115                         -0.2316299              -6.3030
       116                         -0.2186758              -5.9505
       117                         -0.2176467              -5.9225
       118                         -0.2027537              -5.5172
       ...                                ...                  ...
       204                          0.6732543              18.3202
      -------------------------------------------------------------
                  HL-Gap            0.0562597 Eh            1.5309 eV

     #   Z          covCN         q      C6AA      α(0)
     1   6 C        2.919    -0.040    28.984     8.829
     2   6 C        2.919    -0.038    28.957     8.824
     3   6 C        2.924    -0.060    29.486     8.905
     4   6 C        2.922     0.042    27.060     8.531
     5   6 C        2.884     0.125    25.251     8.238
     6   6 C        2.920    -0.056    29.388     8.890
     7   8 O        1.709    -0.254    18.201     5.760
     8   6 C        2.884     0.125    25.253     8.238
     9   6 C        2.920    -0.056    29.386     8.889
    10   6 C        2.919    -0.039    28.980     8.828
    11   6 C        2.919    -0.038    28.950     8.823
    12   6 C        2.924    -0.060    29.487     8.905
    13   6 C        2.922     0.042    27.064     8.531
    14   7 N        2.751    -0.069    22.569     7.056
    15   6 C        2.921     0.071    26.420     8.429
    16   6 C        2.921    -0.037    28.925     8.820
    17   6 C        2.924    -0.028    28.702     8.786
    18   6 C        2.975    -0.007    28.199     8.710
    19   6 C        3.171     0.213    23.192     7.867
    20   7 N        2.048    -0.197    25.987     7.562
    21   7 N        2.048    -0.197    25.987     7.562
    22   6 C        3.171     0.213    23.192     7.867
    23   6 C        2.975    -0.007    28.199     8.710
    24   6 C        2.922    -0.027    28.670     8.781
    25   6 C        2.920    -0.040    28.988     8.829
    26   6 C        2.921     0.071    26.420     8.429
    27   7 N        2.751    -0.069    22.569     7.056
    28   6 C        2.922     0.042    27.064     8.531
    29   6 C        2.924    -0.060    29.487     8.905
    30   6 C        2.919    -0.038    28.950     8.823
    31   6 C        2.919    -0.039    28.980     8.828
    32   6 C        2.920    -0.056    29.386     8.889
    33   6 C        2.884     0.125    25.253     8.238
    34   8 O        1.709    -0.254    18.201     5.760
    35   6 C        2.884     0.125    25.251     8.238
    36   6 C        2.920    -0.056    29.388     8.890
    37   6 C        2.919    -0.040    28.984     8.829
    38   6 C        2.919    -0.038    28.957     8.824
    39   6 C        2.924    -0.060    29.486     8.905
    40   6 C        2.922     0.042    27.060     8.531
    41   6 C        2.921    -0.037    28.925     8.820
    42   6 C        2.924    -0.028    28.702     8.786
    43   8 O        1.721    -0.229    17.794     5.696
    44   6 C        2.922    -0.027    28.670     8.781
    45   6 C        2.920    -0.040    28.988     8.829
    46   1 H        0.926     0.039     2.460     2.453
    47   1 H        0.926     0.037     2.493     2.469
    48   1 H        0.926     0.034     2.524     2.484
    49   1 H        0.926     0.051     2.302     2.372
    50   1 H        0.926     0.052     2.301     2.372
    51   1 H        0.926     0.039     2.456     2.451
    52   1 H        0.926     0.038     2.481     2.463
    53   1 H        0.926     0.036     2.509     2.477
    54   1 H        0.926     0.052     2.300     2.371
    55   1 H        0.926     0.067     2.120     2.277
    56   1 H        0.926     0.049     2.326     2.385
    57   1 H        0.926     0.048     2.349     2.397
    58   1 H        0.926     0.036     2.509     2.477
    59   1 H        0.926     0.038     2.481     2.463
    60   1 H        0.926     0.039     2.456     2.451
    61   1 H        0.926     0.052     2.301     2.372
    62   1 H        0.926     0.051     2.302     2.372
    63   1 H        0.926     0.039     2.460     2.453
    64   1 H        0.926     0.037     2.493     2.469
    65   1 H        0.926     0.034     2.524     2.485
    66   1 H        0.926     0.052     2.299     2.371
    67   1 H        0.926     0.067     2.120     2.277
    68   1 H        0.926     0.049     2.326     2.385
    69   1 H        0.926     0.048     2.349     2.397

molecular dipole:
                 x           y           z       tot (Debye)
 q only:       -0.000      -0.153      -0.467
   full:       -0.000      -0.371      -0.978       2.658

 projected vibrational frequencies (cm⁻¹)
eigval :       -0.00     0.00     0.00     0.00     0.00     0.00
eigval :        8.28     8.81    14.35    24.11    26.56    36.10
eigval :       41.53    49.76    58.54    64.92    67.75    92.58
eigval :      105.04   107.00   117.98   121.96   124.56   178.55
eigval :      186.38   193.21   202.33   243.09   249.64   253.47
eigval :      254.81   270.25   274.14   281.50   332.88   354.00
eigval :      368.45   371.86   376.16   377.48   389.70   399.61
eigval :      401.65   422.19   423.61   430.20   431.24   432.36
eigval :      445.58   448.78   466.40   489.34   498.76   502.07
eigval :      509.92   509.99   522.63   522.77   548.98   552.18
eigval :      587.03   587.47   591.44   603.27   608.60   609.64
eigval :      653.57   658.95   661.63   661.66   661.76   666.69
eigval :      676.91   680.50   710.11   715.32   720.93   729.19
eigval :      779.14   779.21   779.35   779.47   802.47   804.02
eigval :      824.12   825.35   855.62   855.64   863.86   863.95
eigval :      866.60   866.67   876.12   876.80   897.58   897.62
eigval :      898.79   898.80   908.86   913.45   914.08   914.14
eigval :      915.31   915.31   917.22   917.30   925.47   925.94
eigval :      934.69   934.79   971.70   974.53  1009.07  1019.25
eigval :     1081.64  1090.57  1090.59  1091.73  1091.77  1097.75
eigval :     1108.65  1108.66  1121.06  1121.13  1126.41  1127.28
eigval :     1170.79  1170.85  1175.59  1175.60  1178.79  1180.76
eigval :     1185.19  1188.75  1190.78  1202.07  1202.12  1222.13
eigval :     1224.22  1243.07  1243.16  1258.12  1259.61  1262.20
eigval :     1262.29  1275.90  1299.01  1310.39  1310.55  1317.95
eigval :     1318.77  1320.37  1326.89  1339.04  1339.19  1355.66
eigval :     1355.86  1407.70  1408.44  1424.44  1424.49  1442.23
eigval :     1442.31  1460.50  1460.86  1487.55  1487.97  1503.33
eigval :     1504.12  1533.76  1535.40  1557.85  1560.32  1568.13
eigval :     1568.19  1580.62  1580.63  1585.28  1585.34  1591.20
eigval :     1591.39  1603.01  1603.01  3087.21  3087.56  3089.61
eigval :     3089.63  3090.45  3090.46  3093.05  3093.15  3098.49
eigval :     3099.02  3099.40  3099.44  3100.03  3100.05  3106.15
eigval :     3106.19  3107.46  3107.48  3113.53  3113.54  3114.07
eigval :     3114.12  3116.73  3116.86

   temp. (K)  partition function   enthalpy   heat capacity  entropy
                                   cal/mol     cal/K/mol   cal/K/mol   J/K/mol
 298.15  VIB  0.132E+17            20001.492    126.980    124.769
         ROT  0.108E+09              888.752      2.981     39.731
         INT  0.142E+25            20890.245    129.961    164.500
         TR   0.137E+29             1481.254      4.968     44.961
         TOT                       22371.4985   134.9287   209.4611   876.3854

       T/K    H(0)-H(T)+PV         H(T)/Eh          T*S/Eh         G(T)/Eh
   ------------------------------------------------------------------------
    298.15    0.356513E-01    0.548074E+00    0.995217E-01    0.448552E+00
   ------------------------------------------------------------------------

         :::::::::::::::::::::::::::::::::::::::::::::::::::::
         ::                  THERMODYNAMIC                  ::
         :::::::::::::::::::::::::::::::::::::::::::::::::::::
         :: total free energy        -117.105933485411 Eh   ::
         ::.................................................::
         :: total energy             -117.554485813685 Eh   ::
         :: zero point energy           0.512422825436 Eh   ::
         :: G(RRHO) w/o ZPVE           -0.063870497162 Eh   ::
         :: G(RRHO) contrib.            0.448552328274 Eh   ::
         :::::::::::::::::::::::::::::::::::::::::::::::::::::

           -------------------------------------------------
          | TOTAL ENERGY             -117.554485813685 Eh   |
          | TOTAL ENTHALPY           -117.006411736015 Eh   |
          | TOTAL FREE ENERGY        -117.105933485411 Eh   |
          | GRADIENT NORM               0.000063971255 Eh/α |
          | HOMO-LUMO GAP               1.530903490259 eV   |
           -------------------------------------------------

 * finished run on 2025/09/14 at 13:24:24.370
