   * xtb version 6.7.1 (edcfbbe) compiled by 'albert@albert-system' on 2024-07-22

   ID    Z sym.   atoms
    1    6 C      1-6, 8-13, 15-19, 22-26, 28-33, 35-42, 44, 45
    2    8 O      7, 34, 43
    3    7 N      14, 20, 21, 27
    4    1 H      46-69

          program call               : xtb data2507/gas/PTZ–TAZ/PTZ–TAZ_gas_T1_crest.xyz --gfn 2 --spinpol --tblite --uhf 2 --ohess vtight --parallel 40 --molden --ceasefiles --namespace data2507/gas/PTZ–TAZ/PTZ–TAZ_gas_T1_finalOpt
 * total energy  :  -117.4815315 Eh     change       -0.3451289E-07 Eh
 * total energy  :  -117.4815353 Eh     change       -0.3756277E-05 Eh
 * total energy  :  -117.4815376 Eh     change       -0.2304266E-05 Eh
 * total energy  :  -117.4815386 Eh     change       -0.9655588E-06 Eh
 * total energy  :  -117.4815402 Eh     change       -0.1657026E-05 Eh
 * total energy  :  -117.4815419 Eh     change       -0.1683436E-05 Eh
 * total energy  :  -117.4815440 Eh     change       -0.2118646E-05 Eh
 * total energy  :  -117.4815460 Eh     change       -0.2032885E-05 Eh
 * total energy  :  -117.4815477 Eh     change       -0.1706068E-05 Eh
 * total energy  :  -117.4815495 Eh     change       -0.1778123E-05 Eh
 * total energy  :  -117.4815575 Eh     change       -0.4656395E-06 Eh
 * total energy  :  -117.4815582 Eh     change       -0.7290805E-06 Eh
 * total energy  :  -117.4815593 Eh     change       -0.1115139E-05 Eh
 * total energy  :  -117.4815602 Eh     change       -0.8497357E-06 Eh
 * total energy  :  -117.4815604 Eh     change       -0.1839642E-06 Eh
 * total energy  :  -117.4815607 Eh     change       -0.3891523E-06 Eh
 * total energy  :  -117.4815609 Eh     change       -0.1091237E-06 Eh
 * total energy  :  -117.4815608 Eh     change        0.4791784E-07 Eh
 * total energy  :  -117.4815608 Eh     change       -0.2944930E-07 Eh
   *** GEOMETRY OPTIMIZATION CONVERGED AFTER 26 ITERATIONS ***

 final structure:
================
69
 xtb: 6.7.1 (edcfbbe)
C           -9.03937620619181       -3.03455589260940        0.78716204839616
C           -7.71628874850586       -3.09761718676427        1.18868815987800
C           -6.83626250650533       -2.07930801893001        0.87035289128339
C           -7.26733165505303       -0.96620475557495        0.15065918258819
C           -8.60315580490099       -0.93082080364191       -0.28363461245027
C           -9.47825249459938       -1.95344847728034        0.04067985064266
O           -9.09319864149897        0.08757129882825       -1.05376439343159
C           -8.23790497348855        1.10250599159283       -1.38257031432307
C           -8.74812594730015        2.13267460844355       -2.15402964839596
C           -7.94714748750176        3.21052510515872       -2.49377328024494
C           -6.64074828367261        3.26293783730038       -2.03954369494128
C           -6.12295936246155        2.23683784777159       -1.27033390659023
C           -6.90177731901777        1.12659548269515       -0.94833090838915
N           -6.41152505993739        0.07611853544118       -0.18304961133754
C           -5.06748773579382        0.06826789488902        0.24809024242829
C           -4.76492130902526        0.08104708874776        1.62012987946436
C           -3.46504325568364        0.08069550899042        2.04151053976228
C           -2.40434847541019        0.05128508528184        1.10190370044627
C           -1.07289595582762        0.04267386015270        1.54521689736458
N           -0.64987302408914        0.05684240611114        2.80955967645687
N            0.64932125713748        0.03990034372239        2.81013162049882
C            1.07294386905325        0.01601967584815        1.54612128223003
C            2.40452449593908       -0.00735274658477        1.10379007870231
C            2.72280990828803       -0.02917098340537       -0.27663697880018
C            4.02681830115339       -0.06119210943376       -0.68863395369168
C            5.06782359390176       -0.05660032101568        0.25161943573251
N            6.41167141066462       -0.08256816234413       -0.17938952949599
C            7.27187209821138        0.96620101098005        0.12118848229386
C            6.84688552366327        2.10112685409741        0.80972922409931
C            7.73121578764172        3.12546103659512        1.09518417799594
C            9.05258981326428        3.04663438282361        0.69082504780477
C            9.48544825837958        1.94278201472818       -0.02526294623367
C            8.60610111838730        0.91381588335923       -0.31633105549106
O            9.09047354984521       -0.12827476286342       -1.05782787943042
C            8.23151906894255       -1.15062137784024       -1.35230735765251
C            8.73651267196986       -2.20559125944848       -2.09307526367448
C            7.93153573992596       -3.29116504169657       -2.39687748876947
C            6.62641962655485       -3.32579734638220       -1.93729090357180
C            6.11386285947974       -2.27495110205757       -1.19860742012167
C            6.89672502167447       -1.15749466452546       -0.91344158804505
C            4.76498671250665       -0.02707042764530        1.62332154962257
C            3.46499533921962       -0.01064800903692        2.04412204805820
O            0.00021302519925        0.01645339406921        0.67933134661331
C           -2.72230890566933        0.03113127623140       -0.27861163875169
C           -4.02630819742760        0.04746580789289       -0.69169187402281
H           -9.72685217716368       -3.82627535619190        1.03894262172722
H           -7.35920510583128       -3.94656080735333        1.75048703738221
H           -5.80344394924041       -2.14523389305198        1.17193842313529
H          -10.49625447847141       -1.88442557211565       -0.30763102061281
H           -9.77676198148325        2.07225670195748       -2.47131763148958
H           -8.34994882682901        4.00828611709225       -3.09725077682566
H           -6.01652638796000        4.10986465874660       -2.27831539630107
H           -5.11054991867328        2.29460316715809       -0.90457934843962
H           -5.57497492282111        0.11592653980819        2.33452654637440
H           -3.21347727288874        0.11004022761201        3.08908892869705
H            1.91884958457167       -0.01196752411112       -0.99595609820399
H            4.27041578775481       -0.06598003576006       -1.74178037664934
H            5.81536439212791        2.17918310948890        1.11284513537741
H            7.37881711204406        3.99146923656267        1.63340565082395
H            9.74337381946396        3.84324513306438        0.91681324877114
H           10.50192997511247        1.86043593225820       -0.37513072679164
H            9.76428273623603       -2.15789782287080       -2.41527477360418
H            8.33026249347675       -4.10835653307350       -2.97659138191193
H            5.99912094645597       -4.17791377424265       -2.14785610324316
H            5.10242940901962       -2.31849373275373       -0.82821172658663
H            5.57474540346334       -0.04272043788564        2.33873022265783
H            3.21315388733752       -0.00783298277027        3.09204264979436
H           -1.91811495195312       -0.00571286270407       -0.99693319869209
H           -4.26958167698950        0.01983826966223       -1.74455917008971

 projected vibrational frequencies (cm⁻¹)
eigval :       -0.00    -0.00    -0.00     0.00     0.00     0.00
eigval :        9.09    11.03    15.01    23.91    29.47    39.97
eigval :       43.96    59.06    63.77    67.96    79.05   102.25
eigval :      108.96   109.24   119.87   123.10   127.24   168.61
eigval :      177.88   194.89   207.29   239.78   246.42   246.54
eigval :      253.81   272.18   276.64   280.55   324.75   343.25
eigval :      361.86   374.07   376.87   381.52   382.29   390.27
eigval :      402.41   418.86   422.53   425.47   433.41   434.29
eigval :      452.18   460.85   463.18   467.51   472.29   502.38
eigval :      502.39   503.64   527.75   528.00   536.68   540.91
eigval :      568.04   583.21   585.98   588.15   601.45   604.04
eigval :      605.42   649.03   649.69   655.75   661.46   665.94
eigval :      667.99   669.38   669.43   682.16   700.16   713.56
eigval :      777.47   777.57   778.94   779.09   799.46   799.60
eigval :      799.78   799.90   839.00   841.52   856.21   856.25
eigval :      866.84   866.88   867.69   867.82   887.87   897.12
eigval :      898.91   899.14   899.72   899.85   906.83   906.90
eigval :      910.01   913.77   914.08   914.88   915.05   918.91
eigval :      918.95   919.99   921.20   921.35   986.02   987.21
eigval :     1034.34  1051.00  1085.98  1086.00  1086.48  1087.15
eigval :     1112.44  1112.48  1119.25  1119.97  1124.90  1125.46
eigval :     1152.12  1169.32  1172.74  1173.81  1173.85  1178.37
eigval :     1189.72  1192.76  1208.26  1208.28  1211.99  1219.70
eigval :     1226.23  1227.87  1237.60  1237.80  1252.90  1254.84
eigval :     1256.35  1257.13  1279.81  1304.29  1306.37  1310.88
eigval :     1313.32  1317.43  1318.02  1336.02  1337.92  1338.72
eigval :     1347.95  1360.91  1412.08  1416.85  1416.98  1420.36
eigval :     1424.23  1438.97  1441.92  1448.17  1450.47  1450.60
eigval :     1465.74  1466.02  1479.11  1480.54  1529.74  1542.89
eigval :     1555.42  1555.43  1562.13  1562.14  1575.09  1576.66
eigval :     1579.51  1588.03  1593.41  3072.07  3072.22  3076.38
eigval :     3076.47  3094.91  3094.93  3095.51  3095.53  3100.23
eigval :     3100.77  3103.92  3103.98  3104.30  3104.41  3114.04
eigval :     3114.06  3114.60  3114.67  3115.56  3115.80  3116.02
eigval :     3116.09  3116.28  3116.58

   temp. (K)  partition function   enthalpy   heat capacity  entropy
                                   cal/mol     cal/K/mol   cal/K/mol   J/K/mol
 298.15  VIB  0.533E+16            20144.965    129.172    124.819
         ROT  0.534E+08              888.752      2.981     38.340
         INT  0.284E+24            21033.718    132.153    163.159
         TR   0.137E+29             1481.254      4.968     44.961
         TOT                       22514.9714   137.1213   208.1205   870.7763

       T/K    H(0)-H(T)+PV         H(T)/Eh          T*S/Eh         G(T)/Eh
   ------------------------------------------------------------------------
    298.15    0.358799E-01    0.544504E+00    0.988848E-01    0.445620E+00
   ------------------------------------------------------------------------

         :::::::::::::::::::::::::::::::::::::::::::::::::::::
         ::                  THERMODYNAMIC                  ::
         :::::::::::::::::::::::::::::::::::::::::::::::::::::
         :: total free energy        -117.035941221905 Eh   ::
         ::.................................................::
         :: total energy             -117.481560884680 Eh   ::
         :: zero point energy           0.508624552445 Eh   ::
         :: G(RRHO) w/o ZPVE           -0.063004889670 Eh   ::
         :: G(RRHO) contrib.            0.445619662776 Eh   ::
         :::::::::::::::::::::::::::::::::::::::::::::::::::::

           -------------------------------------------------
          | TOTAL ENERGY             -117.481560884680 Eh   |
          | TOTAL ENTHALPY           -116.937056441380 Eh   |
          | TOTAL FREE ENERGY        -117.035941221905 Eh   |
          | GRADIENT NORM               0.000044797805 Eh/α |
           -------------------------------------------------

 * finished run on 2025/09/14 at 13:33:03.520
