   * xtb version 6.7.1 (edcfbbe) compiled by 'albert@albert-system' on 2024-07-22

   ID    Z sym.   atoms
    1    6 C      1-6, 8-13, 15-19, 22-26, 28-33, 35-42, 44, 45
    2    8 O      7, 34, 43
    3    7 N      14, 20, 21, 27
    4    1 H      46-69

          program call               : xtb data2507/gas/PTZ–TAZ/PTZ–TAZ_gas_S0_crest.xyz --gfn 2 --ohess vtight --parallel 40 --molden --ceasefiles --namespace data2507/gas/PTZ–TAZ/PTZ–TAZ_gas_S0_finalOpt
          :  Hamiltonian                  GFN2-xTB          :
 * total energy  :  -117.5545582 Eh     change       -0.2201176E-08 Eh
 * total energy  :  -117.5545594 Eh     change       -0.1119224E-05 Eh
 * total energy  :  -117.5545612 Eh     change       -0.1876068E-05 Eh
 * total energy  :  -117.5545645 Eh     change       -0.3314557E-05 Eh
 * total energy  :  -117.5545672 Eh     change       -0.2683099E-05 Eh
 * total energy  :  -117.5545675 Eh     change       -0.2960767E-06 Eh
 * total energy  :  -117.5545686 Eh     change       -0.1117512E-05 Eh
 * total energy  :  -117.5545704 Eh     change       -0.1777351E-05 Eh
 * total energy  :  -117.5545716 Eh     change       -0.1215531E-05 Eh
 * total energy  :  -117.5545728 Eh     change       -0.1188675E-05 Eh
 * total energy  :  -117.5545744 Eh     change       -0.1539811E-05 Eh
 * total energy  :  -117.5545760 Eh     change       -0.1659973E-05 Eh
 * total energy  :  -117.5545771 Eh     change       -0.1057220E-05 Eh
 * total energy  :  -117.5545776 Eh     change       -0.4792162E-06 Eh
 * total energy  :  -117.5545777 Eh     change       -0.9284864E-07 Eh
   *** GEOMETRY OPTIMIZATION CONVERGED AFTER 15 ITERATIONS ***

 final structure:
================
69
 xtb: 6.7.1 (edcfbbe)
C           -9.02630780749288       -3.03942812181437        0.81468026272493
C           -7.71229773935908       -3.09394698246365        1.23283807479934
C           -6.82883655703060       -2.07683738832356        0.90475712517288
C           -7.24909748352279       -0.98062940723925        0.16199196794079
C           -8.57524960851497       -0.95391825230306       -0.28944285838842
C           -9.45297899897805       -1.96926208789907        0.04280151528678
O           -9.06286120350323        0.05076894475078       -1.08691631672933
C           -8.20132415153250        1.06205633519096       -1.42950381701949
C           -8.71000142227091        2.07430177443257       -2.22217265178280
C           -7.91262207648682        3.15031312322435       -2.58212734785552
C           -6.61181772644304        3.21402866738426       -2.12591558408350
C           -6.09619838525277        2.20026485025611       -1.33271787309453
C           -6.87046787463665        1.09813437962549       -0.99240383571778
N           -6.38359170187354        0.05986372044871       -0.19181404131808
C           -5.05040574951175        0.06650554899559        0.25840816847684
C           -4.77053062047517        0.10553308831731        1.62502814121489
C           -3.46607849762905        0.11020708741552        2.06706338717153
C           -2.41631826847388        0.07696714264296        1.14676901145427
C           -1.05736225388616        0.08154334755735        1.62613879993119
N           -0.66765319899200        0.11679384689104        2.86881711962736
N            0.66848211484379        0.10538815606660        2.86928678198144
C            1.05843496949824        0.06334736936303        1.62691447747611
C            2.41732913882281        0.03234768984688        1.14845938238165
C            2.69562270530190       -0.00857859121631       -0.21797782261100
C            4.00234885866467       -0.04152319814194       -0.65627535723382
C            5.05127868710631       -0.03606079442441        0.26202015562531
N            6.38381528306525       -0.07306908084785       -0.18839187019014
C            7.26550872856817        0.97232615847545        0.10611012433677
C            6.86545379133441        2.11091059609965        0.79429699740302
C            7.76492759956387        3.13108917457499        1.06417347790320
C            9.07510187605720        3.03705367741479        0.64099893655683
C            9.48171634488248        1.92298855158363       -0.07773105208299
C            8.58799005678846        0.90423490732313       -0.35182387819918
O            9.05657156084002       -0.14638684518604       -1.10005427357916
C            8.18070379253261       -1.16432842681705       -1.38076223357492
C            8.67121143719355       -2.22459952039506       -2.12034683294612
C            7.85856520390820       -3.30912837901300       -2.41458936454758
C            6.56105435499849       -3.33243025476125       -1.94529994266853
C            6.06355415663383       -2.27036690337243       -1.20554110239300
C            6.85294189556806       -1.16013079397814       -0.93300128236844
C            4.77130541865800        0.00505329314478        1.62856126403155
C            3.46691721305448        0.03990419496024        2.06952161301631
O            0.00057496907638        0.04648622769243        0.77950361728011
C           -2.69450738804392        0.03930504063922       -0.21977300051907
C           -4.00136314222781        0.03346306518410       -0.65907961660452
H           -9.71880692109304       -3.82523981129788        1.07158716942663
H           -7.35848561348075       -3.93023746258606        1.81574245713997
H           -5.80057923085080       -2.14295655202075        1.22373027088214
H          -10.46667425441686       -1.90537548988543       -0.31902416799256
H           -9.73725343880984        2.00363906299660       -2.54208262430070
H           -8.31718124068064        3.93369281574745       -3.20318496296615
H           -5.98491705309851        4.05538465931132       -2.37812884404291
H           -5.08410658068746        2.27431856613569       -0.96711685685117
H           -5.58673370413227        0.14042263093086        2.33100734345844
H           -3.23097761392956        0.14696655194414        3.11852748774632
H            1.88358566903333       -0.00646558157891       -0.92931349462940
H            4.22305214137633       -0.06421015151770       -1.71319956188513
H            5.84044627630957        2.20782625711174        1.11580919372057
H            7.42663080101643        4.00090135196093        1.60577530314345
H            9.77992995031755        3.82536472770221        0.85274169833206
H           10.49175741260329        1.82667962697811       -0.44262811018812
H            9.69651962360246       -2.18394206454850       -2.45147349034257
H            8.24896960762219       -4.13016669855141       -2.99470814018540
H            5.92267347784458       -4.17913926596709       -2.14543926579205
H            5.05369367401651       -2.31207580211090       -0.82881959820088
H            5.58706247452973       -0.00077501463189        2.33587804009995
H            3.23158071600908        0.06402248371594        3.12130320409825
H           -1.88216688699681        0.00640695055475       -0.93000619294170
H           -4.22179799872745       -0.00546442279865       -1.71558103701611

          :  Hamiltonian                  GFN2-xTB          :
         :: gradient norm              0.000155181455 Eh/a0 ::
         :: HOMO-LUMO gap              1.536947076494 eV    ::
         :: SCC energy              -119.505074182757 Eh    ::
         :: -> dispersion             -0.092487506781 Eh    ::
         :: repulsion energy           1.950496528719 Eh    ::

    * Orbital Energies and Occupations

         #    Occupation            Energy/Eh            Energy/eV
      -------------------------------------------------------------
         1        2.0000           -0.7707212             -20.9724
       ...           ...                  ...                  ...
        95        2.0000           -0.4246610             -11.5556
        96        2.0000           -0.4244337             -11.5494
        97        2.0000           -0.4230955             -11.5130
        98        2.0000           -0.4179120             -11.3720
        99        2.0000           -0.4178726             -11.3709
       100        2.0000           -0.4147996             -11.2873
       101        2.0000           -0.4147659             -11.2864
       102        2.0000           -0.4023568             -10.9487
       103        2.0000           -0.3925065             -10.6806
       104        2.0000           -0.3915223             -10.6539
       105        2.0000           -0.3888924             -10.5823
       106        2.0000           -0.3466175              -9.4319
       107        2.0000           -0.3455506              -9.4029 (HOMO)
       108                         -0.2890687              -7.8660 (LUMO)
       109                         -0.2654694              -7.2238
       110                         -0.2457560              -6.6874
       111                         -0.2457387              -6.6869
       112                         -0.2404389              -6.5427
       113                         -0.2403938              -6.5414
       114                         -0.2316979              -6.3048
       115                         -0.2316593              -6.3038
       116                         -0.2187546              -5.9526
       117                         -0.2177064              -5.9241
       118                         -0.2027664              -5.5176
       ...                                ...                  ...
       204                          0.6732504              18.3201
      -------------------------------------------------------------
                  HL-Gap            0.0564818 Eh            1.5369 eV

     #   Z          covCN         q      C6AA      α(0)
     1   6 C        2.919    -0.039    28.979     8.828
     2   6 C        2.919    -0.038    28.950     8.823
     3   6 C        2.924    -0.060    29.484     8.905
     4   6 C        2.922     0.042    27.064     8.531
     5   6 C        2.884     0.125    25.253     8.239
     6   6 C        2.920    -0.056    29.386     8.889
     7   8 O        1.709    -0.254    18.200     5.760
     8   6 C        2.884     0.125    25.250     8.238
     9   6 C        2.920    -0.056    29.387     8.890
    10   6 C        2.919    -0.040    28.983     8.828
    11   6 C        2.919    -0.038    28.957     8.824
    12   6 C        2.924    -0.060    29.487     8.905
    13   6 C        2.922     0.042    27.061     8.531
    14   7 N        2.751    -0.068    22.565     7.055
    15   6 C        2.921     0.071    26.422     8.429
    16   6 C        2.921    -0.037    28.927     8.820
    17   6 C        2.924    -0.028    28.702     8.786
    18   6 C        2.975    -0.007    28.201     8.711
    19   6 C        3.170     0.213    23.193     7.867
    20   7 N        2.048    -0.197    25.989     7.562
    21   7 N        2.048    -0.197    25.989     7.562
    22   6 C        3.170     0.213    23.193     7.868
    23   6 C        2.975    -0.007    28.201     8.711
    24   6 C        2.922    -0.027    28.672     8.781
    25   6 C        2.921    -0.040    28.991     8.830
    26   6 C        2.921     0.071    26.423     8.429
    27   7 N        2.751    -0.068    22.564     7.055
    28   6 C        2.922     0.042    27.064     8.531
    29   6 C        2.924    -0.060    29.485     8.905
    30   6 C        2.919    -0.038    28.950     8.823
    31   6 C        2.919    -0.039    28.979     8.828
    32   6 C        2.920    -0.056    29.385     8.889
    33   6 C        2.884     0.125    25.253     8.239
    34   8 O        1.709    -0.254    18.200     5.760
    35   6 C        2.884     0.125    25.250     8.238
    36   6 C        2.920    -0.056    29.388     8.890
    37   6 C        2.919    -0.040    28.983     8.828
    38   6 C        2.919    -0.038    28.957     8.824
    39   6 C        2.924    -0.060    29.486     8.905
    40   6 C        2.922     0.042    27.062     8.531
    41   6 C        2.920    -0.037    28.929     8.820
    42   6 C        2.924    -0.028    28.702     8.786
    43   8 O        1.721    -0.229    17.796     5.696
    44   6 C        2.922    -0.027    28.672     8.781
    45   6 C        2.920    -0.040    28.991     8.830
    46   1 H        0.926     0.039     2.456     2.451
    47   1 H        0.926     0.038     2.481     2.463
    48   1 H        0.926     0.036     2.507     2.476
    49   1 H        0.926     0.052     2.301     2.372
    50   1 H        0.926     0.052     2.301     2.372
    51   1 H        0.926     0.039     2.460     2.452
    52   1 H        0.926     0.037     2.493     2.469
    53   1 H        0.926     0.035     2.522     2.483
    54   1 H        0.926     0.051     2.302     2.373
    55   1 H        0.926     0.067     2.121     2.277
    56   1 H        0.926     0.049     2.328     2.386
    57   1 H        0.926     0.048     2.349     2.397
    58   1 H        0.926     0.036     2.505     2.475
    59   1 H        0.926     0.038     2.480     2.463
    60   1 H        0.926     0.039     2.456     2.451
    61   1 H        0.926     0.052     2.301     2.372
    62   1 H        0.926     0.052     2.301     2.372
    63   1 H        0.926     0.039     2.459     2.452
    64   1 H        0.926     0.037     2.493     2.469
    65   1 H        0.926     0.035     2.522     2.483
    66   1 H        0.926     0.051     2.302     2.372
    67   1 H        0.926     0.067     2.121     2.277
    68   1 H        0.926     0.049     2.327     2.386
    69   1 H        0.926     0.048     2.348     2.396

molecular dipole:
                 x           y           z       tot (Debye)
 q only:        0.005      -0.017      -0.497
   full:        0.005      -0.032      -1.048       2.664

 projected vibrational frequencies (cm⁻¹)
eigval :       -0.00    -0.00     0.00     0.00     0.00     0.00
eigval :        8.31     8.86    14.36    24.28    26.44    36.08
eigval :       41.58    50.21    59.29    64.68    69.16    92.15
eigval :      103.57   111.62   118.55   122.26   122.41   178.68
eigval :      189.25   191.35   202.91   242.87   249.68   253.72
eigval :      255.01   270.51   274.05   281.49   332.99   351.31
eigval :      370.49   373.70   376.79   377.70   389.78   395.27
eigval :      404.47   422.43   423.27   430.45   431.18   432.66
eigval :      445.24   449.74   466.35   489.34   498.97   502.14
eigval :      509.91   509.97   522.71   522.83   549.16   551.87
eigval :      587.02   587.53   591.42   603.23   608.63   609.66
eigval :      653.53   658.93   661.69   661.70   661.84   666.67
eigval :      676.88   680.41   709.88   715.27   720.86   728.96
eigval :      779.12   779.15   779.49   779.53   802.46   804.01
eigval :      824.32   825.54   855.71   855.73   863.93   863.99
eigval :      866.75   866.82   876.51   877.00   897.64   897.70
eigval :      898.86   898.92   908.83   913.52   913.96   914.13
eigval :      915.33   915.36   917.25   917.33   925.98   926.43
eigval :      934.88   935.12   971.66   974.48  1009.10  1019.30
eigval :     1081.64  1090.67  1090.69  1091.55  1091.59  1097.76
eigval :     1108.60  1108.61  1121.00  1121.07  1126.59  1127.46
eigval :     1171.08  1171.13  1175.58  1175.59  1178.87  1180.83
eigval :     1185.16  1188.90  1190.92  1202.25  1202.27  1222.27
eigval :     1224.36  1243.07  1243.11  1258.23  1259.72  1262.27
eigval :     1262.35  1275.99  1299.09  1310.44  1310.54  1317.72
eigval :     1318.56  1320.56  1326.96  1338.97  1339.05  1355.55
eigval :     1355.74  1407.79  1408.54  1424.49  1424.51  1442.31
eigval :     1442.40  1460.43  1460.77  1487.46  1487.73  1503.19
eigval :     1503.98  1533.74  1535.38  1557.71  1560.18  1568.18
eigval :     1568.22  1580.60  1580.63  1585.26  1585.34  1591.17
eigval :     1591.36  1602.97  1603.01  3087.22  3087.58  3089.66
eigval :     3089.68  3090.44  3090.45  3092.94  3093.05  3098.48
eigval :     3099.00  3099.66  3099.70  3099.95  3099.98  3106.52
eigval :     3106.57  3107.30  3107.35  3113.53  3113.54  3114.09
eigval :     3114.13  3116.76  3116.89

   temp. (K)  partition function   enthalpy   heat capacity  entropy
                                   cal/mol     cal/K/mol   cal/K/mol   J/K/mol
 298.15  VIB  0.124E+17            19992.911    127.000    124.674
         ROT  0.107E+09              888.752      2.981     39.721
         INT  0.133E+25            20881.664    129.980    164.395
         TR   0.137E+29             1481.254      4.968     44.961
         TOT                       22362.9175   134.9486   209.3561   875.9460

       T/K    H(0)-H(T)+PV         H(T)/Eh          T*S/Eh         G(T)/Eh
   ------------------------------------------------------------------------
    298.15    0.356376E-01    0.548089E+00    0.994718E-01    0.448617E+00
   ------------------------------------------------------------------------

         :::::::::::::::::::::::::::::::::::::::::::::::::::::
         ::                  THERMODYNAMIC                  ::
         :::::::::::::::::::::::::::::::::::::::::::::::::::::
         :: total free energy        -117.105960651554 Eh   ::
         ::.................................................::
         :: total energy             -117.554577654046 Eh   ::
         :: zero point energy           0.512451270120 Eh   ::
         :: G(RRHO) w/o ZPVE           -0.063834267628 Eh   ::
         :: G(RRHO) contrib.            0.448617002492 Eh   ::
         :::::::::::::::::::::::::::::::::::::::::::::::::::::

           -------------------------------------------------
          | TOTAL ENERGY             -117.554577654046 Eh   |
          | TOTAL ENTHALPY           -117.006488806402 Eh   |
          | TOTAL FREE ENERGY        -117.105960651554 Eh   |
          | GRADIENT NORM               0.000155232188 Eh/α |
          | HOMO-LUMO GAP               1.536948995941 eV   |
           -------------------------------------------------

 * finished run on 2025/09/14 at 13:27:41.483
