   * xtb version 6.7.1 (edcfbbe) compiled by 'albert@albert-system' on 2024-07-22

   ID    Z sym.   atoms
    1    6 C      1-6, 8-13, 15-19, 22-26, 28-33, 35-42, 44, 45
    2    8 O      7, 34, 43
    3    7 N      14, 20, 21, 27
    4    1 H      46-69

          program call               : xtb data2507/gas/PTZ–TAZ/PTZ–TAZ_gas_S0_finalOpt.xtbopt.xyz --gfn 2 --spinpol --tblite --uhf 2 --ohess vtight --parallel 40 --molden --ceasefiles --namespace data2507/gas/PTZ–TAZ/PTZ–TAZ_gas_T1_preOpt
 * total energy  :  -117.4753293 Eh     change       -0.4176314E-07 Eh
 * total energy  :  -117.4798778 Eh     change       -0.4548568E-02 Eh
 * total energy  :  -117.4814143 Eh     change       -0.1536500E-02 Eh
 * total energy  :  -117.4814949 Eh     change       -0.8059022E-04 Eh
 * total energy  :  -117.4815291 Eh     change       -0.3412887E-04 Eh
 * total energy  :  -117.4815329 Eh     change       -0.3806655E-05 Eh
 * total energy  :  -117.4815384 Eh     change       -0.5480341E-05 Eh
 * total energy  :  -117.4815414 Eh     change       -0.3056484E-05 Eh
 * total energy  :  -117.4815438 Eh     change       -0.2393175E-05 Eh
 * total energy  :  -117.4815453 Eh     change       -0.1501613E-05 Eh
 * total energy  :  -117.4815593 Eh     change       -0.2923544E-06 Eh
 * total energy  :  -117.4815596 Eh     change       -0.3276399E-06 Eh
 * total energy  :  -117.4815599 Eh     change       -0.2960343E-06 Eh
 * total energy  :  -117.4815600 Eh     change       -0.1035675E-06 Eh
 * total energy  :  -117.4815603 Eh     change       -0.2797633E-06 Eh
 * total energy  :  -117.4815606 Eh     change       -0.3599694E-06 Eh
 * total energy  :  -117.4815611 Eh     change       -0.4305489E-06 Eh
 * total energy  :  -117.4815614 Eh     change       -0.3527137E-06 Eh
 * total energy  :  -117.4815614 Eh     change       -0.1995076E-07 Eh
   *** GEOMETRY OPTIMIZATION CONVERGED AFTER 42 ITERATIONS ***

 final structure:
================
69
 xtb: 6.7.1 (edcfbbe)
C           -9.04343657853365       -3.02075082718738        0.84530976121337
C           -7.72096889315896       -3.07686585448653        1.24987394239279
C           -6.83962749202849       -2.06577786293017        0.91265296258429
C           -7.26872054865775       -0.96668040087061        0.17058708524566
C           -8.60390623721897       -0.93893116368798       -0.26622288059972
C           -9.48030153872305       -1.95428652280761        0.07691563173255
O           -9.09216508785548        0.06426384825826       -1.05714944506299
C           -8.23587137944289        1.07220275589540       -1.40431363370234
C           -8.74447350789164        2.08733909398183       -2.19649196015757
C           -7.94253222280030        3.15803973309458       -2.55597405725115
C           -6.63689061204025        3.21883962818783       -2.10063764000705
C           -6.12076480796390        2.20774737685770       -1.31071512310291
C           -6.90041007739815        1.10410994465389       -0.96857688643245
N           -6.41166031708988        0.06832122232683       -0.18246227592023
C           -5.06768201625336        0.06735845800108        0.24869747508737
C           -4.76465005077350        0.10346866457895        1.62024963982844
C           -3.46465127136939        0.10974335279770        2.04122253084026
C           -2.40418243845535        0.06450775803167        1.10196653307946
C           -1.07256715949007        0.06314053856471        1.54477692577834
N           -0.64885409330252        0.09539746583381        2.80858802176819
N            0.65033821585744        0.07866507475920        2.80866916712837
C            1.07326121702029        0.03729768268983        1.54485893285370
C            2.40457197484777        0.00880488294951        1.10206242417277
C            2.72204349871548       -0.02861854856507       -0.27822752433419
C            4.02579696834800       -0.06466021898907       -0.69067678878405
C            5.06744986869413       -0.04947681711612        0.24879447953075
N            6.41101981335701       -0.07967753665978       -0.18253552035247
C            7.27179810598037        0.97123628251214        0.10908820496012
C            6.84719287687922        2.11278725983335        0.78686299309751
C            7.73219978739163        3.13879893356333        1.06407252737239
C            9.05394456291800        3.05509325655779        0.66191562083276
C            9.48638319266745        1.94459481441285       -0.04406936073913
C            8.60630686183158        0.91395774547562       -0.32693552385461
O            9.09032668251085       -0.13481893890746       -1.05915582418024
C            8.23056895795175       -1.15865189178583       -1.34597904693932
C            8.73503477480931       -2.21975443910923       -2.07831139180562
C            7.92943196618575       -3.30715563323731       -2.37376990575125
C            6.62429405162086       -3.33739804117565       -1.91395233992924
C            6.11228519837778       -2.28042876082516       -1.18366231119398
C            6.89563896932057       -1.16104549568758       -0.90747623426236
C            4.76535309052278       -0.00481793141140        1.62030484182236
C            3.46564563182554        0.01634545438226        2.04170309804956
O            0.00007433020776        0.02511552196095        0.67873657660241
C           -2.72257278671785        0.02120591100098       -0.27793454218241
C           -4.02665851641000        0.03039188691741       -0.69084289059477
H           -9.73193517164392       -3.80677413235191        1.11172938664979
H           -7.36536397667720       -3.91477515437893        1.82891607513288
H           -5.80726708069373       -2.12681660893169        1.21680384830014
H          -10.49770257476840       -1.89136392622684       -0.27431389342961
H           -9.77263740848757        2.02109839442102       -2.51413428002918
H           -8.34400825011818        3.94398791799831       -3.17561458961562
H           -6.01194234323723        4.06072696918339       -2.35482344965010
H           -5.10898606536689        2.27245874166814       -0.94439451965254
H           -5.57441876944529        0.15104245607841        2.33423643809708
H           -3.21280927973312        0.15664764617914        3.08809656049315
H            1.91764838263812       -0.01962321834010       -0.99721164558890
H            4.26864130169726       -0.08066141904413       -1.74388428296715
H            5.81543457566392        2.19467389058796        1.08814080933438
H            7.38005669169316        4.00990611880437        1.59417048935987
H            9.74530123318038        3.85294545033062        0.88168723384809
H           10.50309736361543        1.85817927424396       -0.39228070438497
H            9.76292826886341       -2.17524298431343       -2.40058154127619
H            8.32768785345252       -4.12908085558602       -2.94707942720753
H            5.99651510872198       -4.19079455085776       -2.11779984275090
H            5.10085670386822       -2.32065370723982       -0.81289593006892
H            5.57551783059464       -0.01259518459814        2.33538370781760
H            3.21446772672605        0.03102162361783        3.08968420419846
H           -1.91859463092485       -0.02781927856501       -0.99576951932158
H           -4.27015904482389       -0.01534136518289       -1.74302676195189

 projected vibrational frequencies (cm⁻¹)
eigval :       -0.00    -0.00    -0.00     0.00     0.00     0.00
eigval :        9.09    11.17    15.10    23.95    29.96    40.11
eigval :       44.09    59.20    63.70    68.12    79.19   102.22
eigval :      109.02   109.38   119.81   123.54   127.63   168.55
eigval :      177.72   195.05   207.43   239.79   246.18   246.53
eigval :      253.83   272.24   276.70   280.41   324.70   343.29
eigval :      361.81   374.06   376.88   381.32   382.41   390.38
eigval :      402.33   418.90   422.53   425.52   433.71   434.45
eigval :      452.23   460.70   463.29   467.50   472.23   502.44
eigval :      502.45   503.63   527.80   528.05   536.76   540.99
eigval :      568.03   583.29   586.03   588.29   601.60   604.14
eigval :      605.47   649.07   649.69   655.75   661.21   665.95
eigval :      668.02   669.39   669.43   682.25   700.09   714.74
eigval :      777.62   777.72   779.15   779.22   799.22   799.42
eigval :      799.62   799.86   838.34   841.19   856.25   856.29
eigval :      867.03   867.08   867.89   867.98   887.83   898.25
eigval :      898.95   899.20   899.83   900.05   906.76   906.78
eigval :      909.85   913.68   913.89   914.83   915.03   919.06
eigval :      919.10   919.98   921.29   921.38   985.58   986.85
eigval :     1034.98  1051.34  1086.00  1086.01  1086.77  1087.20
eigval :     1112.61  1112.65  1119.00  1120.06  1125.06  1125.56
eigval :     1153.38  1169.83  1173.72  1174.12  1174.14  1178.74
eigval :     1190.18  1192.96  1208.27  1208.28  1212.63  1220.55
eigval :     1225.73  1228.08  1237.84  1238.10  1252.76  1255.75
eigval :     1256.39  1256.99  1280.08  1304.42  1306.46  1311.02
eigval :     1313.46  1317.39  1318.01  1336.15  1338.80  1338.83
eigval :     1348.02  1359.81  1412.46  1417.07  1417.20  1420.30
eigval :     1424.15  1438.77  1442.14  1448.02  1450.66  1450.78
eigval :     1465.83  1466.10  1478.27  1479.06  1529.93  1542.76
eigval :     1555.43  1555.45  1562.16  1562.17  1574.93  1576.67
eigval :     1579.53  1587.20  1593.44  3072.24  3072.29  3076.48
eigval :     3076.75  3095.11  3095.12  3095.69  3095.71  3099.66
eigval :     3101.01  3104.13  3104.18  3104.42  3104.54  3114.24
eigval :     3114.25  3114.79  3114.81  3115.63  3115.94  3116.15
eigval :     3116.29  3116.44  3116.78

   temp. (K)  partition function   enthalpy   heat capacity  entropy
                                   cal/mol     cal/K/mol   cal/K/mol   J/K/mol
 298.15  VIB  0.506E+16            20140.862    129.177    124.769
         ROT  0.534E+08              888.752      2.981     38.340
         INT  0.270E+24            21029.614    132.158    163.109
         TR   0.137E+29             1481.254      4.968     44.961
         TOT                       22510.8680   137.1260   208.0704   870.5666

       T/K    H(0)-H(T)+PV         H(T)/Eh          T*S/Eh         G(T)/Eh
   ------------------------------------------------------------------------
    298.15    0.358734E-01    0.544533E+00    0.988610E-01    0.445672E+00
   ------------------------------------------------------------------------

         :::::::::::::::::::::::::::::::::::::::::::::::::::::
         ::                  THERMODYNAMIC                  ::
         :::::::::::::::::::::::::::::::::::::::::::::::::::::
         :: total free energy        -117.035889286844 Eh   ::
         ::.................................................::
         :: total energy             -117.481561440806 Eh   ::
         :: zero point energy           0.508659765473 Eh   ::
         :: G(RRHO) w/o ZPVE           -0.062987611511 Eh   ::
         :: G(RRHO) contrib.            0.445672153962 Eh   ::
         :::::::::::::::::::::::::::::::::::::::::::::::::::::

           -------------------------------------------------
          | TOTAL ENERGY             -117.481561440806 Eh   |
          | TOTAL ENTHALPY           -116.937028323795 Eh   |
          | TOTAL FREE ENERGY        -117.035889286844 Eh   |
          | GRADIENT NORM               0.000026625343 Eh/α |
           -------------------------------------------------

 * finished run on 2025/09/14 at 13:27:50.398
