   * xtb version 6.7.1 (edcfbbe) compiled by 'albert@albert-system' on 2024-07-22

   ID    Z sym.   atoms
    1    6 C      1-3, 5-18, 20-32
    2    7 N      4, 19
    3    1 H      33-52

          program call               : xtb data2507/gas/mCP/mCP_gas_S0_finalOpt.xtbopt.xyz --gfn 2 --spinpol --tblite --uhf 2 --ohess vtight --parallel 40 --molden --ceasefiles --namespace data2507/gas/mCP/mCP_gas_T1_preOpt
 * total energy  :   -80.2358832 Eh     change       -0.8157312E-07 Eh
 * total energy  :   -80.2375852 Eh     change       -0.1701982E-02 Eh
 * total energy  :   -80.2381112 Eh     change       -0.5259625E-03 Eh
 * total energy  :   -80.2382167 Eh     change       -0.1055031E-03 Eh
 * total energy  :   -80.2383076 Eh     change       -0.9087611E-04 Eh
 * total energy  :   -80.2383446 Eh     change       -0.3709383E-04 Eh
 * total energy  :   -80.2383730 Eh     change       -0.2833338E-04 Eh
 * total energy  :   -80.2383913 Eh     change       -0.1832375E-04 Eh
 * total energy  :   -80.2384022 Eh     change       -0.1086415E-04 Eh
 * total energy  :   -80.2384096 Eh     change       -0.7422093E-05 Eh
 * total energy  :   -80.2384165 Eh     change       -0.9629018E-06 Eh
 * total energy  :   -80.2384173 Eh     change       -0.7815724E-06 Eh
 * total energy  :   -80.2384180 Eh     change       -0.7157694E-06 Eh
 * total energy  :   -80.2384188 Eh     change       -0.7438648E-06 Eh
 * total energy  :   -80.2384196 Eh     change       -0.8580520E-06 Eh
 * total energy  :   -80.2384205 Eh     change       -0.9065433E-06 Eh
 * total energy  :   -80.2384213 Eh     change       -0.8126864E-06 Eh
 * total energy  :   -80.2384213 Eh     change        0.1261216E-07 Eh
 * total energy  :   -80.2384213 Eh     change       -0.1286678E-07 Eh
   *** GEOMETRY OPTIMIZATION CONVERGED AFTER 23 ITERATIONS ***

 final structure:
================
52
 xtb: 6.7.1 (edcfbbe)
C           -0.00088222785392       -2.29596003226035        2.21638377884641
C            1.20178455935742       -1.80060546801602        1.75473664071026
C            1.20528475754532       -0.73791364300764        0.79954556888160
N            2.41284306947297       -0.26314727523502        0.31091105975743
C            2.77423352638761        1.06515025806957        0.16129193010551
C            2.09064206625203        2.21105101443999        0.52578909005498
C            2.70026705459493        3.43844630876370        0.29842180194488
C            3.96794746782378        3.51363229462536       -0.27675756507306
C            4.67392294456775        2.37338314858552       -0.61366823369600
C            4.08675544125427        1.13094632838004       -0.38534583762187
C            4.52465627250013       -0.21530040557919       -0.56613488616309
C            5.69174951279742       -0.79086887054978       -1.06214744699893
C            5.77098171844022       -2.16973970194839       -1.13964056993599
C            4.70934282606502       -2.98144887960269       -0.74360683732645
C            3.53696164474914       -2.43140791735025       -0.23931140412532
C            3.46051737053592       -1.05385407972451       -0.13010164201679
C           -0.00002637520760       -0.20827366013119        0.35853071100661
C           -1.20584206669944       -0.73679244098857        0.79966993028734
N           -2.41298491120540       -0.26121351785319        0.31089096732643
C           -2.77303231431793        1.06732520542518        0.16006634459349
C           -2.08833451181465        2.21289915482789        0.52348990730212
C           -2.69667817204619        3.44071092552549        0.29483362409792
C           -3.96423316358888        3.51662203605229       -0.28053178997828
C           -4.67136479592990        2.37676432896488       -0.61631262430499
C           -4.08548444135875        1.13394284212282       -0.38669632477598
C           -4.52475807759346       -0.21198627395530       -0.56623166765954
C           -5.69247806945585       -0.78677543782701       -1.06171556872454
C           -5.77316965146239       -2.16562322704899       -1.13797131149234
C           -4.71236578322230       -2.97809377971896       -0.74126170287454
C           -3.53937175843325       -2.42881803428338       -0.23749605193422
C           -3.46146825407918       -1.05126085636326       -0.12945011171773
C           -1.20312270400772       -1.79933237354631        1.75506777332828
H           -0.00119623896912       -3.08336025267658        2.95602217675640
H            2.13965034102515       -2.15448979111845        2.15025854393622
H            1.11953969262311        2.16081409972615        0.99229237199726
H            2.18461214316630        4.34510076102982        0.57445780628957
H            4.40965634403052        4.48424581716967       -0.44854433122564
H            5.66376491098931        2.43879413243008       -1.03863068900783
H            6.51311858622317       -0.16908791683652       -1.38371465277825
H            6.66808884118809       -2.63061320918280       -1.52638421633596
H            4.79334292497393       -4.05301858642139       -0.83798891653613
H            2.70736127692918       -3.06412759325461        0.03730514841751
H            0.00032194586443        0.56135591000399       -0.39891559559921
H           -1.11732477895440        2.16220257871131        0.99011622529024
H           -2.18009812422943        4.34709534941201        0.56998468351271
H           -4.40491505378726        4.48751538349552       -0.45335303085227
H           -5.66110199740787        2.44274165509992       -1.04140691662091
H           -6.51317719860683       -0.16440211349421       -1.38381297600803
H           -6.67076685313531       -2.62590004399503       -1.52427958908144
H           -4.79747097452262       -4.04964803382011       -0.83469782379877
H           -2.71043852140089       -3.06220435250352        0.03956324643644
H           -2.14123721106448       -2.15213745924299        2.15097023516673

 projected vibrational frequencies (cm⁻¹)
eigval :       -0.00    -0.00     0.00     0.00     0.00     0.00
eigval :       17.67    26.40    31.20    54.49    67.53    89.79
eigval :      100.06   105.58   134.95   135.75   150.16   189.99
eigval :      194.02   230.13   254.54   260.73   267.91   274.44
eigval :      300.41   326.87   360.19   374.10   376.11   393.07
eigval :      409.06   409.72   410.95   432.37   435.30   483.83
eigval :      504.91   505.57   515.51   515.95   536.39   554.02
eigval :      561.28   575.87   575.91   592.60   605.26   620.73
eigval :      625.47   655.56   655.60   681.32   689.33   691.88
eigval :      722.34   729.40   748.69   749.11   754.59   755.33
eigval :      755.47   758.13   803.75   841.32   844.97   848.02
eigval :      848.40   864.45   872.84   875.69   887.42   888.74
eigval :      889.48   890.16   901.00   901.81   902.02   903.85
eigval :      903.91   914.11   926.77   973.52  1002.41  1002.60
eigval :     1005.92  1058.64  1061.88  1066.50  1072.48  1093.01
eigval :     1096.57  1106.92  1109.01  1122.78  1148.51  1165.54
eigval :     1165.72  1171.47  1172.83  1184.80  1204.50  1207.50
eigval :     1211.16  1223.60  1232.89  1248.06  1253.31  1257.37
eigval :     1263.18  1288.05  1295.57  1295.75  1301.39  1316.84
eigval :     1359.28  1372.90  1375.64  1386.36  1387.94  1404.54
eigval :     1408.17  1415.34  1425.11  1443.85  1444.89  1455.79
eigval :     1471.15  1471.50  1500.00  1500.66  1513.95  1548.27
eigval :     1551.55  1552.98  1553.17  1583.46  3077.96  3078.09
eigval :     3078.42  3078.80  3079.32  3084.29  3084.68  3088.91
eigval :     3089.73  3091.64  3091.99  3093.12  3094.35  3096.17
eigval :     3098.03  3100.06  3100.86  3103.90  3107.61  3111.56

   temp. (K)  partition function   enthalpy   heat capacity  entropy
                                   cal/mol     cal/K/mol   cal/K/mol   J/K/mol
 298.15  VIB  0.120E+10            13529.742     92.894     80.529
         ROT  0.225E+08              888.752      2.981     36.624
         INT  0.271E+17            14418.495     95.875    117.153
         TR   0.799E+28             1481.254      4.968     43.893
         TOT                       15899.7484   100.8428   161.0464   673.8181

       T/K    H(0)-H(T)+PV         H(T)/Eh          T*S/Eh         G(T)/Eh
   ------------------------------------------------------------------------
    298.15    0.253379E-01    0.419412E+00    0.765183E-01    0.342894E+00
   ------------------------------------------------------------------------

         :::::::::::::::::::::::::::::::::::::::::::::::::::::
         ::                  THERMODYNAMIC                  ::
         :::::::::::::::::::::::::::::::::::::::::::::::::::::
         :: total free energy         -79.895527780338 Eh   ::
         ::.................................................::
         :: total energy              -80.238421351993 Eh   ::
         :: zero point energy           0.394074052209 Eh   ::
         :: G(RRHO) w/o ZPVE           -0.051180480554 Eh   ::
         :: G(RRHO) contrib.            0.342893571655 Eh   ::
         :::::::::::::::::::::::::::::::::::::::::::::::::::::

           -------------------------------------------------
          | TOTAL ENERGY              -80.238421351993 Eh   |
          | TOTAL ENTHALPY            -79.819009437845 Eh   |
          | TOTAL FREE ENERGY         -79.895527780338 Eh   |
          | GRADIENT NORM               0.000081266147 Eh/α |
           -------------------------------------------------

 * finished run on 2025/07/16 at 19:16:33.499
