   * xtb version 6.7.1 (edcfbbe) compiled by 'albert@albert-system' on 2024-07-22

   ID    Z sym.   atoms
    1    6 C      1-3, 5-18, 20-32
    2    7 N      4, 19
    3    1 H      33-52

          program call               : xtb data2507/gas/mCP/mCP_gas_T1_crest.xyz --gfn 2 --spinpol --tblite --uhf 2 --ohess vtight --parallel 40 --molden --ceasefiles --namespace data2507/gas/mCP/mCP_gas_T1_finalOpt
 * total energy  :   -80.2383487 Eh     change       -0.1518568E-07 Eh
 * total energy  :   -80.2383831 Eh     change       -0.3438241E-04 Eh
 * total energy  :   -80.2384141 Eh     change       -0.3103464E-04 Eh
 * total energy  :   -80.2384179 Eh     change       -0.3803190E-05 Eh
 * total energy  :   -80.2384206 Eh     change       -0.2658937E-05 Eh
 * total energy  :   -80.2384220 Eh     change       -0.1392117E-05 Eh
 * total energy  :   -80.2384230 Eh     change       -0.1038467E-05 Eh
 * total energy  :   -80.2384234 Eh     change       -0.4118136E-06 Eh
 * total energy  :   -80.2384236 Eh     change       -0.2142938E-06 Eh
 * total energy  :   -80.2384239 Eh     change       -0.2395660E-06 Eh
 * total energy  :   -80.2384241 Eh     change       -0.1984751E-06 Eh
 * total energy  :   -80.2384242 Eh     change       -0.1558368E-06 Eh
 * total energy  :   -80.2384243 Eh     change       -0.1183134E-06 Eh
 * total energy  :   -80.2384246 Eh     change       -0.2330931E-06 Eh
 * total energy  :   -80.2384247 Eh     change       -0.1487262E-06 Eh
 * total energy  :   -80.2384248 Eh     change       -0.4275601E-07 Eh
   *** GEOMETRY OPTIMIZATION CONVERGED AFTER 16 ITERATIONS ***

 final structure:
================
52
 xtb: 6.7.1 (edcfbbe)
C            0.00227748219796       -2.33388346672318        2.17288665056707
C            1.20415718533489       -1.82826763200149        1.72110370168095
C            1.20695547464574       -0.75346220327293        0.77922034002628
N            2.41400661744352       -0.26843736369070        0.30043544952429
C            2.76832861098317        1.06332021883739        0.16259940980854
C            2.07638274202018        2.20268843986098        0.53161053010975
C            2.67934857613567        3.43542529718642        0.31550663036171
C            3.94939023881258        3.52234289607949       -0.25280853158413
C            4.66440571508830        2.38868166761171       -0.59268669725566
C            4.08386521213890        1.14107379428309       -0.37539565318608
C            4.53184843481585       -0.20089300454475       -0.56137296129376
C            5.70720752740199       -0.76517121896364       -1.05097744389376
C            5.79708243035713       -2.14286369277410       -1.13587382122706
C            4.73758310717125       -2.96438397815361       -0.75432004908672
C            3.55702626846754       -2.42564226917111       -0.25685018166066
C            3.46998711417345       -1.04942635194744       -0.13874282506489
C            0.00030403647658       -0.22152034174087        0.34335477498302
C           -1.20452695062403       -0.75782956126798        0.77683672402950
N           -2.41274828945930       -0.27343614229157        0.29880987406199
C           -2.77271507832897        1.05800576631476        0.17522584199083
C           -2.08588160301817        2.19590051634219        0.55812805296210
C           -2.69433042268915        3.42825100219828        0.35626041240886
C           -3.96434020540509        3.51617332878610       -0.21181527687258
C           -4.67378697580440        2.38341902522707       -0.56621858823127
C           -4.08762221027388        1.13605878951304       -0.36356798289525
C           -4.52912199488179       -0.20604143086142       -0.56577528759799
C           -5.70064853781490       -0.77030774011693       -1.06425089027328
C           -5.78381356959661       -2.14742291149362       -1.16439089446396
C           -4.72154272824472       -2.96809925894111       -0.78890580282432
C           -3.54478017795907       -2.42950845857228       -0.28268727028833
C           -3.46433868042511       -1.05414055941325       -0.15041427058537
C           -1.20079460898120       -1.83433301733962        1.71636501692354
H            0.00287581087294       -3.13124690972434        2.90178589886658
H            2.14199317677736       -2.18325449598370        2.11566129177790
H            1.10363144014004        2.14388749915061        0.99341491931374
H            2.15651480400793        4.33687747433324        0.59499585800697
H            4.38572014579225        4.49680880213776       -0.41632369451723
H            5.65613627011862        2.46291665370758       -1.01172559104981
H            6.52683522569451       -0.13550462224107       -1.36142833132817
H            6.70087451713038       -2.59508177111573       -1.51723800558387
H            4.82988129596066       -4.03470740846456       -0.85469827806161
H            2.72957357867892       -3.06622123280861        0.00777434064423
H           -0.00076561457190        0.55781137020428       -0.40407890121923
H           -1.11322510806347        2.13529476647970        1.02003237355388
H           -2.17592546101623        4.32874388529901        0.64696392069601
H           -4.40514431826989        4.49050042338814       -0.36366647437884
H           -5.66558028947945        2.45822957108107       -0.98500829813258
H           -6.52249959612885       -0.14118212690669       -1.36988721796233
H           -6.68457250059957       -2.59964560034126       -1.55282603704113
H           -4.80888960950462       -4.03772100364959       -0.90077252141358
H           -2.71512538712469       -3.06874338805568       -0.02167302074542
H           -2.13855608017288       -2.19539819864849        2.10551451182115

 projected vibrational frequencies (cm⁻¹)
eigval :       -0.00    -0.00     0.00     0.00     0.00     0.00
eigval :       17.13    26.59    31.62    54.42    67.49    89.82
eigval :      100.19   105.60   134.79   135.63   150.38   189.93
eigval :      194.08   230.16   254.54   260.64   268.05   274.65
eigval :      300.47   327.16   360.21   374.03   376.23   392.96
eigval :      408.66   409.66   410.99   432.58   435.41   483.97
eigval :      504.85   505.71   515.42   516.10   536.45   554.18
eigval :      561.50   575.88   576.28   592.87   605.17   620.69
eigval :      625.29   655.41   655.78   681.50   689.34   691.91
eigval :      721.94   729.43   748.74   748.91   754.64   755.26
eigval :      755.51   758.17   803.31   841.07   844.95   847.85
eigval :      848.52   864.74   872.52   875.54   887.49   888.90
eigval :      889.46   890.13   901.17   901.70   902.06   903.73
eigval :      903.98   914.18   926.92   973.90  1001.73  1002.63
eigval :     1005.34  1058.64  1061.89  1066.66  1072.33  1092.85
eigval :     1096.45  1106.34  1109.57  1122.93  1148.70  1165.28
eigval :     1165.87  1171.29  1172.76  1184.86  1204.43  1207.29
eigval :     1211.10  1223.88  1232.77  1247.84  1253.51  1257.39
eigval :     1264.01  1288.07  1295.10  1296.27  1301.40  1316.84
eigval :     1359.15  1372.89  1375.54  1386.31  1387.85  1404.29
eigval :     1408.18  1415.20  1424.86  1443.77  1444.84  1455.76
eigval :     1471.19  1471.61  1499.84  1500.90  1514.04  1548.31
eigval :     1551.64  1553.08  1553.35  1583.41  3077.99  3078.12
eigval :     3078.47  3078.79  3078.89  3084.39  3084.75  3089.11
eigval :     3089.82  3091.47  3092.12  3093.07  3094.56  3096.37
eigval :     3098.18  3100.32  3101.19  3104.38  3107.89  3111.59

   temp. (K)  partition function   enthalpy   heat capacity  entropy
                                   cal/mol     cal/K/mol   cal/K/mol   J/K/mol
 298.15  VIB  0.121E+10            13528.993     92.898     80.542
         ROT  0.225E+08              888.752      2.981     36.624
         INT  0.273E+17            14417.745     95.879    117.167
         TR   0.799E+28             1481.254      4.968     43.893
         TOT                       15898.9988   100.8467   161.0596   673.8733

       T/K    H(0)-H(T)+PV         H(T)/Eh          T*S/Eh         G(T)/Eh
   ------------------------------------------------------------------------
    298.15    0.253367E-01    0.419416E+00    0.765246E-01    0.342891E+00
   ------------------------------------------------------------------------

         :::::::::::::::::::::::::::::::::::::::::::::::::::::
         ::                  THERMODYNAMIC                  ::
         :::::::::::::::::::::::::::::::::::::::::::::::::::::
         :: total free energy         -79.895533835355 Eh   ::
         ::.................................................::
         :: total energy              -80.238424757737 Eh   ::
         :: zero point energy           0.394078863519 Eh   ::
         :: G(RRHO) w/o ZPVE           -0.051187941136 Eh   ::
         :: G(RRHO) contrib.            0.342890922382 Eh   ::
         :::::::::::::::::::::::::::::::::::::::::::::::::::::

           -------------------------------------------------
          | TOTAL ENERGY              -80.238424757737 Eh   |
          | TOTAL ENTHALPY            -79.819009226839 Eh   |
          | TOTAL FREE ENERGY         -79.895533835355 Eh   |
          | GRADIENT NORM               0.000114943183 Eh/α |
           -------------------------------------------------

 * finished run on 2025/07/16 at 19:18:19.456
