   * xtb version 6.7.1 (edcfbbe) compiled by 'albert@albert-system' on 2024-07-22

   ID    Z sym.   atoms
    1    6 C      1-3, 5-18, 20-32
    2    7 N      4, 19
    3    1 H      33-52

          program call               : xtb data2507/gas/mCP/mCP_gas_S0_crest.xyz --gfn 2 --ohess vtight --parallel 40 --molden --ceasefiles --namespace data2507/gas/mCP/mCP_gas_S0_finalOpt
          :  Hamiltonian                  GFN2-xTB          :
 * total energy  :   -80.3499734 Eh     change       -0.1111303E-08 Eh
 * total energy  :   -80.3499738 Eh     change       -0.3614392E-06 Eh
 * total energy  :   -80.3499741 Eh     change       -0.2762256E-06 Eh
 * total energy  :   -80.3499747 Eh     change       -0.6609593E-06 Eh
 * total energy  :   -80.3499752 Eh     change       -0.4720619E-06 Eh
 * total energy  :   -80.3499754 Eh     change       -0.2345132E-06 Eh
 * total energy  :   -80.3499757 Eh     change       -0.2187091E-06 Eh
 * total energy  :   -80.3499759 Eh     change       -0.2628205E-06 Eh
 * total energy  :   -80.3499761 Eh     change       -0.1819256E-06 Eh
 * total energy  :   -80.3499762 Eh     change       -0.9666884E-07 Eh
   *** GEOMETRY OPTIMIZATION CONVERGED AFTER 10 ITERATIONS ***

 final structure:
================
52
 xtb: 6.7.1 (edcfbbe)
C           -0.00159411623730       -2.20032716636837        2.30302777754903
C            1.20009976406002       -1.71881122207002        1.81754191444140
C            1.20414379195234       -0.74566666372323        0.82103740180194
N            2.41912157325542       -0.27234656207217        0.30960434709448
C            2.78593542142268        1.05244099580792        0.17343093886342
C            2.10306469750242        2.20195081229635        0.54142441542470
C            2.71569401220252        3.41959180750878        0.31658916026526
C            3.98502553391321        3.50000884623876       -0.25128930717544
C            4.68192101084993        2.35893531278907       -0.59485106762039
C            4.08500550634545        1.12384670068368       -0.37935380203844
C            4.51432330469599       -0.23041351666817       -0.58930554897717
C            5.67058549458979       -0.79508643699173       -1.11127993915112
C            5.75555629791834       -2.17033241336969       -1.19483620150515
C            4.69984276961997       -2.97924739372620       -0.78053324505143
C            3.53960397207255       -2.44069803213678       -0.25786071371859
C            3.45851347767957       -1.06010382848619       -0.14789276242502
C            0.00064932521610       -0.26121909386035        0.32097493328068
C           -1.20402351994195       -0.74436279974038        0.81946382138220
N           -2.41795896682480       -0.27029142958958        0.30638085724228
C           -2.78376521927878        1.05469167990277        0.16888750714967
C           -2.09919066250976        2.20419689921660        0.53372714613289
C           -2.71092246156640        3.42206329188063        0.30762635323775
C           -3.98100185279255        3.50278367294481       -0.25850646806718
C           -4.67962414451289        2.36178995335739       -0.59880493723178
C           -4.08368880745097        1.12648221649486       -0.38186616336354
C           -4.51479575551455       -0.22766685442914       -0.58879359947294
C           -5.67280244364789       -0.79199090490054       -1.10730042177213
C           -5.75936474026897       -2.16726985042514       -1.18846737549813
C           -4.70337391707033       -2.97658160854990       -0.77561994044618
C           -3.54148323282575       -2.43837129740590       -0.25631101907688
C           -3.45899447478726       -1.05770244401053       -0.14807581567041
C           -1.20212898374598       -1.71722647977917        1.81630390249063
H           -0.00252610835664       -2.94998622092429        3.08002930275606
H            2.13677840044765       -2.07956690641525        2.21359905782943
H            1.12951198274790        2.15011386881679        1.00362295207465
H            2.20062354256061        4.32827576802056        0.59125854038426
H            4.43000943020765        4.47042274688024       -0.41333693185182
H            5.67309380788031        2.41982338682888       -1.01829383860892
H            6.48152403931612       -0.16683605089497       -1.44758901954417
H            6.64687889323121       -2.63006058475345       -1.59508962033035
H            4.78838647108042       -4.05169463235332       -0.87312642888317
H            2.72042488900371       -3.07623999004212        0.04323436064622
H            0.00166218952188        0.46684885964101       -0.47617313170369
H           -1.12491280988901        2.15234395050453        0.99433986273849
H           -2.19445732121804        4.33069775109226        0.57982577022525
H           -4.42516669591625        4.47335234901035       -0.42186192112639
H           -5.67134120040908        2.42293289463826       -1.02093782139261
H           -6.48390419815973       -0.16343126466184       -1.44263213160787
H           -6.65211663335798       -2.62674171496998       -1.58582291329191
H           -4.79304773266910       -4.04906032465758       -0.86672876536376
H           -2.72211370070986       -3.07423662631216        0.04357447382116
H           -2.13965704593181       -2.07668832886613        2.21152590273479

          :  Hamiltonian                  GFN2-xTB          :
         :: gradient norm              0.000046923074 Eh/a0 ::
         :: HOMO-LUMO gap              3.103204139930 eV    ::
         :: SCC energy               -81.879736838130 Eh    ::
         :: -> dispersion             -0.070641986078 Eh    ::
         :: repulsion energy           1.529760630300 Eh    ::

    * Orbital Energies and Occupations

         #    Occupation            Energy/Eh            Energy/eV
      -------------------------------------------------------------
         1        2.0000           -0.6775674             -18.4375
       ...           ...                  ...                  ...
        63        2.0000           -0.4228363             -11.5060
        64        2.0000           -0.4213387             -11.4652
        65        2.0000           -0.4201757             -11.4336
        66        2.0000           -0.4187691             -11.3953
        67        2.0000           -0.4174388             -11.3591
        68        2.0000           -0.4170250             -11.3478
        69        2.0000           -0.4144272             -11.2771
        70        2.0000           -0.4053572             -11.0303
        71        2.0000           -0.4052853             -11.0284
        72        2.0000           -0.3786766             -10.3043
        73        2.0000           -0.3786619             -10.3039
        74        2.0000           -0.3654353              -9.9440
        75        2.0000           -0.3626624              -9.8685 (HOMO)
        76                         -0.2486217              -6.7653 (LUMO)
        77                         -0.2464990              -6.7076
        78                         -0.2396936              -6.5224
        79                         -0.2393236              -6.5123
        80                         -0.2219099              -6.0385
        81                         -0.2218696              -6.0374
        82                         -0.1950210              -5.3068
        83                         -0.1879659              -5.1148
        84                         -0.1860029              -5.0614
        85                         -0.1859414              -5.0597
        86                         -0.1139875              -3.1018
       ...                                ...                  ...
       148                          0.7467679              20.3206
      -------------------------------------------------------------
                  HL-Gap            0.1140407 Eh            3.1032 eV

     #   Z          covCN         q      C6AA      α(0)
     1   6 C        2.919    -0.028    28.700     8.785
     2   6 C        2.922    -0.048    29.194     8.861
     3   6 C        2.912     0.067    26.501     8.441
     4   7 N        2.803    -0.044    22.095     6.981
     5   6 C        3.075     0.047    26.875     8.500
     6   6 C        2.910    -0.050    29.235     8.866
     7   6 C        2.924    -0.033    28.821     8.804
     8   6 C        2.920    -0.041    29.007     8.832
     9   6 C        2.913    -0.032    28.810     8.801
    10   6 C        3.068    -0.017    28.354     8.731
    11   6 C        3.068    -0.016    28.351     8.731
    12   6 C        2.913    -0.033    28.812     8.802
    13   6 C        2.920    -0.041    29.007     8.832
    14   6 C        2.924    -0.033    28.828     8.805
    15   6 C        2.910    -0.051    29.267     8.871
    16   6 C        3.075     0.047    26.877     8.500
    17   6 C        2.925    -0.057    29.415     8.894
    18   6 C        2.912     0.067    26.501     8.441
    19   7 N        2.803    -0.044    22.094     6.981
    20   6 C        3.075     0.047    26.875     8.500
    21   6 C        2.910    -0.050    29.236     8.866
    22   6 C        2.924    -0.033    28.821     8.804
    23   6 C        2.920    -0.040    29.006     8.832
    24   6 C        2.913    -0.032    28.810     8.801
    25   6 C        3.068    -0.017    28.354     8.731
    26   6 C        3.068    -0.016    28.350     8.731
    27   6 C        2.913    -0.033    28.812     8.802
    28   6 C        2.920    -0.041    29.007     8.832
    29   6 C        2.924    -0.033    28.828     8.805
    30   6 C        2.910    -0.051    29.266     8.871
    31   6 C        3.075     0.047    26.878     8.500
    32   6 C        2.922    -0.048    29.194     8.861
    33   1 H        0.926     0.041     2.431     2.438
    34   1 H        0.926     0.045     2.385     2.415
    35   1 H        0.926     0.024     2.668     2.554
    36   1 H        0.926     0.030     2.591     2.517
    37   1 H        0.926     0.029     2.607     2.525
    38   1 H        0.926     0.031     2.567     2.505
    39   1 H        0.926     0.031     2.566     2.505
    40   1 H        0.926     0.029     2.607     2.525
    41   1 H        0.926     0.029     2.596     2.519
    42   1 H        0.926     0.027     2.632     2.537
    43   1 H        0.926     0.050     2.320     2.382
    44   1 H        0.926     0.024     2.667     2.554
    45   1 H        0.926     0.030     2.590     2.517
    46   1 H        0.926     0.029     2.607     2.525
    47   1 H        0.926     0.031     2.567     2.505
    48   1 H        0.926     0.031     2.565     2.505
    49   1 H        0.926     0.029     2.607     2.525
    50   1 H        0.926     0.029     2.596     2.519
    51   1 H        0.926     0.027     2.631     2.537
    52   1 H        0.926     0.045     2.385     2.415

molecular dipole:
                 x           y           z       tot (Debye)
 q only:       -0.001      -0.283       0.301
   full:       -0.001      -0.344       0.363       1.271

 projected vibrational frequencies (cm⁻¹)
eigval :       -0.00    -0.00    -0.00     0.00     0.00     0.00
eigval :       16.85    24.84    29.97    52.34    64.48    87.25
eigval :      101.01   105.30   139.62   140.45   150.83   193.89
eigval :      201.10   241.64   249.02   269.73   271.92   272.26
eigval :      301.49   334.93   359.10   392.40   396.16   420.37
eigval :      421.51   422.26   427.29   435.60   440.25   512.12
eigval :      519.00   520.37   530.67   540.74   541.32   555.86
eigval :      572.57   588.07   593.43   609.88   619.45   645.01
eigval :      670.13   673.34   675.25   690.35   707.92   709.30
eigval :      747.97   757.21   765.71   766.76   769.44   778.93
eigval :      780.74   804.95   860.96   867.36   870.09   873.92
eigval :      893.10   895.48   898.71   899.48   900.51   903.11
eigval :      907.27   908.48   908.83   919.82   921.54   923.81
eigval :      923.85   933.35   997.28  1007.87  1012.66  1018.11
eigval :     1066.98  1070.70  1072.99  1074.52  1110.45  1119.63
eigval :     1127.43  1148.88  1153.27  1165.96  1175.88  1178.43
eigval :     1180.54  1181.69  1187.90  1200.25  1232.32  1234.32
eigval :     1237.11  1250.46  1253.85  1298.32  1300.70  1302.87
eigval :     1304.09  1317.23  1344.45  1358.08  1358.67  1360.33
eigval :     1363.30  1374.02  1419.72  1422.67  1427.36  1428.87
eigval :     1464.61  1472.78  1478.25  1480.38  1488.38  1488.63
eigval :     1570.38  1574.38  1577.30  1584.18  1589.83  1590.38
eigval :     1599.95  1600.45  1615.32  1616.42  3076.61  3076.66
eigval :     3077.54  3078.03  3081.80  3081.91  3083.63  3084.30
eigval :     3085.88  3088.92  3089.28  3091.83  3093.03  3096.04
eigval :     3096.41  3098.01  3098.06  3099.62  3100.05  3104.83

   temp. (K)  partition function   enthalpy   heat capacity  entropy
                                   cal/mol     cal/K/mol   cal/K/mol   J/K/mol
 298.15  VIB  0.102E+10            13148.514     89.765     78.598
         ROT  0.225E+08              888.752      2.981     36.623
         INT  0.229E+17            14037.266     92.746    115.221
         TR   0.799E+28             1481.254      4.968     43.893
         TOT                       15518.5202    97.7137   159.1135   665.7310

       T/K    H(0)-H(T)+PV         H(T)/Eh          T*S/Eh         G(T)/Eh
   ------------------------------------------------------------------------
    298.15    0.247303E-01    0.426221E+00    0.756000E-01    0.350621E+00
   ------------------------------------------------------------------------

         :::::::::::::::::::::::::::::::::::::::::::::::::::::
         ::                  THERMODYNAMIC                  ::
         :::::::::::::::::::::::::::::::::::::::::::::::::::::
         :: total free energy         -79.999354728023 Eh   ::
         ::.................................................::
         :: total energy              -80.349976207830 Eh   ::
         :: zero point energy           0.401491113395 Eh   ::
         :: G(RRHO) w/o ZPVE           -0.050869633588 Eh   ::
         :: G(RRHO) contrib.            0.350621479807 Eh   ::
         :::::::::::::::::::::::::::::::::::::::::::::::::::::

           -------------------------------------------------
          | TOTAL ENERGY              -80.349976207830 Eh   |
          | TOTAL ENTHALPY            -79.923754758316 Eh   |
          | TOTAL FREE ENERGY         -79.999354728023 Eh   |
          | GRADIENT NORM               0.000046923676 Eh/α |
          | HOMO-LUMO GAP               3.103204285367 eV   |
           -------------------------------------------------

 * finished run on 2025/07/16 at 19:16:29.513
