   * xtb version 6.7.1 (edcfbbe) compiled by 'albert@albert-system' on 2024-07-22

   ID    Z sym.   atoms
    1    6 C      1-3, 5-18, 20-32
    2    7 N      4, 19
    3    1 H      33-52

          program call               : xtb data2507/gas/mCP/mCP.xyz --gfn 2 --ohess vtight --parallel 40 --molden --ceasefiles --namespace data2507/gas/mCP/mCP_gas_S0_preOpt
          :  Hamiltonian                  GFN2-xTB          :
 * total energy  :   -80.3361448 Eh     change       -0.1450303E-08 Eh
 * total energy  :   -80.3471897 Eh     change       -0.1104494E-01 Eh
 * total energy  :   -80.3492051 Eh     change       -0.2015307E-02 Eh
 * total energy  :   -80.3495174 Eh     change       -0.3123018E-03 Eh
 * total energy  :   -80.3497537 Eh     change       -0.2363021E-03 Eh
 * total energy  :   -80.3498249 Eh     change       -0.7120833E-04 Eh
 * total energy  :   -80.3498724 Eh     change       -0.4755644E-04 Eh
 * total energy  :   -80.3499062 Eh     change       -0.3375093E-04 Eh
 * total energy  :   -80.3499231 Eh     change       -0.1694568E-04 Eh
 * total energy  :   -80.3499397 Eh     change       -0.1657063E-04 Eh
 * total energy  :   -80.3499740 Eh     change       -0.2894992E-06 Eh
 * total energy  :   -80.3499742 Eh     change       -0.2344361E-06 Eh
 * total energy  :   -80.3499744 Eh     change       -0.1875143E-06 Eh
 * total energy  :   -80.3499746 Eh     change       -0.1843068E-06 Eh
 * total energy  :   -80.3499747 Eh     change       -0.1452718E-06 Eh
 * total energy  :   -80.3499749 Eh     change       -0.1394224E-06 Eh
 * total energy  :   -80.3499750 Eh     change       -0.1099160E-06 Eh
 * total energy  :   -80.3499751 Eh     change       -0.1046677E-06 Eh
 * total energy  :   -80.3499751 Eh     change       -0.1026891E-08 Eh
   *** GEOMETRY OPTIMIZATION CONVERGED AFTER 44 ITERATIONS ***

 final structure:
================
52
 xtb: 6.7.1 (edcfbbe)
C            0.00000723338649       -2.26972648393633        2.25517734116959
C            1.20122325866941       -1.77524063917745        1.78164327865888
C            1.20422450148103       -0.77770602940645        0.80952928921836
N            2.41823317476240       -0.28911092358157        0.31041133510173
C            2.77974343884890        1.03999407089157        0.20446342961474
C            2.09220023616733        2.17811889480531        0.59819149981302
C            2.69937310522098        3.40314247203257        0.40043812328340
C            3.96823688768593        3.50169595086311       -0.16557167965721
C            4.67027492810897        2.37149908604341       -0.53373964565040
C            4.07878175045907        1.12932549576678       -0.34567777183417
C            4.51419200438820       -0.21807359819006       -0.58503126071927
C            5.67379154813485       -0.76578240633120       -1.11753566186813
C            5.76525750640867       -2.13843840150543       -1.23119302864989
C            4.71251894801542       -2.96101895559745       -0.83672651361043
C            3.54902623538705       -2.43941513374735       -0.30415776054076
C            3.46152832067488       -1.06199502890152       -0.16343668406402
C            0.00000064202206       -0.28237469612739        0.32196889101605
C           -1.20421999421036       -0.77771198146276        0.80953134095239
N           -2.41823185237215       -0.28912361934309        0.31041468677583
C           -2.77974812619678        1.03997949787404        0.20446319789309
C           -2.09220952581464        2.17810860350917        0.59818698409245
C           -2.69938823328969        3.40312886786036        0.40043103862818
C           -3.96825371008013        3.50167496787634       -0.16557626883323
C           -4.67028742663778        2.37147382241979       -0.53373934100875
C           -4.07878796092676        1.12930349991794       -0.34567558780203
C           -4.51419154848902       -0.21809810904756       -0.58502699175051
C           -5.67378872545087       -0.76581339434152       -1.11752987690357
C           -5.76524901461525       -2.13847011319222       -1.23118285697348
C           -4.71250692839617       -2.96104498490801       -0.83671394617735
C           -3.54901614288386       -2.43943459270664       -0.30414742681459
C           -3.46152414904720       -1.06201370955730       -0.16343007230434
C           -1.20121205444955       -1.77524612269619        1.78164585035763
H            0.00000979636601       -3.03861508513891        3.01316476164551
H            2.13820619760997       -2.14469177330653        2.16884420163611
H            1.11918380697219        2.11187788771371        1.05952603355550
H            2.18025111673792        4.30316365833840        0.69525797482482
H            4.40882066527219        4.47740690546500       -0.30641875784028
H            5.66125506495794        2.44609788764424       -0.95542913103287
H            6.48235412607339       -0.12651974168927       -1.43846821607913
H            6.65938756056197       -2.58516463743213       -1.63982039673344
H            4.80607378427238       -4.03074290139680       -0.95288354624341
H            2.73228374708771       -3.08524032458670       -0.01877305834833
H           -0.00000180910504        0.46482903473526       -0.45726074942145
H           -1.11919290223403        2.11187333171179        1.05952187770756
H           -2.18027036601872        4.30315314976642        0.69524860804273
H           -4.40884134338603        4.47738360018077       -0.30642718832889
H           -5.66126714970391        2.44606707550200       -0.95543074463550
H           -6.48235573237017       -0.12655528295287       -1.43846037437886
H           -6.65937812719804       -2.58520147169956       -1.63980669753426
H           -4.80605652526258       -4.03076957087550       -0.95286939504449
H           -2.73226977548318       -3.08525532161081       -0.01876373750381
H           -2.13819246211188       -2.14470172647298        2.16884862429865

          :  Hamiltonian                  GFN2-xTB          :
         :: gradient norm              0.000024706389 Eh/a0 ::
         :: HOMO-LUMO gap              3.103097124627 eV    ::
         :: SCC energy               -81.879746464494 Eh    ::
         :: -> dispersion             -0.070665718618 Eh    ::
         :: repulsion energy           1.529771360645 Eh    ::

    * Orbital Energies and Occupations

         #    Occupation            Energy/Eh            Energy/eV
      -------------------------------------------------------------
         1        2.0000           -0.6775579             -18.4373
       ...           ...                  ...                  ...
        63        2.0000           -0.4228432             -11.5061
        64        2.0000           -0.4213123             -11.4645
        65        2.0000           -0.4202100             -11.4345
        66        2.0000           -0.4187423             -11.3946
        67        2.0000           -0.4174111             -11.3583
        68        2.0000           -0.4170102             -11.3474
        69        2.0000           -0.4143843             -11.2760
        70        2.0000           -0.4053567             -11.0303
        71        2.0000           -0.4052852             -11.0284
        72        2.0000           -0.3786738             -10.3042
        73        2.0000           -0.3786672             -10.3041
        74        2.0000           -0.3654326              -9.9439
        75        2.0000           -0.3626613              -9.8685 (HOMO)
        76                         -0.2486246              -6.7654 (LUMO)
        77                         -0.2464933              -6.7074
        78                         -0.2396653              -6.5216
        79                         -0.2392819              -6.5112
        80                         -0.2219120              -6.0385
        81                         -0.2218727              -6.0375
        82                         -0.1950250              -5.3069
        83                         -0.1879320              -5.1139
        84                         -0.1860025              -5.0614
        85                         -0.1859400              -5.0597
        86                         -0.1139446              -3.1006
       ...                                ...                  ...
       148                          0.7467839              20.3210
      -------------------------------------------------------------
                  HL-Gap            0.1140367 Eh            3.1031 eV

     #   Z          covCN         q      C6AA      α(0)
     1   6 C        2.919    -0.028    28.700     8.785
     2   6 C        2.922    -0.048    29.196     8.861
     3   6 C        2.912     0.067    26.501     8.441
     4   7 N        2.802    -0.044    22.094     6.981
     5   6 C        3.075     0.047    26.875     8.500
     6   6 C        2.910    -0.050    29.236     8.866
     7   6 C        2.924    -0.033    28.821     8.804
     8   6 C        2.920    -0.040    29.006     8.832
     9   6 C        2.913    -0.032    28.810     8.801
    10   6 C        3.068    -0.017    28.354     8.731
    11   6 C        3.068    -0.016    28.350     8.731
    12   6 C        2.913    -0.033    28.812     8.802
    13   6 C        2.920    -0.041    29.007     8.832
    14   6 C        2.924    -0.033    28.828     8.805
    15   6 C        2.910    -0.051    29.266     8.871
    16   6 C        3.075     0.047    26.877     8.500
    17   6 C        2.925    -0.057    29.417     8.895
    18   6 C        2.912     0.067    26.501     8.441
    19   7 N        2.802    -0.044    22.094     6.981
    20   6 C        3.075     0.047    26.875     8.500
    21   6 C        2.910    -0.050    29.236     8.866
    22   6 C        2.924    -0.033    28.821     8.804
    23   6 C        2.920    -0.040    29.006     8.832
    24   6 C        2.913    -0.032    28.810     8.801
    25   6 C        3.068    -0.017    28.354     8.731
    26   6 C        3.068    -0.016    28.350     8.731
    27   6 C        2.913    -0.033    28.812     8.802
    28   6 C        2.920    -0.041    29.007     8.832
    29   6 C        2.924    -0.033    28.828     8.805
    30   6 C        2.910    -0.051    29.266     8.871
    31   6 C        3.075     0.047    26.877     8.500
    32   6 C        2.922    -0.048    29.196     8.861
    33   1 H        0.926     0.041     2.431     2.438
    34   1 H        0.926     0.045     2.385     2.415
    35   1 H        0.926     0.024     2.666     2.553
    36   1 H        0.926     0.030     2.590     2.517
    37   1 H        0.926     0.029     2.607     2.525
    38   1 H        0.926     0.031     2.567     2.505
    39   1 H        0.926     0.031     2.566     2.505
    40   1 H        0.926     0.029     2.607     2.525
    41   1 H        0.926     0.029     2.596     2.519
    42   1 H        0.926     0.027     2.631     2.536
    43   1 H        0.926     0.050     2.320     2.382
    44   1 H        0.926     0.024     2.666     2.553
    45   1 H        0.926     0.030     2.590     2.517
    46   1 H        0.926     0.029     2.607     2.525
    47   1 H        0.926     0.031     2.567     2.505
    48   1 H        0.926     0.031     2.566     2.505
    49   1 H        0.926     0.029     2.607     2.525
    50   1 H        0.926     0.029     2.596     2.519
    51   1 H        0.926     0.027     2.631     2.536
    52   1 H        0.926     0.045     2.385     2.415

molecular dipole:
                 x           y           z       tot (Debye)
 q only:       -0.000      -0.291       0.293
   full:       -0.000      -0.354       0.353       1.271

 projected vibrational frequencies (cm⁻¹)
eigval :       -0.00    -0.00    -0.00     0.00     0.00     0.00
eigval :       16.73    24.88    30.38    51.33    67.46    87.39
eigval :      101.16   105.00   139.57   140.48   151.06   194.20
eigval :      201.11   246.34   249.18   269.77   272.15   272.33
eigval :      301.75   334.76   359.00   392.33   396.22   419.43
eigval :      421.46   422.31   427.39   435.58   440.36   512.58
eigval :      519.04   520.51   530.72   540.72   541.32   556.15
eigval :      572.61   588.14   593.48   609.81   619.25   645.74
eigval :      670.15   673.33   675.27   690.30   707.91   709.30
eigval :      747.87   757.25   765.64   766.57   769.46   778.90
eigval :      780.77   804.97   860.68   867.39   870.11   873.92
eigval :      893.16   895.64   898.75   899.41   900.58   903.11
eigval :      907.36   908.73   908.96   919.77   921.53   923.85
eigval :      923.97   933.37   997.28  1007.73  1012.70  1018.10
eigval :     1066.92  1070.74  1073.01  1074.57  1110.48  1119.57
eigval :     1127.36  1148.79  1153.31  1165.97  1175.79  1178.43
eigval :     1180.50  1181.68  1187.95  1200.25  1232.23  1234.31
eigval :     1237.10  1250.43  1253.78  1298.31  1300.72  1302.78
eigval :     1304.01  1316.54  1344.34  1358.14  1358.69  1360.32
eigval :     1363.30  1374.01  1419.66  1422.62  1427.33  1428.86
eigval :     1464.44  1472.71  1478.25  1480.21  1488.38  1488.65
eigval :     1570.40  1574.38  1577.32  1584.07  1589.83  1590.39
eigval :     1599.96  1600.47  1615.32  1616.43  3076.63  3076.69
eigval :     3077.60  3078.09  3081.84  3081.94  3083.75  3084.41
eigval :     3085.85  3088.99  3089.33  3092.09  3093.28  3096.09
eigval :     3096.46  3098.15  3098.20  3099.92  3100.10  3104.87

   temp. (K)  partition function   enthalpy   heat capacity  entropy
                                   cal/mol     cal/K/mol   cal/K/mol   J/K/mol
 298.15  VIB  0.975E+09            13140.295     89.773     78.516
         ROT  0.225E+08              888.752      2.981     36.621
         INT  0.219E+17            14029.047     92.754    115.137
         TR   0.799E+28             1481.254      4.968     43.893
         TOT                       15510.3012    97.7224   159.0298   665.3805

       T/K    H(0)-H(T)+PV         H(T)/Eh          T*S/Eh         G(T)/Eh
   ------------------------------------------------------------------------
    298.15    0.247172E-01    0.426229E+00    0.755602E-01    0.350669E+00
   ------------------------------------------------------------------------

         :::::::::::::::::::::::::::::::::::::::::::::::::::::
         ::                  THERMODYNAMIC                  ::
         :::::::::::::::::::::::::::::::::::::::::::::::::::::
         :: total free energy         -79.999306288979 Eh   ::
         ::.................................................::
         :: total energy              -80.349975103849 Eh   ::
         :: zero point energy           0.401511745520 Eh   ::
         :: G(RRHO) w/o ZPVE           -0.050842930651 Eh   ::
         :: G(RRHO) contrib.            0.350668814869 Eh   ::
         :::::::::::::::::::::::::::::::::::::::::::::::::::::

           -------------------------------------------------
          | TOTAL ENERGY              -80.349975103849 Eh   |
          | TOTAL ENTHALPY            -79.923746120029 Eh   |
          | TOTAL FREE ENERGY         -79.999306288979 Eh   |
          | GRADIENT NORM               0.000024706514 Eh/α |
          | HOMO-LUMO GAP               3.103097114787 eV   |
           -------------------------------------------------

 * finished run on 2025/07/16 at 19:15:14.820
