   * xtb version 6.7.1 (edcfbbe) compiled by 'albert@albert-system' on 2024-07-22

   ID    Z sym.   atoms
    1    6 C      1-9, 11-17, 19-25, 27-35, 37-44
    2    7 N      10, 18, 26, 36
    3    1 H      45-72

          program call               : xtb data2507/toluene/DMAC-PCN/DMAC-PCN_toluene_S0_finalOpt.xtbopt.xyz --gfn 2 --uhf 2 --gbsa toluene --ohess vtight --parallel 40 --molden --ceasefiles --namespace data2507/toluene/DMAC-PCN/DMAC-PCN_toluene_T1_preOpt
      * Solvation model:               GBSA
        Solvent                        toluene
        Solvent mass                       9.2140E+01 g/mol
          :  Hamiltonian                  GFN2-xTB          :
 * total energy  :  -111.5471001 Eh     change       -0.2887646E-10 Eh
 * total energy  :  -111.5498332 Eh     change       -0.2733117E-02 Eh
 * total energy  :  -111.5510644 Eh     change       -0.1231167E-02 Eh
 * total energy  :  -111.5514503 Eh     change       -0.3859255E-03 Eh
 * total energy  :  -111.5517296 Eh     change       -0.2793351E-03 Eh
 * total energy  :  -111.5518717 Eh     change       -0.1420897E-03 Eh
 * total energy  :  -111.5520295 Eh     change       -0.1577159E-03 Eh
 * total energy  :  -111.5522229 Eh     change       -0.1934874E-03 Eh
 * total energy  :  -111.5524461 Eh     change       -0.2231939E-03 Eh
 * total energy  :  -111.5526443 Eh     change       -0.1982167E-03 Eh
 * total energy  :  -111.5531911 Eh     change       -0.3427514E-06 Eh
 * total energy  :  -111.5531928 Eh     change       -0.1692432E-05 Eh
 * total energy  :  -111.5531939 Eh     change       -0.1134532E-05 Eh
 * total energy  :  -111.5531940 Eh     change       -0.1162828E-06 Eh
 * total energy  :  -111.5531945 Eh     change       -0.4747155E-06 Eh
 * total energy  :  -111.5531947 Eh     change       -0.1489176E-06 Eh
 * total energy  :  -111.5531948 Eh     change       -0.1731772E-06 Eh
 * total energy  :  -111.5531950 Eh     change       -0.2156606E-06 Eh
 * total energy  :  -111.5531950 Eh     change       -0.5961184E-08 Eh
   *** GEOMETRY OPTIMIZATION CONVERGED AFTER 33 ITERATIONS ***

 final structure:
================
72
 xtb: 6.7.1 (edcfbbe)
C           -7.59323983446843       -0.33454588799059        1.20232393914110
C           -6.70702739183030        0.01472642406884       -0.01129735815381
C           -7.59016410196624        0.36960446923164       -1.22552354549379
C           -5.86727785657457       -1.19259959226242       -0.36065259881323
C           -6.48380096342530       -2.38702598041995       -0.70865937998226
C           -5.75585596389573       -3.51541740988076       -1.04015592901800
C           -4.36743050006397       -3.46587828907981       -1.03446297072819
C           -3.72603557688063       -2.29745530530990       -0.69534141302495
C           -4.46083518328757       -1.15086413166393       -0.34927840382157
N           -3.79544626316384        0.00517770259606       -0.00935253927558
C           -2.36876955441147        0.00017885151551       -0.00747318673777
C           -1.67512960242037        0.45425182180155       -1.12188930280852
C           -0.29379683796291        0.45150987294419       -1.11523760709459
C            0.40311899399181       -0.01005650787826       -0.00372475166389
C            1.88064559011436       -0.01586444273182       -0.00210991483822
C            2.55688284366575       -1.23338334215933        0.10369383267286
C            1.80990079592898       -2.40222009545423        0.02032433977770
N            1.10926434070551       -3.31877866019661       -0.07898780513415
C            4.01224909992247       -1.19186490100334        0.15343673044515
C            4.85621109869515       -2.35191035201577        0.32391509507966
C            4.39893286045237       -3.55037642576662        0.88730841106869
C            5.25517323686343       -4.61955270789702        1.05714619332153
C            6.58445245132208       -4.52769268735338        0.67299431758702
C            7.05521602820182       -3.34253252645302        0.12201207539224
C            6.20879297047020       -2.27079357486636       -0.04949529287195
N            4.60060376104562       -0.02690426522801        0.00010038567479
C            4.02198781002457        1.14282171627285       -0.15430044191808
C            4.87581013954891        2.29571762057773       -0.32413694047672
C            4.42946332300780        3.49775381807489       -0.88870344197012
C            5.29512597198436        4.55934575744822       -1.05838174641571
C            6.62319034447293        4.45622729912980       -0.67291535061748
C            7.08311505318312        3.26743524640827       -0.12060779250389
C            6.22725744024244        2.20321111559823        0.05075648080970
C            2.56692138521140        1.19611660534667       -0.10695749044318
C            1.82923930952193        2.37098963929323       -0.02556603556992
N            1.13690787224419        3.29405179249511        0.07213005760533
C           -0.30018909796588       -0.46634478159466        1.10595986488924
C           -1.68149652381912       -0.45884017341185        1.10887127488623
C           -4.45368189893401        1.16570015306181        0.32921894938570
C           -3.71180271336202        2.30756255558519        0.67582687291707
C           -4.34595729976562        3.48026820787517        1.01378382755489
C           -5.73403367123261        3.53887295199084        1.01771037043042
C           -6.46896002881947        2.41519672640151        0.68560716367414
C           -5.85984084288401        1.21667150868772        0.33866356635671
H           -6.97037658225802       -0.58597660869229        2.05837815022620
H           -8.23132132887399       -1.18379239801063        0.97926878231926
H           -8.22488016414539        0.50639702298136        1.47061975357450
H           -8.22301579590147        1.22287759807530       -1.00294026438791
H           -6.96510116875437        0.61705604423349       -2.08112711193322
H           -8.22692878649429       -0.46731366382249       -1.49426883711139
H           -7.56037945935591       -2.44462052359520       -0.72333622141074
H           -6.26577507781981       -4.42880639286573       -1.30453953883118
H           -3.78600792826635       -4.33669231384732       -1.29475403904425
H           -2.64826888024355       -2.26173454776589       -0.69442234938175
H           -2.21635114747036        0.80781850898737       -1.98632167366184
H            0.24990195119554        0.80134817271741       -1.98026659503627
H            3.37247956580434       -3.63785497026893        1.20911984478349
H            4.88147310225388       -5.53360443974323        1.49640773711336
H            7.24823296590156       -5.36923611340733        0.80407406356979
H            8.09096276452162       -3.25995310164167       -0.17562209902590
H            6.56730760673620       -1.34781200605623       -0.48096963694363
H            3.40411107183510        3.59394347987786       -1.21149511635097
H            4.92975544081500        5.47630900942857       -1.49860019939932
H            7.29448128940493        5.29176919942107       -0.80405734143135
H            8.11782829379860        3.17607675802041        0.17801912630396
H            6.57732579292125        1.27744959487843        0.48317645607203
H            0.23857202871571       -0.82024956314705        1.97242483231236
H           -2.22767868281926       -0.80832226637712        1.97183260504046
H           -2.63428366234432        2.26476825584046        0.67619895921079
H           -3.75921687378332        4.34736679266921        1.27454798545146
H           -6.23830558604256        4.45563719108667        1.28121710041540
H           -7.54515343527618        2.47989452835604        0.69899260419818

          :  Hamiltonian                  GFN2-xTB          :
         :: gradient norm              0.000194015680 Eh/a0 ::
         :: HOMO-LUMO gap              0.382679810863 eV    ::
         :: SCC energy              -113.665477278012 Eh    ::
         :: -> dispersion             -0.101488705042 Eh    ::
         :: -> Gsolv                  -0.063723600335 Eh    ::
         :: repulsion energy           2.112282229118 Eh    ::

    * Orbital Energies and Occupations

         #    Occupation            Energy/Eh            Energy/eV
      -------------------------------------------------------------
         1        2.0000           -0.7013165             -19.0838
       ...           ...                  ...                  ...
        93        2.0000           -0.4225964             -11.4994
        94        2.0000           -0.4198782             -11.4255
        95        2.0000           -0.4196237             -11.4185
        96        2.0000           -0.4167846             -11.3413
        97        2.0000           -0.4164487             -11.3321
        98        2.0000           -0.4105860             -11.1726
        99        2.0000           -0.4031810             -10.9711
       100        2.0000           -0.4030425             -10.9673
       101        2.0000           -0.3993193             -10.8660
       102        1.9947           -0.3810661             -10.3693
       103        1.6101           -0.3765255             -10.2458
       104        1.3953           -0.3756962             -10.2232
       105        0.9994           -0.2898770              -7.8880 (HOMO)
       106        0.0006           -0.2758137              -7.5053 (LUMO)
       107                         -0.2532487              -6.8912
       108                         -0.2509013              -6.8274
       109                         -0.2507600              -6.8235
       110                         -0.2427925              -6.6067
       111                         -0.2418555              -6.5812
       112                         -0.2344214              -6.3789
       113                         -0.2199947              -5.9864
       114                         -0.2198695              -5.9830
       115                         -0.2177909              -5.9264
       116                         -0.2054739              -5.5912
       ...                                ...                  ...
       204                          1.1537658              31.3956
      -------------------------------------------------------------
                  HL-Gap            0.0140633 Eh            0.3827 eV

     #   Z          covCN         q      C6AA      α(0)
     1   6 C        3.761    -0.111    22.660     6.786
     2   6 C        3.909     0.026    20.076     6.369
     3   6 C        3.761    -0.111    22.660     6.786
     4   6 C        2.978     0.006    27.891     8.663
     5   6 C        2.924    -0.029    28.732     8.790
     6   6 C        2.917    -0.023    28.589     8.768
     7   6 C        2.917    -0.022    28.560     8.763
     8   6 C        2.921    -0.042    29.052     8.839
     9   6 C        2.930     0.061    26.623     8.462
    10   7 N        2.755     0.002    21.224     6.842
    11   6 C        2.933     0.059    26.670     8.469
    12   6 C        2.920    -0.033    28.818     8.803
    13   6 C        2.925    -0.024    28.606     8.771
    14   6 C        2.981     0.014    27.698     8.633
    15   6 C        3.007     0.026    27.408     8.588
    16   6 C        2.965    -0.038    28.930     8.822
    17   6 C        1.913     0.108    28.427     8.611
    18   7 N        0.911    -0.343    28.816     7.764
    19   6 C        2.922     0.071    26.408     8.427
    20   6 C        2.978    -0.001    28.051     8.688
    21   6 C        2.921    -0.040    28.990     8.829
    22   6 C        2.917    -0.031    28.766     8.795
    23   6 C        2.919    -0.036    28.887     8.814
    24   6 C        2.916    -0.031    28.778     8.797
    25   6 C        2.926    -0.035    28.864     8.811
    26   7 N        1.860    -0.201    26.193     7.586
    27   6 C        2.922     0.071    26.408     8.427
    28   6 C        2.978    -0.001    28.051     8.688
    29   6 C        2.921    -0.040    28.990     8.830
    30   6 C        2.917    -0.031    28.766     8.795
    31   6 C        2.919    -0.036    28.887     8.814
    32   6 C        2.916    -0.031    28.778     8.797
    33   6 C        2.926    -0.035    28.865     8.811
    34   6 C        2.965    -0.038    28.930     8.822
    35   6 C        1.913     0.108    28.427     8.611
    36   7 N        0.911    -0.343    28.816     7.764
    37   6 C        2.925    -0.024    28.606     8.771
    38   6 C        2.920    -0.033    28.818     8.803
    39   6 C        2.930     0.061    26.623     8.462
    40   6 C        2.921    -0.042    29.052     8.839
    41   6 C        2.917    -0.022    28.560     8.763
    42   6 C        2.917    -0.023    28.589     8.768
    43   6 C        2.924    -0.029    28.732     8.790
    44   6 C        2.978     0.006    27.891     8.663
    45   1 H        0.925     0.042     2.429     2.437
    46   1 H        0.925     0.058     2.222     2.331
    47   1 H        0.925     0.058     2.223     2.331
    48   1 H        0.925     0.058     2.222     2.331
    49   1 H        0.925     0.042     2.429     2.437
    50   1 H        0.925     0.058     2.223     2.331
    51   1 H        0.926     0.061     2.184     2.311
    52   1 H        0.926     0.054     2.266     2.354
    53   1 H        0.926     0.051     2.311     2.377
    54   1 H        0.926     0.045     2.380     2.412
    55   1 H        0.926     0.060     2.203     2.321
    56   1 H        0.926     0.043     2.409     2.427
    57   1 H        0.926     0.025     2.661     2.551
    58   1 H        0.926     0.030     2.589     2.516
    59   1 H        0.926     0.032     2.556     2.500
    60   1 H        0.926     0.033     2.545     2.495
    61   1 H        0.926     0.037     2.490     2.467
    62   1 H        0.926     0.025     2.661     2.551
    63   1 H        0.926     0.030     2.589     2.516
    64   1 H        0.926     0.032     2.556     2.500
    65   1 H        0.926     0.033     2.545     2.495
    66   1 H        0.926     0.037     2.490     2.467
    67   1 H        0.926     0.043     2.409     2.427
    68   1 H        0.926     0.060     2.203     2.321
    69   1 H        0.926     0.045     2.380     2.412
    70   1 H        0.926     0.051     2.311     2.377
    71   1 H        0.926     0.054     2.266     2.354
    72   1 H        0.926     0.061     2.184     2.311

molecular dipole:
                 x           y           z       tot (Debye)
 q only:       -7.347       0.026      -0.008
   full:       -6.827       0.023      -0.007      17.354

 projected vibrational frequencies (cm⁻¹)
eigval :       -0.00    -0.00    -0.00    -0.00     0.00     0.00
eigval :        4.72    13.95    17.71    26.16    27.94    38.46
eigval :       41.08    46.51    48.90    61.40    64.15    66.40
eigval :       88.95    95.55   108.51   110.96   129.44   135.54
eigval :      142.66   154.76   167.95   195.24   201.34   206.15
eigval :      213.95   230.10   232.92   236.46   250.42   266.53
eigval :      284.30   291.04   303.10   322.45   327.69   336.28
eigval :      355.32   368.95   369.34   370.05   375.10   395.48
eigval :      396.94   398.26   404.33   418.96   444.75   447.63
eigval :      456.74   457.53   494.64   503.47   504.39   521.40
eigval :      535.93   537.71   541.04   567.96   570.73   579.79
eigval :      579.88   584.62   588.77   592.69   610.84   630.75
eigval :      639.33   639.48   652.41   655.75   665.78   668.20
eigval :      688.61   702.70   704.00   729.27   749.28   749.91
eigval :      768.42   771.03   775.81   814.02   817.18   827.26
eigval :      858.64   861.54   863.81   870.38   870.62   882.25
eigval :      883.64   902.74   913.61   916.37   916.42   916.61
eigval :      917.54   922.10   922.61   923.50   923.78   926.09
eigval :      927.43   935.81   951.71   958.50   959.91  1004.96
eigval :     1006.71  1011.14  1042.72  1070.29  1078.07  1079.59
eigval :     1082.66  1102.55  1106.66  1119.46  1120.13  1130.20
eigval :     1137.24  1137.83  1163.05  1163.56  1172.45  1175.11
eigval :     1175.38  1179.38  1181.05  1183.12  1200.65  1204.68
eigval :     1205.98  1229.89  1238.31  1244.41  1255.73  1260.81
eigval :     1263.78  1278.53  1279.84  1290.21  1304.96  1307.89
eigval :     1310.94  1313.04  1326.32  1328.34  1331.71  1335.82
eigval :     1352.23  1373.33  1394.52  1395.60  1404.84  1407.95
eigval :     1412.78  1413.27  1424.16  1427.04  1430.12  1447.82
eigval :     1460.16  1466.14  1469.79  1476.74  1479.76  1481.00
eigval :     1487.92  1493.52  1539.58  1548.39  1548.48  1551.83
eigval :     1561.25  1571.48  1577.05  1578.94  1582.80  1590.17
eigval :     2237.52  2287.66  3032.37  3034.01  3054.81  3056.85
eigval :     3061.13  3065.03  3067.02  3067.28  3068.58  3068.78
eigval :     3081.85  3082.62  3085.01  3086.69  3088.11  3088.24
eigval :     3091.00  3091.48  3097.53  3098.46  3098.64  3099.09
eigval :     3102.11  3102.52  3107.38  3107.62  3114.44  3114.75

   temp. (K)  partition function   enthalpy   heat capacity  entropy
                                   cal/mol     cal/K/mol   cal/K/mol   J/K/mol
 298.15  VIB  0.495E+18            21964.912    134.629    138.172
         ROT  0.350E+08              888.752      2.981     37.504
         INT  0.174E+26            22853.664    137.609    175.675
         TR   0.130E+29             1481.254      4.968     44.858
         TOT                       24334.9184   142.5776   220.5329   922.7095

       T/K    H(0)-H(T)+PV         H(T)/Eh          T*S/Eh         G(T)/Eh
   ------------------------------------------------------------------------
    298.15    0.387802E-01    0.586361E+00    0.104782E+00    0.481579E+00
   ------------------------------------------------------------------------

         :::::::::::::::::::::::::::::::::::::::::::::::::::::
         ::                  THERMODYNAMIC                  ::
         :::::::::::::::::::::::::::::::::::::::::::::::::::::
         :: total free energy        -111.071616515334 Eh   ::
         ::.................................................::
         :: total energy             -111.553195045885 Eh   ::
         :: zero point energy           0.547580654548 Eh   ::
         :: G(RRHO) w/o ZPVE           -0.066002123998 Eh   ::
         :: G(RRHO) contrib.            0.481578530551 Eh   ::
         :::::::::::::::::::::::::::::::::::::::::::::::::::::

           -------------------------------------------------
          | TOTAL ENERGY             -111.553195045885 Eh   |
          | TOTAL ENTHALPY           -110.966834230415 Eh   |
          | TOTAL FREE ENERGY        -111.071616515334 Eh   |
          | GRADIENT NORM               0.000196068878 Eh/α |
          | HOMO-LUMO GAP               0.382680960137 eV   |
           -------------------------------------------------

 * finished run on 2025/08/25 at 02:50:21.490
