   * xtb version 6.7.1 (edcfbbe) compiled by 'albert@albert-system' on 2024-07-22

   ID    Z sym.   atoms
    1    6 C      1-9, 11-17, 19-25, 27-35, 37-44
    2    7 N      10, 18, 26, 36
    3    1 H      45-72

          program call               : xtb data2507/toluene/DMAC-PCN/DMAC-PCN_toluene_T1_crest.xyz --gfn 2 --uhf 2 --gbsa toluene --ohess vtight --parallel 40 --molden --ceasefiles --namespace data2507/toluene/DMAC-PCN/DMAC-PCN_toluene_T1_finalOpt
      * Solvation model:               GBSA
        Solvent                        toluene
        Solvent mass                       9.2140E+01 g/mol
          :  Hamiltonian                  GFN2-xTB          :
 * total energy  :  -111.5527532 Eh     change       -0.1833129E-08 Eh
 * total energy  :  -111.5528336 Eh     change       -0.8046375E-04 Eh
 * total energy  :  -111.5530400 Eh     change       -0.2063492E-03 Eh
 * total energy  :  -111.5530694 Eh     change       -0.2944110E-04 Eh
 * total energy  :  -111.5530625 Eh     change        0.6917482E-05 Eh
 * total energy  :  -111.5530987 Eh     change       -0.3623249E-04 Eh
 * total energy  :  -111.5531145 Eh     change       -0.1576627E-04 Eh
 * total energy  :  -111.5531269 Eh     change       -0.1240305E-04 Eh
 * total energy  :  -111.5531312 Eh     change       -0.4303140E-05 Eh
 * total energy  :  -111.5531388 Eh     change       -0.7559239E-05 Eh
 * total energy  :  -111.5531690 Eh     change       -0.4592111E-06 Eh
 * total energy  :  -111.5531695 Eh     change       -0.5166786E-06 Eh
 * total energy  :  -111.5531700 Eh     change       -0.4831442E-06 Eh
 * total energy  :  -111.5531704 Eh     change       -0.4140822E-06 Eh
 * total energy  :  -111.5531707 Eh     change       -0.3296891E-06 Eh
 * total energy  :  -111.5531710 Eh     change       -0.2780351E-06 Eh
 * total energy  :  -111.5531713 Eh     change       -0.2447061E-06 Eh
 * total energy  :  -111.5531712 Eh     change        0.4218606E-08 Eh
 * total energy  :  -111.5531713 Eh     change       -0.9847653E-07 Eh
   *** GEOMETRY OPTIMIZATION CONVERGED AFTER 45 ITERATIONS ***

 final structure:
================
72
 xtb: 6.7.1 (edcfbbe)
C           -7.58146806040406        0.28815330756313        1.23578563572260
C           -6.69454343338380        0.00553375109111        0.00548622900794
C           -7.57702400233576       -0.27623921480470       -1.22823512984576
C           -5.85214093383117       -1.21734252600132        0.28737064951121
C           -6.46649893330201       -2.43078534611244        0.56661279862171
C           -5.73665029563912       -3.57352509994012        0.83940917320319
C           -4.34842235914425       -3.51938457416155        0.84390464009113
C           -3.70922333516570       -2.33266526945051        0.57061227723460
C           -4.44578807008653       -1.17128783847570        0.28244648839249
N           -3.78239546539821        0.00346162328253        0.00815823945818
C           -2.35587993456566        0.00180105651037        0.00705617676753
C           -1.66690304404010       -0.42590753547369       -1.12063640905096
C           -0.28549486161144       -0.43091164726764       -1.11707437991982
C            0.41577265265092       -0.00177684161336        0.00418391411988
C            1.89423709328545       -0.00404293448704        0.00245710848687
C            2.57173932483830       -1.22344772345427       -0.06032063364449
C            1.81807890740521       -2.38618729970824        0.04611129364842
N            1.10721098237895       -3.29335381585019        0.15870711920995
C            4.02727024609088       -1.18146871211848       -0.10046219420189
C            4.87611827686990       -2.34625676485611       -0.20133642006380
C            4.42655121518529       -3.57805631021744       -0.69441812234149
C            5.28637599740244       -4.65357257181571       -0.79090186867206
C            6.61200235035723       -4.53512073840956       -0.40179595149925
C            7.07580416158640       -3.31674205273296        0.07796121500335
C            6.22562476841369       -2.23876070223074        0.17650742180981
N            4.61183452076861       -0.00859985493932       -0.00212055419306
C            4.03150751786631        1.16617877893996        0.09834670455915
C            4.88457062230588        2.32818271312003        0.19594745969772
C            4.44115735690462        3.56125722408488        0.69139997383040
C            5.30487438420253        4.63396516801015        0.78433644548609
C            6.62835463859856        4.51135866644113        0.38925297796251
C            7.08613110109679        3.29160945556867       -0.09280449802033
C            6.23203544791839        2.21641776691695       -0.18787095102840
C            2.57599008072223        1.21305699342354        0.06328980123986
C            1.82609997676938        2.37844923687457       -0.04051711259812
N            1.11824687910394        3.28828856320886       -0.15037741269112
C           -0.28203790040638        0.42921145792111        1.12686632387539
C           -1.66348413144054        0.42777853721581        1.13330263301042
C           -4.44359812352517        1.17939399429085       -0.26634571541870
C           -3.70487156413054        2.33987805464281       -0.55256687622202
C           -4.34188529360271        3.52768860405162       -0.82621305339755
C           -5.73003761845445        3.58380025994044       -0.82420658527064
C           -6.46200231534983        2.44195993942853       -0.55333016080920
C           -5.84987904632860        1.22751069299280       -0.27354106234682
H           -6.95916914426204        0.49476595673228        2.10416573854027
H           -8.21178783057197       -0.56680759734311        1.45907448764739
H           -8.22093507845021        1.14695134487452        1.05784182413833
H           -8.21749479350760       -1.13484378946408       -1.05295952262283
H           -8.20605201711974        0.57915088997246       -1.45355053686437
H           -6.95157987422219       -0.48282016073498       -2.09436197673238
H           -7.54295475351833       -2.49201893611128        0.57333365074881
H           -6.24490436622273       -4.50138245300707        1.05138190287355
H           -3.76529579170895       -4.40087064957519        1.06083712032640
H           -2.63171293075557       -2.29376984653482        0.57841053131721
H           -2.21198682033530       -0.75287536853411       -1.99310826622017
H            0.25499892549834       -0.76199396830802       -1.99149904759968
H            3.40316044142759       -3.68795847946664       -1.01850791525678
H            4.91801253566761       -5.59371418275799       -1.17620399158641
H            7.27826940776252       -5.38177665212303       -0.47424500952951
H            8.10890340139467       -3.21319483829037        0.37815279836744
H            6.57859707397633       -1.29039368685557        0.55418440166522
H            3.41957968694058        3.67432776569236        1.02011214240944
H            4.94128873613131        5.57516400637770        1.17156990085690
H            7.29768619602159        5.35582523572281        0.45891152267583
H            8.11755830233358        3.18484342281930       -0.39756844815978
H            6.58024801872008        1.26704176727794       -0.56741120809352
H            0.26113131202872        0.75882847234140        2.00018506747305
H           -2.20589630727265        0.75616665524107        2.00690756515813
H           -2.62741213747404        2.29943467374938       -0.55858363842550
H           -3.75711263474213        4.40846777175144       -1.04158708357913
H           -6.23658603640979        4.51247863447397       -1.03664999839852
H           -7.53835679491095        2.50468492018110       -0.56220442764351

          :  Hamiltonian                  GFN2-xTB          :
         :: gradient norm              0.000095311417 Eh/a0 ::
         :: HOMO-LUMO gap              0.416493654109 eV    ::
         :: SCC energy              -113.665625370959 Eh    ::
         :: -> dispersion             -0.101521371363 Eh    ::
         :: -> Gsolv                  -0.063629667818 Eh    ::
         :: repulsion energy           2.112454024826 Eh    ::

    * Orbital Energies and Occupations

         #    Occupation            Energy/Eh            Energy/eV
      -------------------------------------------------------------
         1        2.0000           -0.7012154             -19.0810
       ...           ...                  ...                  ...
        93        2.0000           -0.4224733             -11.4961
        94        2.0000           -0.4204180             -11.4402
        95        2.0000           -0.4196182             -11.4184
        96        2.0000           -0.4167159             -11.3394
        97        2.0000           -0.4163319             -11.3290
        98        2.0000           -0.4109672             -11.1830
        99        2.0000           -0.4031232             -10.9695
       100        2.0000           -0.4029873             -10.9658
       101        2.0000           -0.3993296             -10.8663
       102        1.9955           -0.3811423             -10.3714
       103        1.6100           -0.3764380             -10.2434
       104        1.3945           -0.3756064             -10.2208
       105        0.9997           -0.2899777              -7.8907 (HOMO)
       106        0.0003           -0.2746718              -7.4742 (LUMO)
       107                         -0.2531506              -6.8886
       108                         -0.2512804              -6.8377
       109                         -0.2506987              -6.8219
       110                         -0.2426785              -6.6036
       111                         -0.2417330              -6.5779
       112                         -0.2354009              -6.4056
       113                         -0.2199506              -5.9852
       114                         -0.2198172              -5.9815
       115                         -0.2176564              -5.9227
       116                         -0.2057861              -5.5997
       ...                                ...                  ...
       204                          1.1531675              31.3793
      -------------------------------------------------------------
                  HL-Gap            0.0153059 Eh            0.4165 eV

     #   Z          covCN         q      C6AA      α(0)
     1   6 C        3.761    -0.111    22.660     6.786
     2   6 C        3.909     0.026    20.077     6.369
     3   6 C        3.761    -0.111    22.659     6.786
     4   6 C        2.978     0.006    27.891     8.663
     5   6 C        2.924    -0.029    28.733     8.790
     6   6 C        2.917    -0.023    28.588     8.768
     7   6 C        2.917    -0.022    28.559     8.763
     8   6 C        2.921    -0.042    29.052     8.839
     9   6 C        2.930     0.061    26.624     8.462
    10   7 N        2.755     0.002    21.222     6.842
    11   6 C        2.933     0.059    26.670     8.470
    12   6 C        2.920    -0.033    28.816     8.803
    13   6 C        2.925    -0.024    28.611     8.772
    14   6 C        2.981     0.014    27.690     8.632
    15   6 C        3.009     0.026    27.400     8.587
    16   6 C        2.965    -0.037    28.929     8.822
    17   6 C        1.914     0.108    28.426     8.610
    18   7 N        0.911    -0.343    28.823     7.765
    19   6 C        2.922     0.071    26.410     8.427
    20   6 C        2.978    -0.001    28.052     8.688
    21   6 C        2.921    -0.040    28.997     8.831
    22   6 C        2.917    -0.031    28.766     8.795
    23   6 C        2.919    -0.036    28.888     8.814
    24   6 C        2.916    -0.031    28.779     8.797
    25   6 C        2.926    -0.035    28.865     8.811
    26   7 N        1.860    -0.201    26.185     7.585
    27   6 C        2.922     0.071    26.410     8.427
    28   6 C        2.978    -0.001    28.052     8.688
    29   6 C        2.921    -0.040    28.997     8.831
    30   6 C        2.917    -0.031    28.766     8.795
    31   6 C        2.919    -0.036    28.888     8.814
    32   6 C        2.916    -0.031    28.779     8.797
    33   6 C        2.926    -0.035    28.865     8.811
    34   6 C        2.965    -0.037    28.929     8.822
    35   6 C        1.914     0.108    28.426     8.610
    36   7 N        0.911    -0.343    28.822     7.765
    37   6 C        2.925    -0.024    28.612     8.772
    38   6 C        2.920    -0.033    28.816     8.803
    39   6 C        2.930     0.061    26.624     8.462
    40   6 C        2.921    -0.042    29.052     8.839
    41   6 C        2.917    -0.022    28.560     8.763
    42   6 C        2.917    -0.023    28.588     8.768
    43   6 C        2.924    -0.029    28.733     8.790
    44   6 C        2.978     0.006    27.891     8.663
    45   1 H        0.925     0.042     2.429     2.437
    46   1 H        0.925     0.058     2.223     2.332
    47   1 H        0.925     0.058     2.221     2.331
    48   1 H        0.925     0.058     2.221     2.331
    49   1 H        0.925     0.058     2.223     2.332
    50   1 H        0.925     0.041     2.429     2.437
    51   1 H        0.926     0.061     2.184     2.311
    52   1 H        0.926     0.054     2.266     2.354
    53   1 H        0.926     0.051     2.310     2.377
    54   1 H        0.926     0.046     2.376     2.410
    55   1 H        0.926     0.060     2.202     2.321
    56   1 H        0.926     0.043     2.410     2.428
    57   1 H        0.926     0.025     2.657     2.549
    58   1 H        0.926     0.030     2.591     2.517
    59   1 H        0.926     0.032     2.557     2.501
    60   1 H        0.926     0.033     2.545     2.495
    61   1 H        0.926     0.037     2.489     2.467
    62   1 H        0.926     0.025     2.657     2.549
    63   1 H        0.926     0.030     2.591     2.517
    64   1 H        0.926     0.032     2.557     2.501
    65   1 H        0.926     0.033     2.545     2.495
    66   1 H        0.926     0.037     2.489     2.467
    67   1 H        0.926     0.043     2.410     2.428
    68   1 H        0.926     0.060     2.202     2.320
    69   1 H        0.926     0.046     2.376     2.410
    70   1 H        0.926     0.051     2.310     2.377
    71   1 H        0.926     0.054     2.266     2.354
    72   1 H        0.926     0.061     2.184     2.311

molecular dipole:
                 x           y           z       tot (Debye)
 q only:       -7.331       0.009       0.004
   full:       -6.803       0.008       0.003      17.293

 projected vibrational frequencies (cm⁻¹)
eigval :       -0.00    -0.00    -0.00     0.00     0.00     0.00
eigval :        4.75    16.01    20.34    29.04    29.11    32.44
eigval :       37.98    43.62    50.10    62.68    65.09    69.17
eigval :       93.90   100.74   111.39   114.26   125.34   129.98
eigval :      136.65   155.76   166.93   193.31   197.28   203.56
eigval :      217.06   229.48   232.62   237.82   251.32   266.37
eigval :      284.80   288.49   301.74   324.13   327.17   338.83
eigval :      355.63   368.75   371.02   372.57   375.27   395.81
eigval :      397.92   398.56   403.61   418.18   447.18   447.53
eigval :      458.20   460.42   496.22   501.52   505.50   522.21
eigval :      536.10   539.08   540.82   568.95   570.89   579.95
eigval :      581.09   584.63   589.23   592.62   611.58   631.35
eigval :      639.68   639.88   653.03   655.82   666.04   668.34
eigval :      689.42   702.35   704.44   729.29   747.06   749.98
eigval :      773.86   775.45   776.11   816.15   817.39   827.91
eigval :      854.00   862.05   862.32   874.66   874.90   878.95
eigval :      882.47   904.79   913.93   916.38   919.16   919.20
eigval :      919.48   921.53   924.85   926.79   928.29   928.30
eigval :      928.69   936.18   951.57   959.75   960.08  1005.54
eigval :     1006.91  1011.97  1043.50  1070.76  1078.21  1079.74
eigval :     1083.25  1102.68  1106.62  1119.25  1119.72  1132.13
eigval :     1137.27  1137.97  1163.67  1165.64  1172.79  1174.75
eigval :     1175.06  1179.20  1180.43  1184.36  1200.50  1204.80
eigval :     1207.26  1230.28  1238.43  1245.64  1255.95  1263.15
eigval :     1263.57  1278.15  1279.33  1290.24  1304.88  1307.70
eigval :     1310.36  1316.80  1326.33  1328.40  1332.67  1335.95
eigval :     1353.79  1373.68  1395.35  1396.35  1405.53  1407.85
eigval :     1412.52  1413.84  1424.15  1427.06  1430.18  1447.53
eigval :     1460.68  1466.44  1469.85  1476.99  1477.74  1482.28
eigval :     1488.45  1491.56  1539.69  1548.75  1548.86  1551.92
eigval :     1561.86  1571.52  1577.68  1579.47  1582.90  1590.93
eigval :     2238.04  2287.68  3032.55  3034.33  3055.30  3057.40
eigval :     3061.58  3065.58  3067.08  3067.29  3069.17  3069.22
eigval :     3082.26  3082.89  3084.90  3086.59  3088.33  3088.41
eigval :     3091.23  3091.27  3097.39  3098.71  3098.88  3099.05
eigval :     3103.10  3103.69  3107.63  3107.89  3116.77  3117.10

   temp. (K)  partition function   enthalpy   heat capacity  entropy
                                   cal/mol     cal/K/mol   cal/K/mol   J/K/mol
 298.15  VIB  0.386E+18            21947.778    134.467    137.711
         ROT  0.350E+08              888.752      2.981     37.502
         INT  0.135E+26            22836.531    137.448    175.213
         TR   0.130E+29             1481.254      4.968     44.858
         TOT                       24317.7847   142.4161   220.0706   920.7754

       T/K    H(0)-H(T)+PV         H(T)/Eh          T*S/Eh         G(T)/Eh
   ------------------------------------------------------------------------
    298.15    0.387529E-01    0.586540E+00    0.104563E+00    0.481977E+00
   ------------------------------------------------------------------------

         :::::::::::::::::::::::::::::::::::::::::::::::::::::
         ::                  THERMODYNAMIC                  ::
         :::::::::::::::::::::::::::::::::::::::::::::::::::::
         :: total free energy        -111.071194206592 Eh   ::
         ::.................................................::
         :: total energy             -111.553171346529 Eh   ::
         :: zero point energy           0.547786925323 Eh   ::
         :: G(RRHO) w/o ZPVE           -0.065809785387 Eh   ::
         :: G(RRHO) contrib.            0.481977139936 Eh   ::
         :::::::::::::::::::::::::::::::::::::::::::::::::::::

           -------------------------------------------------
          | TOTAL ENERGY             -111.553171346529 Eh   |
          | TOTAL ENTHALPY           -110.966631564600 Eh   |
          | TOTAL FREE ENERGY        -111.071194206592 Eh   |
          | GRADIENT NORM               0.000097048674 Eh/α |
          | HOMO-LUMO GAP               0.416494284464 eV   |
           -------------------------------------------------

 * finished run on 2025/08/25 at 02:55:54.054
