   * xtb version 6.7.1 (edcfbbe) compiled by 'albert@albert-system' on 2024-07-22

   ID    Z sym.   atoms
    1    6 C      1-9, 11-17, 19-25, 27-35, 37-44
    2    7 N      10, 18, 26, 36
    3    1 H      45-72

          program call               : xtb data2507/toluene/DMAC-PCN/DMAC-PCN_toluene_S0_crest.xyz --gfn 2 --gbsa toluene --ohess vtight --parallel 40 --molden --ceasefiles --namespace data2507/toluene/DMAC-PCN/DMAC-PCN_toluene_S0_finalOpt
      * Solvation model:               GBSA
        Solvent                        toluene
        Solvent mass                       9.2140E+01 g/mol
          :  Hamiltonian                  GFN2-xTB          :
 * total energy  :  -111.6237344 Eh     change       -0.1917201E-08 Eh
 * total energy  :  -111.6237858 Eh     change       -0.5143703E-04 Eh
 * total energy  :  -111.6238136 Eh     change       -0.2771678E-04 Eh
 * total energy  :  -111.6238343 Eh     change       -0.2078268E-04 Eh
 * total energy  :  -111.6238488 Eh     change       -0.1449157E-04 Eh
 * total energy  :  -111.6238377 Eh     change        0.1115237E-04 Eh
 * total energy  :  -111.6238542 Eh     change       -0.1648084E-04 Eh
 * total energy  :  -111.6238593 Eh     change       -0.5135746E-05 Eh
 * total energy  :  -111.6238683 Eh     change       -0.9002057E-05 Eh
 * total energy  :  -111.6238763 Eh     change       -0.7953615E-05 Eh
 * total energy  :  -111.6240421 Eh     change       -0.5639415E-06 Eh
 * total energy  :  -111.6240427 Eh     change       -0.5752485E-06 Eh
 * total energy  :  -111.6240433 Eh     change       -0.6322407E-06 Eh
 * total energy  :  -111.6240440 Eh     change       -0.7229563E-06 Eh
 * total energy  :  -111.6240449 Eh     change       -0.8307618E-06 Eh
 * total energy  :  -111.6240458 Eh     change       -0.9276109E-06 Eh
 * total energy  :  -111.6240468 Eh     change       -0.9809007E-06 Eh
 * total energy  :  -111.6240477 Eh     change       -0.9814563E-06 Eh
 * total energy  :  -111.6240478 Eh     change       -0.3473744E-08 Eh
   *** GEOMETRY OPTIMIZATION CONVERGED AFTER 94 ITERATIONS ***

 final structure:
================
72
 xtb: 6.7.1 (edcfbbe)
C           -7.57486682535309       -0.30278954734039        1.20966707919609
C           -6.69164750805615        0.01487908943854       -0.01178776803797
C           -7.57025273840314        0.33847197578162       -1.23501887054976
C           -5.84559527445841       -1.20317135145534       -0.33172030224387
C           -6.47100001344929       -2.40073335428848       -0.65315245003143
C           -5.75766550447910       -3.53886971317708       -0.98099535867655
C           -4.37581710444551       -3.48368548533060       -1.01004355329093
C           -3.72884591229670       -2.30706906870264       -0.69432374259153
C           -4.44728629957161       -1.16323484387674       -0.33239558030127
N           -3.76809898013876        0.00507222356986       -0.00859742829075
C           -2.35179038726587        0.00015072296047       -0.00682058298829
C           -1.64840742715648        0.66145421059495       -1.00911260213009
C           -0.26841336069907        0.66429368973302       -1.00193590197325
C            0.43100538102016       -0.01029879282471       -0.00375076193949
C            1.89969304023274       -0.01622073295082       -0.00251049155372
C            2.61349658548780       -1.22168602905201        0.05829684101017
C            1.91147075789042       -2.44004609805467       -0.04519533264511
N            1.32383587380533       -3.41609236595912       -0.19168100181337
C            4.02436386877373       -1.17417134866360        0.12298226155360
C            4.85207420750844       -2.36826087294733        0.30452469147520
C            4.43675943875445       -3.43283928933798        1.10284682540205
C            5.25013913629525       -4.53970682134091        1.26054176200900
C            6.48161922756625       -4.59720525768961        0.62781511780498
C            6.90860136592125       -3.53427190713345       -0.15333258285537
C            6.10457899067322       -2.42223529356676       -0.30905742942333
N            4.67371679757160       -0.02758798384812       -0.00102369510889
C            4.03391875888027        1.12429364261309       -0.12559907982171
C            4.87158315903368        2.31154780956274       -0.30614500059196
C            4.46546822737778        3.38006351296524       -1.10394672226529
C            5.28799914187960        4.48031927541302       -1.26040745891517
C            6.51958486194743        4.52721176858433       -0.62701281310260
C            6.93747515546306        3.46017897913918        0.15347211843053
C            6.12425824655236        2.35467421924793        0.30796052229348
C            2.62342733195248        1.18335432512220       -0.06234550940154
C            1.93131464143643        2.40735128337761        0.04086422777206
N            1.35140076219888        3.38804868595605        0.18743889591358
C           -0.27564457979610       -0.67946252023356        0.99298124419546
C           -1.65559448307045       -0.66622185493896        0.99713318058951
C           -4.44012379568445        1.17797206838827        0.31351370488186
C           -3.71480853393234        2.31703720781589        0.67676245885839
C           -4.35458174910051        3.49797742887994        0.99102607308818
C           -5.73596806402872        3.56238843941206        0.95908035504605
C           -6.45620969102669        2.42899833179734        0.62986770870978
C           -5.83813634537579        1.22726984524963        0.30983570263070
H           -6.94882925247516       -0.53800786746715        2.06886840548428
H           -8.21836320611815       -1.15520277233445        1.01091308541352
H           -8.20312148169644        0.54577999192991        1.46543860124525
H           -8.21025267236197        1.19361369410507       -1.03666614598099
H           -6.94088708068097        0.57198867788683       -2.09224112417239
H           -8.20180879706935       -0.50675928059476       -1.49367905735718
H           -7.54915563010120       -2.45237109400116       -0.65068329074108
H           -6.27651670466342       -4.45468662593596       -1.22136048495521
H           -3.79544924361207       -4.35343698205384       -1.28082369877122
H           -2.65072034942672       -2.27447723178073       -0.73359498863757
H           -2.19042990653904        1.17444667843206       -1.78922482845359
H            0.27091088519581        1.16930772836215       -1.79001454095037
H            3.49005831486093       -3.38659444829487        1.62073506087863
H            4.92089771772872       -5.35819116455776        1.88294534655423
H            7.10998761625428       -5.46678584187183        0.74932225540150
H            7.87117811495806       -3.57276930424601       -0.64091572471869
H            6.42325542406692       -1.58683524513095       -0.91350161802792
H            3.51873108383778        3.34196180260465       -1.62242294884309
H            4.96581020280287        5.30185062558425       -1.88246698367501
H            7.15509379127856        5.39172832137590       -0.74750473339599
H            7.90013630699317        3.49037018057349        0.64147130172418
H            6.43576476963945        1.51616202874593        0.91182325467723
H            0.25810806155843       -1.18854901526745        1.78222720173889
H           -2.20317933167795       -1.17518437959632        1.77599482883725
H           -2.63700768062295        2.27723420675863        0.71830095131790
H           -3.76901015259829        4.36388379042603        1.26293571810937
H           -6.24916539165228        4.48168413671588        1.19834048720964
H           -7.53398294301264        2.48777221285653        0.62511154166693

          :  Hamiltonian                  GFN2-xTB          :
         :: gradient norm              0.000131255207 Eh/a0 ::
         :: HOMO-LUMO gap              1.025094776599 eV    ::
         :: SCC energy              -113.750050875075 Eh    ::
         :: -> dispersion             -0.101620745661 Eh    ::
         :: -> Gsolv                  -0.050290030192 Eh    ::
         :: repulsion energy           2.126003124660 Eh    ::

    * Orbital Energies and Occupations

         #    Occupation            Energy/Eh            Energy/eV
      -------------------------------------------------------------
         1        2.0000           -0.7020038             -19.1025
       ...           ...                  ...                  ...
        92        2.0000           -0.4272749             -11.6267
        93        2.0000           -0.4195930             -11.4177
        94        2.0000           -0.4193894             -11.4122
        95        2.0000           -0.4192010             -11.4070
        96        2.0000           -0.4168151             -11.3421
        97        2.0000           -0.4102626             -11.1638
        98        2.0000           -0.4081654             -11.1067
        99        2.0000           -0.4068990             -11.0723
       100        2.0000           -0.4034668             -10.9789
       101        2.0000           -0.3976005             -10.8193
       102        2.0000           -0.3972773             -10.8105
       103        2.0000           -0.3922121             -10.6726
       104        2.0000           -0.3476704              -9.4606 (HOMO)
       105                         -0.3099989              -8.4355 (LUMO)
       106                         -0.3005586              -8.1786
       107                         -0.2589357              -7.0460
       108                         -0.2488383              -6.7712
       109                         -0.2413318              -6.5670
       110                         -0.2381833              -6.4813
       111                         -0.2379312              -6.4744
       112                         -0.2281085              -6.2071
       113                         -0.2256380              -6.1399
       114                         -0.2242886              -6.1032
       115                         -0.2206248              -6.0035
       ...                                ...                  ...
       204                          1.1437029              31.1217
      -------------------------------------------------------------
                  HL-Gap            0.0376715 Eh            1.0251 eV

     #   Z          covCN         q      C6AA      α(0)
     1   6 C        3.761    -0.104    22.531     6.767
     2   6 C        3.909     0.021    20.164     6.383
     3   6 C        3.761    -0.104    22.531     6.767
     4   6 C        2.979    -0.013    28.336     8.732
     5   6 C        2.928    -0.037    28.931     8.821
     6   6 C        2.917    -0.045    29.129     8.850
     7   6 C        2.919    -0.034    28.849     8.808
     8   6 C        2.924    -0.059    29.472     8.903
     9   6 C        2.927     0.058    26.704     8.475
    10   7 N        2.753    -0.072    22.644     7.068
    11   6 C        2.927     0.076    26.292     8.409
    12   6 C        2.921    -0.035    28.873     8.812
    13   6 C        2.923    -0.027    28.671     8.781
    14   6 C        2.978     0.002    27.972     8.676
    15   6 C        2.997     0.036    27.175     8.551
    16   6 C        2.970    -0.012    28.321     8.729
    17   6 C        1.909     0.121    28.132     8.566
    18   7 N        0.911    -0.267    26.923     7.504
    19   6 C        2.946     0.108    25.604     8.299
    20   6 C        2.982     0.003    27.960     8.674
    21   6 C        2.922    -0.027    28.675     8.781
    22   6 C        2.918    -0.025    28.624     8.773
    23   6 C        2.920    -0.021    28.537     8.760
    24   6 C        2.918    -0.025    28.617     8.772
    25   6 C        2.925    -0.023    28.582     8.767
    26   7 N        1.856    -0.242    27.161     7.724
    27   6 C        2.946     0.108    25.604     8.299
    28   6 C        2.982     0.003    27.961     8.674
    29   6 C        2.922    -0.027    28.675     8.781
    30   6 C        2.918    -0.025    28.624     8.773
    31   6 C        2.920    -0.021    28.537     8.760
    32   6 C        2.918    -0.025    28.617     8.772
    33   6 C        2.925    -0.023    28.582     8.767
    34   6 C        2.970    -0.012    28.321     8.729
    35   6 C        1.909     0.121    28.132     8.566
    36   7 N        0.911    -0.267    26.924     7.505
    37   6 C        2.923    -0.027    28.671     8.781
    38   6 C        2.921    -0.035    28.873     8.812
    39   6 C        2.927     0.058    26.704     8.475
    40   6 C        2.924    -0.059    29.472     8.903
    41   6 C        2.919    -0.034    28.849     8.808
    42   6 C        2.917    -0.045    29.129     8.850
    43   6 C        2.928    -0.037    28.931     8.821
    44   6 C        2.979    -0.013    28.336     8.732
    45   1 H        0.925     0.030     2.586     2.515
    46   1 H        0.925     0.043     2.414     2.430
    47   1 H        0.925     0.042     2.417     2.431
    48   1 H        0.925     0.043     2.414     2.430
    49   1 H        0.925     0.030     2.586     2.515
    50   1 H        0.925     0.042     2.417     2.431
    51   1 H        0.926     0.035     2.523     2.484
    52   1 H        0.926     0.027     2.622     2.532
    53   1 H        0.926     0.028     2.614     2.528
    54   1 H        0.926     0.022     2.699     2.569
    55   1 H        0.926     0.054     2.268     2.355
    56   1 H        0.926     0.040     2.445     2.445
    57   1 H        0.926     0.033     2.544     2.494
    58   1 H        0.926     0.046     2.366     2.405
    59   1 H        0.926     0.050     2.325     2.384
    60   1 H        0.926     0.050     2.321     2.382
    61   1 H        0.926     0.054     2.268     2.355
    62   1 H        0.926     0.033     2.543     2.494
    63   1 H        0.926     0.046     2.366     2.405
    64   1 H        0.926     0.050     2.324     2.384
    65   1 H        0.926     0.050     2.321     2.382
    66   1 H        0.926     0.054     2.268     2.355
    67   1 H        0.926     0.040     2.445     2.445
    68   1 H        0.926     0.054     2.268     2.355
    69   1 H        0.926     0.022     2.699     2.569
    70   1 H        0.926     0.028     2.614     2.528
    71   1 H        0.926     0.027     2.622     2.532
    72   1 H        0.926     0.035     2.523     2.484

molecular dipole:
                 x           y           z       tot (Debye)
 q only:        1.550      -0.007       0.000
   full:        1.623      -0.007       0.000       4.124

 projected vibrational frequencies (cm⁻¹)
eigval :       -0.00    -0.00     0.00     0.00     0.00     0.00
eigval :        8.03    11.61    12.28    23.90    26.98    37.47
eigval :       38.29    48.80    49.65    57.28    68.10    73.39
eigval :       95.72    98.70   106.29   111.16   125.51   133.30
eigval :      134.41   154.23   167.96   196.59   199.50   204.54
eigval :      220.13   232.66   235.38   244.36   253.14   259.73
eigval :      281.09   293.89   306.18   321.27   331.69   344.69
eigval :      352.49   370.49   371.73   373.35   378.84   392.97
eigval :      399.40   402.45   416.75   433.57   452.22   462.66
eigval :      482.27   486.69   490.21   508.52   513.99   537.07
eigval :      546.73   551.23   551.70   577.50   579.57   584.30
eigval :      586.45   592.38   597.55   629.13   637.48   643.93
eigval :      649.86   663.98   672.27   673.98   677.08   682.45
eigval :      693.29   699.81   729.75   734.92   764.05   768.82
eigval :      778.20   779.54   783.34   816.91   827.09   832.65
eigval :      866.72   867.28   868.72   871.80   874.00   906.44
eigval :      908.32   912.11   913.25   914.04   917.91   920.55
eigval :      922.63   923.03   925.42   928.59   930.08   933.58
eigval :      933.75   937.84   955.44   960.74   966.78  1011.44
eigval :     1013.41  1016.36  1061.49  1075.89  1081.05  1082.07
eigval :     1084.33  1113.55  1119.06  1120.35  1120.92  1132.96
eigval :     1139.49  1158.20  1169.98  1178.07  1178.62  1182.22
eigval :     1184.60  1186.76  1187.45  1192.54  1198.95  1208.98
eigval :     1216.10  1243.58  1249.66  1262.58  1263.91  1268.39
eigval :     1274.83  1276.38  1277.51  1293.25  1306.51  1314.57
eigval :     1320.51  1322.49  1323.30  1332.09  1333.89  1360.77
eigval :     1387.00  1393.90  1398.70  1405.00  1417.18  1426.89
eigval :     1428.49  1434.78  1438.50  1467.25  1468.99  1473.08
eigval :     1475.45  1485.87  1486.31  1486.97  1496.33  1497.24
eigval :     1501.47  1505.93  1556.44  1573.90  1576.42  1577.10
eigval :     1586.14  1590.43  1590.67  1590.80  1591.84  1600.57
eigval :     2344.45  2349.65  3021.70  3024.18  3039.58  3041.74
eigval :     3048.05  3052.20  3074.18  3074.32  3079.01  3080.04
eigval :     3080.28  3080.81  3080.99  3081.22  3082.92  3082.98
eigval :     3089.10  3089.19  3090.50  3090.71  3095.90  3096.08
eigval :     3096.89  3097.28  3097.71  3099.15  3101.04  3101.10

   temp. (K)  partition function   enthalpy   heat capacity  entropy
                                   cal/mol     cal/K/mol   cal/K/mol   J/K/mol
 298.15  VIB  0.430E+18            21732.868    133.006    136.891
         ROT  0.353E+08              888.752      2.981     37.517
         INT  0.152E+26            22621.620    135.987    174.407
         TR   0.130E+29             1481.254      4.968     44.858
         TOT                       24102.8742   140.9548   219.2649   917.4045

       T/K    H(0)-H(T)+PV         H(T)/Eh          T*S/Eh         G(T)/Eh
   ------------------------------------------------------------------------
    298.15    0.384104E-01    0.589522E+00    0.104180E+00    0.485342E+00
   ------------------------------------------------------------------------

         :::::::::::::::::::::::::::::::::::::::::::::::::::::
         ::                  THERMODYNAMIC                  ::
         :::::::::::::::::::::::::::::::::::::::::::::::::::::
         :: total free energy        -111.138705266609 Eh   ::
         ::.................................................::
         :: total energy             -111.624047751927 Eh   ::
         :: zero point energy           0.551111962197 Eh   ::
         :: G(RRHO) w/o ZPVE           -0.065769476878 Eh   ::
         :: G(RRHO) contrib.            0.485342485318 Eh   ::
         :::::::::::::::::::::::::::::::::::::::::::::::::::::

           -------------------------------------------------
          | TOTAL ENERGY             -111.624047751927 Eh   |
          | TOTAL ENTHALPY           -111.034525414693 Eh   |
          | TOTAL FREE ENERGY        -111.138705266609 Eh   |
          | GRADIENT NORM               0.000131144461 Eh/α |
          | HOMO-LUMO GAP               1.025093909975 eV   |
           -------------------------------------------------

 * finished run on 2025/08/25 at 02:50:15.275
