   * xtb version 6.7.1 (edcfbbe) compiled by 'albert@albert-system' on 2024-07-22

   ID    Z sym.   atoms
    1    6 C      1-9, 11-17, 19-25, 27-35, 37-44
    2    7 N      10, 18, 26, 36
    3    1 H      45-72

          program call               : xtb data2507/toluene/DMAC-PCN/DMAC-PCN.xyz --gfn 2 --gbsa toluene --ohess vtight --parallel 40 --molden --ceasefiles --namespace data2507/toluene/DMAC-PCN/DMAC-PCN_toluene_S0_preOpt
      * Solvation model:               GBSA
        Solvent                        toluene
        Solvent mass                       9.2140E+01 g/mol
          :  Hamiltonian                  GFN2-xTB          :
 * total energy  :  -111.5980878 Eh     change       -0.1624656E-08 Eh
 * total energy  :  -111.6134301 Eh     change       -0.1534230E-01 Eh
 * total energy  :  -111.6176708 Eh     change       -0.4240753E-02 Eh
 * total energy  :  -111.6185635 Eh     change       -0.8926851E-03 Eh
 * total energy  :  -111.6193804 Eh     change       -0.8168738E-03 Eh
 * total energy  :  -111.6197946 Eh     change       -0.4142765E-03 Eh
 * total energy  :  -111.6201393 Eh     change       -0.3446315E-03 Eh
 * total energy  :  -111.6204385 Eh     change       -0.2992615E-03 Eh
 * total energy  :  -111.6206788 Eh     change       -0.2402755E-03 Eh
 * total energy  :  -111.6208693 Eh     change       -0.1904481E-03 Eh
 * total energy  :  -111.6217391 Eh     change       -0.9332734E-06 Eh
 * total energy  :  -111.6217400 Eh     change       -0.9340137E-06 Eh
 * total energy  :  -111.6217409 Eh     change       -0.8441116E-06 Eh
 * total energy  :  -111.6217414 Eh     change       -0.5205214E-06 Eh
 * total energy  :  -111.6217416 Eh     change       -0.2299075E-06 Eh
 * total energy  :  -111.6217418 Eh     change       -0.1257956E-06 Eh
 * total energy  :  -111.6217418 Eh     change       -0.2065585E-07 Eh
 * total energy  :  -111.6217419 Eh     change       -0.1210628E-06 Eh
 * total energy  :  -111.6217420 Eh     change       -0.9052772E-07 Eh
   *** GEOMETRY OPTIMIZATION CONVERGED AFTER 65 ITERATIONS ***

 final structure:
================
72
 xtb: 6.7.1 (edcfbbe)
C           -7.17767018580307       -0.00005111944210        1.21876251103615
C           -6.28522285058319       -0.00003395517724       -0.03682773789388
C           -7.15602522968440       -0.00006019464096       -1.30740257142170
C           -5.43524721183159       -1.25756425798431       -0.02901988900637
C           -6.05252334848456       -2.50113430640806       -0.03806191043621
C           -5.33077868384635       -3.68097540978690       -0.03033292995409
C           -3.94855425149774       -3.62809331816690       -0.01279497485392
C           -3.30874500079383       -2.40606480726595       -0.00348727757826
C           -4.03704279465261       -1.21276058470199       -0.01144731120536
N           -3.36511767923103        0.00002504758486       -0.00058723190719
C           -1.94305748801860        0.00004367056430        0.01441449690361
C           -1.23437283970580       -0.00212979057322       -1.18098946125937
C            0.14728351193622       -0.00227476030598       -1.16686928272452
C            0.83146852209699       -0.00002849816514        0.04281281189205
C            2.31059489002386       -0.00008832279866        0.05802687169663
C            3.02300105563039       -1.20403198909353        0.05712192219458
C            2.28622027113113       -2.40456713679646       -0.01513755716702
N            1.63660761558984       -3.34696898747567       -0.10655210936788
C            4.43536721426311       -1.15716717986639        0.03990696423485
C            5.27028650146342       -2.36074492677084        0.03594086894745
C            4.90938014351039       -3.50810070751695        0.74051008235398
C            5.72827323800458       -4.62205076113286        0.71807936549358
C            6.91086127698086       -4.60602957256894       -0.00385430225952
C            7.28448610519540       -3.46268605456565       -0.69336619319251
C            6.47500519340415       -2.34427709022580       -0.66858407554776
N            5.07864309015052       -0.00003200356145        0.01231201063715
C            4.43534135083378        1.15706920842106        0.04072488091992
C            5.27019020244001        2.36069728309577        0.03700907258809
C            4.90948730436582        3.50775607964793        0.74216661261863
C            5.72820709212861        4.62183514431628        0.71968610426692
C            6.91043319774102        4.60622439292187       -0.00286215808713
C            7.28389638525978        3.46314632272604       -0.69290878520253
C            6.47456497304075        2.34462885532240       -0.66811781773521
C            3.02298560351675        1.20386493498918        0.05838428164141
C            2.28608587731534        2.40439045668595       -0.01268511464465
N            1.63633044267220        3.34673572225078       -0.10328377011426
C            0.12227455322945        0.00231972579454        1.23811562431986
C           -1.25952785534715        0.00223141804525        1.22425323807269
C           -4.03709082196895        1.21278352736483       -0.01160221376036
C           -3.30883141305690        2.40611341689530       -0.00425120385509
C           -3.94868679870736        3.62811654140590       -0.01365456374199
C           -5.33091769505968        3.68094397314433       -0.03079789419282
C           -6.05262005044672        2.50107578397179       -0.03822016667325
C           -5.43529705429623        1.25753043278131       -0.02907086046912
H           -7.81363554820261       -0.88062139565055        1.24181038852415
H           -7.81365796442888        0.88050188781870        1.24179604738336
H           -6.55848093490198       -0.00003492354762        2.11441759387165
H           -7.79172890195156        0.88029761113577       -1.34153388612194
H           -6.52153972497721       -0.00004601809526       -2.19224928091159
H           -7.79167880987887       -0.88045446492585       -1.34152474864767
H           -7.13051557924924       -2.55764329926339       -0.05136440189721
H           -5.84412877244086       -4.63087551419529       -0.03777737470922
H           -3.36288109016353       -4.53570709142936       -0.00663651835338
H           -2.22981950118677       -2.37366008257139        0.00945380545621
H           -1.77026740380264       -0.00379038020335       -2.11814251142175
H            0.69776747841552       -0.00395890362125       -2.09659993078565
H            4.00360133577947       -3.52295411832331        1.32831591317869
H            5.44113818424821       -5.50444227819870        1.27002835702984
H            7.54315151645548       -5.48097746267226       -0.02266369929877
H            8.20920517896419       -3.44390242922004       -1.25036940786936
H            6.75334911391679       -1.44864984851168       -1.20151155493679
H            4.00402813190314        3.52226555042538        1.33047196328135
H            5.44128819736340        5.50395794877206        1.27216598808024
H            7.54257218478467        5.48128073861068       -0.02173132363082
H            8.20827124001386        3.44471813847963       -1.25048236401952
H            6.75272816602217        1.44924476522775       -1.20154774434630
H            0.65346515002184        0.00402745803906        2.17914257162318
H           -1.81431477434937        0.00394179261156        2.15041041378274
H           -2.22989990550578        2.37374486206031        0.00823680262883
H           -3.36304316472945        4.53575231895080       -0.00794483502403
H           -5.84430482951013        4.63082357293512       -0.03828246701070
H           -7.13061733152130        2.55754336242495       -0.05134515141482

          :  Hamiltonian                  GFN2-xTB          :
         :: gradient norm              0.000096568579 Eh/a0 ::
         :: HOMO-LUMO gap              0.919236756087 eV    ::
         :: SCC energy              -113.749289971889 Eh    ::
         :: -> dispersion             -0.101428109604 Eh    ::
         :: -> Gsolv                  -0.050711355738 Eh    ::
         :: repulsion energy           2.127547985399 Eh    ::

    * Orbital Energies and Occupations

         #    Occupation            Energy/Eh            Energy/eV
      -------------------------------------------------------------
         1        2.0000           -0.7041254             -19.1602
       ...           ...                  ...                  ...
        92        2.0000           -0.4266065             -11.6086
        93        2.0000           -0.4203901             -11.4394
        94        2.0000           -0.4200925             -11.4313
        95        2.0000           -0.4196138             -11.4183
        96        2.0000           -0.4190683             -11.4034
        97        2.0000           -0.4106106             -11.1733
        98        2.0000           -0.4069627             -11.0740
        99        2.0000           -0.4057519             -11.0411
       100        2.0000           -0.4019112             -10.9366
       101        2.0000           -0.3978729             -10.8267
       102        2.0000           -0.3962955             -10.7837
       103        2.0000           -0.3909726             -10.6389
       104        2.0000           -0.3455046              -9.4017 (HOMO)
       105                         -0.3117233              -8.4824 (LUMO)
       106                         -0.2973894              -8.0924
       107                         -0.2572144              -6.9992
       108                         -0.2504256              -6.8144
       109                         -0.2478836              -6.7453
       110                         -0.2394894              -6.5168
       111                         -0.2386104              -6.4929
       112                         -0.2307609              -6.2793
       113                         -0.2268236              -6.1722
       114                         -0.2226373              -6.0583
       115                         -0.2210346              -6.0147
       ...                                ...                  ...
       204                          1.1431830              31.1076
      -------------------------------------------------------------
                  HL-Gap            0.0337814 Eh            0.9192 eV

     #   Z          covCN         q      C6AA      α(0)
     1   6 C        3.761    -0.103    22.524     6.766
     2   6 C        3.908     0.021    20.167     6.383
     3   6 C        3.761    -0.104    22.525     6.766
     4   6 C        2.978    -0.014    28.362     8.736
     5   6 C        2.928    -0.038    28.939     8.822
     6   6 C        2.917    -0.047    29.155     8.854
     7   6 C        2.919    -0.034    28.856     8.809
     8   6 C        2.924    -0.060    29.485     8.905
     9   6 C        2.928     0.058    26.691     8.473
    10   7 N        2.754    -0.076    22.725     7.080
    11   6 C        2.927     0.076    26.307     8.411
    12   6 C        2.922    -0.034    28.838     8.806
    13   6 C        2.923    -0.028    28.711     8.787
    14   6 C        2.979     0.004    27.941     8.671
    15   6 C        3.005     0.038    27.129     8.544
    16   6 C        2.970    -0.011    28.277     8.722
    17   6 C        1.911     0.121    28.120     8.564
    18   7 N        0.911    -0.263    26.820     7.490
    19   6 C        2.944     0.109    25.586     8.296
    20   6 C        2.982     0.003    27.950     8.672
    21   6 C        2.922    -0.027    28.678     8.782
    22   6 C        2.918    -0.025    28.617     8.772
    23   6 C        2.920    -0.021    28.531     8.759
    24   6 C        2.918    -0.024    28.615     8.772
    25   6 C        2.926    -0.022    28.563     8.765
    26   7 N        1.856    -0.240    27.134     7.721
    27   6 C        2.944     0.109    25.586     8.296
    28   6 C        2.982     0.003    27.950     8.672
    29   6 C        2.922    -0.027    28.678     8.782
    30   6 C        2.918    -0.025    28.617     8.772
    31   6 C        2.920    -0.021    28.531     8.759
    32   6 C        2.918    -0.024    28.615     8.772
    33   6 C        2.926    -0.022    28.563     8.765
    34   6 C        2.970    -0.011    28.277     8.722
    35   6 C        1.911     0.121    28.120     8.564
    36   7 N        0.911    -0.263    26.820     7.490
    37   6 C        2.923    -0.029    28.730     8.790
    38   6 C        2.922    -0.034    28.854     8.809
    39   6 C        2.928     0.058    26.691     8.473
    40   6 C        2.924    -0.060    29.485     8.905
    41   6 C        2.919    -0.034    28.856     8.809
    42   6 C        2.917    -0.047    29.155     8.854
    43   6 C        2.928    -0.038    28.939     8.822
    44   6 C        2.978    -0.014    28.362     8.736
    45   1 H        0.925     0.042     2.423     2.434
    46   1 H        0.925     0.042     2.423     2.434
    47   1 H        0.925     0.030     2.592     2.518
    48   1 H        0.925     0.042     2.423     2.434
    49   1 H        0.925     0.030     2.592     2.518
    50   1 H        0.925     0.042     2.423     2.434
    51   1 H        0.926     0.033     2.542     2.493
    52   1 H        0.926     0.026     2.639     2.541
    53   1 H        0.926     0.027     2.626     2.534
    54   1 H        0.926     0.020     2.726     2.582
    55   1 H        0.926     0.054     2.274     2.358
    56   1 H        0.926     0.040     2.454     2.450
    57   1 H        0.926     0.034     2.527     2.486
    58   1 H        0.926     0.047     2.361     2.403
    59   1 H        0.926     0.050     2.319     2.381
    60   1 H        0.926     0.051     2.312     2.378
    61   1 H        0.926     0.053     2.283     2.363
    62   1 H        0.926     0.034     2.527     2.486
    63   1 H        0.926     0.047     2.361     2.403
    64   1 H        0.926     0.050     2.319     2.381
    65   1 H        0.926     0.051     2.312     2.378
    66   1 H        0.926     0.053     2.283     2.363
    67   1 H        0.926     0.041     2.437     2.441
    68   1 H        0.926     0.054     2.271     2.357
    69   1 H        0.926     0.020     2.726     2.582
    70   1 H        0.926     0.027     2.626     2.534
    71   1 H        0.926     0.026     2.639     2.541
    72   1 H        0.926     0.033     2.542     2.493

molecular dipole:
                 x           y           z       tot (Debye)
 q only:        1.994       0.000       0.008
   full:        2.097       0.000       0.106       5.337

 projected vibrational frequencies (cm⁻¹)
eigval :       -0.00    -0.00    -0.00    -0.00     0.00     0.00
eigval :      -28.43     6.75    15.15    18.17    22.18    31.18
eigval :       40.64    43.27    48.47    52.90    54.28    73.62
eigval :       94.84    97.20   100.69   111.84   116.81   129.81
eigval :      141.97   150.71   158.37   191.40   199.33   199.63
eigval :      219.96   229.50   230.51   242.99   263.29   265.54
eigval :      268.32   291.71   303.38   329.63   334.45   341.06
eigval :      344.45   365.20   371.38   372.79   376.38   391.15
eigval :      391.45   399.49   414.52   443.83   450.55   462.33
eigval :      487.69   491.79   494.09   509.42   513.55   539.25
eigval :      546.25   548.36   555.59   575.86   580.69   585.62
eigval :      585.71   593.06   593.80   634.00   637.24   639.92
eigval :      660.75   663.17   667.57   674.43   676.00   681.11
eigval :      692.08   703.29   728.70   735.12   764.87   767.42
eigval :      778.00   779.19   779.36   816.44   827.24   831.95
eigval :      868.01   868.14   868.39   871.37   871.81   904.21
eigval :      906.68   911.53   911.92   912.64   918.71   921.04
eigval :      921.95   922.04   926.15   927.58   928.82   933.13
eigval :      933.35   939.14   957.40   960.03   967.34  1010.87
eigval :     1012.97  1016.64  1063.43  1075.61  1080.58  1082.66
eigval :     1086.03  1111.66  1118.03  1119.99  1121.28  1132.59
eigval :     1138.74  1158.64  1169.20  1177.58  1178.77  1182.87
eigval :     1185.46  1185.88  1186.31  1191.36  1198.98  1208.74
eigval :     1218.00  1243.28  1248.83  1259.73  1265.63  1267.55
eigval :     1269.41  1276.82  1276.96  1292.88  1299.35  1317.08
eigval :     1320.49  1322.47  1323.56  1333.11  1338.84  1360.14
eigval :     1391.80  1395.46  1397.80  1399.55  1418.25  1426.43
eigval :     1429.72  1435.48  1440.31  1466.76  1470.99  1475.47
eigval :     1477.37  1486.84  1486.88  1491.25  1496.48  1500.99
eigval :     1502.31  1507.20  1562.09  1573.79  1576.26  1577.14
eigval :     1588.74  1590.31  1590.92  1591.95  1596.33  1601.63
eigval :     2349.16  2354.71  3021.34  3023.92  3038.63  3040.47
eigval :     3047.00  3050.83  3072.56  3072.62  3075.88  3078.91
eigval :     3079.07  3079.29  3081.29  3081.35  3084.27  3084.40
eigval :     3089.08  3089.42  3090.79  3091.01  3096.12  3097.03
eigval :     3097.06  3097.82  3098.00  3098.72  3103.91  3104.90

   temp. (K)  partition function   enthalpy   heat capacity  entropy
                                   cal/mol     cal/K/mol   cal/K/mol   J/K/mol
 298.15  VIB  0.719E+17            21258.073    131.527    133.002
         ROT  0.703E+08              888.752      2.981     38.888
         INT  0.506E+25            22146.826    134.508    171.891
         TR   0.130E+29             1481.254      4.968     44.858
         TOT                       23628.0795   139.4761   216.7485   906.8758

       T/K    H(0)-H(T)+PV         H(T)/Eh          T*S/Eh         G(T)/Eh
   ------------------------------------------------------------------------
    298.15    0.376537E-01    0.588601E+00    0.102984E+00    0.485617E+00
   ------------------------------------------------------------------------

         :::::::::::::::::::::::::::::::::::::::::::::::::::::
         ::                  THERMODYNAMIC                  ::
         :::::::::::::::::::::::::::::::::::::::::::::::::::::
         :: total free energy        -111.136124773699 Eh   ::
         ::.................................................::
         :: total energy             -111.621741985591 Eh   ::
         :: zero point energy           0.550947687904 Eh   ::
         :: G(RRHO) w/o ZPVE           -0.065330476012 Eh   ::
         :: G(RRHO) contrib.            0.485617211892 Eh   ::
         :::::::::::::::::::::::::::::::::::::::::::::::::::::

           -------------------------------------------------
          | TOTAL ENERGY             -111.621741985591 Eh   |
          | TOTAL ENTHALPY           -111.033140556181 Eh   |
          | TOTAL FREE ENERGY        -111.136124773699 Eh   |
          | GRADIENT NORM               0.000096676351 Eh/α |
          | HOMO-LUMO GAP               0.919237528534 eV   |
           -------------------------------------------------

 * finished run on 2025/08/25 at 02:46:23.287
