   * xtb version 6.7.1 (edcfbbe) compiled by 'albert@albert-system' on 2024-07-22

   ID    Z sym.   atoms
    1    8 O      1, 10
    2    6 C      2-9, 11-15, 17-21, 23-41, 43-56, 58
    3    7 N      16, 22, 42, 57
    4    1 H      59-92

          program call               : xtb data2507/toluene/TPA-2/TPA-2.xyz --gfn 2 --gbsa toluene --ohess vtight --parallel 40 --molden --ceasefiles --namespace data2507/toluene/TPA-2/TPA-2_toluene_S0_preOpt
      * Solvation model:               GBSA
        Solvent                        toluene
        Solvent mass                       9.2140E+01 g/mol
          :  Hamiltonian                  GFN2-xTB          :
 * total energy  :  -148.5462927 Eh     change       -0.3040157E-08 Eh
 * total energy  :  -148.5646453 Eh     change       -0.1835261E-01 Eh
 * total energy  :  -148.5726082 Eh     change       -0.7962879E-02 Eh
 * total energy  :  -148.5753158 Eh     change       -0.2707588E-02 Eh
 * total energy  :  -148.5771608 Eh     change       -0.1845039E-02 Eh
 * total energy  :  -148.5781997 Eh     change       -0.1038895E-02 Eh
 * total energy  :  -148.5789459 Eh     change       -0.7461486E-03 Eh
 * total energy  :  -148.5796140 Eh     change       -0.6680988E-03 Eh
 * total energy  :  -148.5801669 Eh     change       -0.5528849E-03 Eh
 * total energy  :  -148.5805773 Eh     change       -0.4104488E-03 Eh
 * total energy  :  -148.5854005 Eh     change       -0.1642003E-05 Eh
 * total energy  :  -148.5854019 Eh     change       -0.1392083E-05 Eh
 * total energy  :  -148.5854030 Eh     change       -0.1124412E-05 Eh
 * total energy  :  -148.5854039 Eh     change       -0.8783379E-06 Eh
 * total energy  :  -148.5854046 Eh     change       -0.7124555E-06 Eh
 * total energy  :  -148.5854052 Eh     change       -0.5570320E-06 Eh
 * total energy  :  -148.5854057 Eh     change       -0.5160977E-06 Eh
 * total energy  :  -148.5854062 Eh     change       -0.4929817E-06 Eh
 * total energy  :  -148.5854062 Eh     change       -0.2779899E-08 Eh
   *** GEOMETRY OPTIMIZATION CONVERGED AFTER 340 ITERATIONS ***

 final structure:
================
92
 xtb: 6.7.1 (edcfbbe)
O           -7.96929482587218       -4.54381879368217       -0.31063325731063
C           -7.38999534931330       -3.48509446983433       -0.10224789591333
C           -8.11817609129070       -2.26293323045303        0.28535891038568
C           -9.51176878492423       -2.27550979692154        0.29617332715270
C          -10.22356225307259       -1.14340334170028        0.64858421480972
C           -9.54880647075354        0.01494528349694        1.00668488534689
C           -8.16548196854601        0.03464653309048        1.01558885630042
C           -7.43727995029627       -1.09496933884863        0.65165084514529
C           -5.95845231159176       -1.04308871290555        0.70088954211115
O           -5.37587879052742       -0.12035341516967        1.25018161525744
C           -5.25983513141402       -2.17751695358268        0.07689930826575
C           -5.92969787043082       -3.35254629821493       -0.26248431818359
C           -5.22725138196940       -4.45510882698317       -0.78564551703537
C           -3.86847004982047       -4.42905225795088       -0.94522668319568
C           -3.15897614970169       -3.26226350427758       -0.61365441334222
N           -1.81635569708914       -3.25433129481850       -0.61069293813518
C           -1.16619725361456       -2.14878854120679       -0.31738941634511
C            0.26372357714337       -2.27133790528237       -0.08992245353015
C            0.96833588722444       -3.30825577866356       -0.71263108479467
C            2.31990122637523       -3.46230198414804       -0.52127321410232
C            3.02375043989890       -2.58791888319030        0.31706130695612
N            4.38887950129330       -2.72915250461698        0.50227185256038
C            4.98710314745018       -3.99973297950698        0.45531029423917
C            4.36162014272152       -5.09516249453191        1.04932211877613
C            4.95664108387848       -6.34172652897922        1.00607335417437
C            6.18182548865630       -6.51257686203813        0.38148804359933
C            6.80933361912564       -5.42506455658336       -0.20461792778349
C            6.21873110376690       -4.17589939000961       -0.17315239781058
C            5.20335592426000       -1.60183408568448        0.70119599911312
C            6.26173999960156       -1.65266010385974        1.60696938010339
C            7.08335156719880       -0.55441033164424        1.77696644955546
C            6.86170879351142        0.60530772614947        1.05150524248677
C            5.80824894776469        0.66075919769756        0.15298059040366
C            4.98063300310450       -0.43178759458292       -0.02323442638178
C            2.31377468374549       -1.57097417218607        0.96911870363509
C            0.96136910630473       -1.41844266941395        0.77291228099393
C           -1.90106762847874       -0.90616350880074       -0.24208325605700
C           -1.30570042255434        0.41539483433357       -0.36689635398263
C           -0.12380484994072        0.65824073195283       -1.07393495122903
C            0.39901509885199        1.92862886347743       -1.14887279903720
C           -0.24643699894815        3.00718879781017       -0.53188497596139
N            0.29619982739069        4.28309467304220       -0.59435729817251
C           -0.53901923608732        5.40901624813695       -0.65892986067548
C           -1.69847674737736        5.38141922947931       -1.43324826609625
C           -2.51517001668280        6.49401747692309       -1.50087712906738
C           -2.18569350954556        7.64921361712107       -0.81009662194893
C           -1.03241381804570        7.68213598902696       -0.04274941475840
C           -0.21357155128242        6.57184458698507        0.03798634333560
C            1.68825848740320        4.46087400957998       -0.54910418444819
C            2.47130539669507        3.67743539411006        0.29766259675727
C            3.83702658427943        3.87703495077841        0.36214927717756
C            4.44083730198599        4.85169623050082       -0.41616529983963
C            3.66686599571114        5.62887431857752       -1.26312164134611
C            2.29986128439873        5.43783208037734       -1.33331077860665
C           -1.45119168324580        2.77120994274973        0.14119928058391
C           -1.97029011257155        1.50095085167459        0.21642264062562
N           -3.20592268867015       -0.94069728617443       -0.10308288691680
C           -3.86589046652925       -2.10137304646471       -0.17345533802366
H          -10.01484374699304       -3.19076376981504        0.02004308799468
H          -11.30279777296456       -1.16389162539135        0.64619000071871
H          -10.10115310335208        0.90047962381537        1.28250500797533
H           -7.61974893353694        0.92228463394361        1.30068834121717
H           -5.80076333966899       -5.33760466673639       -1.02945265606208
H           -3.31943916516698       -5.29143467417527       -1.29048412183253
H            0.42900026563749       -3.97247284369232       -1.36987406250110
H            2.85068573414662       -4.25292767195776       -1.02997592872646
H            3.41149780750870       -4.96101573054727        1.54561194090001
H            4.46353199706169       -7.18271618494376        1.47119565047919
H            6.64498545438369       -7.48729215252191        0.35235316399133
H            7.76262384420036       -5.55089453539223       -0.69653646482813
H            6.70544617948125       -3.33065878237024       -0.63722791056379
H            6.43426443692903       -2.55662385752227        2.17243574319078
H            7.89918518867425       -0.60450582091083        2.48302551970148
H            7.50815245695582        1.45983895862289        1.18395629497960
H            5.63363373685730        1.55577732127126       -0.42502862659471
H            4.16535266449142       -0.38928514343055       -0.73051814789557
H            2.83659094877860       -0.91219398972327        1.64623953661969
H            0.42858971530916       -0.65114033890318        1.31435769132086
H            0.37064373671266       -0.15020704214566       -1.59115772449060
H            1.30936336080801        2.10489465453659       -1.70228857246656
H           -1.95139455927289        4.48532953825274       -1.98106560616485
H           -3.41012079376640        6.46061393547748       -2.10488374521011
H           -2.82422919116994        8.51770436474298       -0.86876651273675
H           -0.77137094953208        8.57655456104356        0.50368146370337
H            0.68058830986329        6.59715642788580        0.64339642186784
H            2.00082207523006        2.92264417172753        0.91071121967519
H            4.42935796757962        3.27375627364962        1.03385773639041
H            5.50782749793846        5.00740643493878       -0.36086951638181
H            4.13026072280516        6.38755412122000       -1.87669288057032
H            1.69661952908078        6.04371671475854       -1.99345492309119
H           -1.96494996685653        3.59346858976234        0.61651487159171
H           -2.89148126766354        1.31094038048172        0.74588444805091

          :  Hamiltonian                  GFN2-xTB          :
         :: gradient norm              0.000040280055 Eh/a0 ::
         :: HOMO-LUMO gap              0.599444049491 eV    ::
         :: SCC energy              -151.233881699088 Eh    ::
         :: -> dispersion             -0.133641649339 Eh    ::
         :: -> Gsolv                  -0.067603794825 Eh    ::
         :: repulsion energy           2.648475496298 Eh    ::

    * Orbital Energies and Occupations

         #    Occupation            Energy/Eh            Energy/eV
      -------------------------------------------------------------
         1        2.0000           -0.7168141             -19.5055
       ...           ...                  ...                  ...
       125        2.0000           -0.4130459             -11.2396
       126        2.0000           -0.4123213             -11.2198
       127        2.0000           -0.4116136             -11.2006
       128        2.0000           -0.4109420             -11.1823
       129        2.0000           -0.4103593             -11.1664
       130        2.0000           -0.4093219             -11.1382
       131        2.0000           -0.4086973             -11.1212
       132        2.0000           -0.4079862             -11.1019
       133        2.0000           -0.3999684             -10.8837
       134        2.0000           -0.3967835             -10.7970
       135        2.0000           -0.3622407              -9.8571
       136        2.0000           -0.3565206              -9.7014
       137        2.0000           -0.3548037              -9.6547 (HOMO)
       138        0.0000           -0.3327745              -9.0553 (LUMO)
       139                         -0.2935852              -7.9889
       140                         -0.2819716              -7.6728
       141                         -0.2654352              -7.2229
       142                         -0.2403976              -6.5416
       143                         -0.2363328              -6.4309
       144                         -0.2355616              -6.4100
       145                         -0.2347911              -6.3890
       146                         -0.2342988              -6.3756
       147                         -0.2313858              -6.2963
       148                         -0.2290284              -6.2322
       ...                                ...                  ...
       266                          0.7175250              19.5248
      -------------------------------------------------------------
                  HL-Gap            0.0220292 Eh            0.5994 eV

     #   Z          covCN         q      C6AA      α(0)
     1   8 O        0.858    -0.412    21.912     6.276
     2   6 C        2.831     0.223    23.320     7.913
     3   6 C        2.975    -0.016    28.400     8.742
     4   6 C        2.923    -0.014    28.360     8.733
     5   6 C        2.917    -0.019    28.473     8.750
     6   6 C        2.917    -0.017    28.446     8.746
     7   6 C        2.923    -0.014    28.369     8.735
     8   6 C        2.975    -0.015    28.390     8.740
     9   6 C        2.828     0.226    23.261     7.903
    10   8 O        0.858    -0.392    21.512     6.218
    11   6 C        2.970    -0.033    28.816     8.805
    12   6 C        2.973    -0.021    28.530     8.761
    13   6 C        2.921    -0.023    28.581     8.767
    14   6 C        2.914    -0.040    28.993     8.829
    15   6 C        2.957     0.081    26.192     8.394
    16   7 N        1.854    -0.252    27.408     7.759
    17   6 C        2.943     0.092    25.964     8.357
    18   6 C        2.980    -0.007    28.192     8.710
    19   6 C        2.924    -0.025    28.639     8.776
    20   6 C        2.919    -0.047    29.171     8.857
    21   6 C        2.923     0.071    26.403     8.426
    22   7 N        2.752    -0.061    22.421     7.033
    23   6 C        2.925     0.063    26.591     8.456
    24   6 C        2.922    -0.045    29.119     8.849
    25   6 C        2.919    -0.028    28.706     8.786
    26   6 C        2.919    -0.035    28.877     8.812
    27   6 C        2.919    -0.028    28.707     8.786
    28   6 C        2.922    -0.045    29.109     8.848
    29   6 C        2.925     0.063    26.594     8.457
    30   6 C        2.922    -0.045    29.105     8.847
    31   6 C        2.919    -0.028    28.709     8.786
    32   6 C        2.919    -0.035    28.879     8.812
    33   6 C        2.919    -0.029    28.719     8.788
    34   6 C        2.922    -0.045    29.121     8.849
    35   6 C        2.920    -0.047    29.172     8.857
    36   6 C        2.920    -0.028    28.702     8.785
    37   6 C        2.944     0.092    25.965     8.357
    38   6 C        2.982    -0.007    28.188     8.709
    39   6 C        2.919    -0.030    28.758     8.794
    40   6 C        2.920    -0.048    29.186     8.859
    41   6 C        2.923     0.071    26.418     8.429
    42   7 N        2.752    -0.065    22.491     7.044
    43   6 C        2.924     0.063    26.578     8.454
    44   6 C        2.922    -0.046    29.136     8.852
    45   6 C        2.919    -0.029    28.715     8.787
    46   6 C        2.919    -0.036    28.902     8.816
    47   6 C        2.919    -0.029    28.719     8.788
    48   6 C        2.922    -0.046    29.133     8.851
    49   6 C        2.925     0.063    26.582     8.455
    50   6 C        2.922    -0.046    29.133     8.851
    51   6 C        2.919    -0.029    28.724     8.789
    52   6 C        2.919    -0.036    28.899     8.816
    53   6 C        2.919    -0.029    28.717     8.788
    54   6 C        2.922    -0.045    29.117     8.849
    55   6 C        2.919    -0.046    29.148     8.853
    56   6 C        2.925    -0.026    28.644     8.777
    57   7 N        1.856    -0.240    27.123     7.719
    58   6 C        2.956     0.092    25.965     8.358
    59   1 H        0.926     0.063     2.160     2.298
    60   1 H        0.926     0.062     2.181     2.310
    61   1 H        0.926     0.062     2.174     2.306
    62   1 H        0.926     0.064     2.147     2.292
    63   1 H        0.926     0.067     2.124     2.279
    64   1 H        0.926     0.065     2.137     2.286
    65   1 H        0.926     0.054     2.276     2.359
    66   1 H        0.926     0.045     2.377     2.411
    67   1 H        0.926     0.036     2.508     2.476
    68   1 H        0.926     0.038     2.480     2.462
    69   1 H        0.926     0.037     2.492     2.469
    70   1 H        0.926     0.038     2.469     2.457
    71   1 H        0.926     0.037     2.487     2.466
    72   1 H        0.926     0.036     2.502     2.474
    73   1 H        0.926     0.038     2.477     2.461
    74   1 H        0.926     0.037     2.487     2.466
    75   1 H        0.926     0.041     2.429     2.437
    76   1 H        0.926     0.035     2.514     2.479
    77   1 H        0.926     0.044     2.395     2.420
    78   1 H        0.926     0.035     2.515     2.480
    79   1 H        0.926     0.036     2.505     2.475
    80   1 H        0.926     0.043     2.404     2.425
    81   1 H        0.926     0.034     2.535     2.490
    82   1 H        0.926     0.036     2.499     2.472
    83   1 H        0.926     0.036     2.506     2.475
    84   1 H        0.926     0.038     2.480     2.463
    85   1 H        0.926     0.036     2.499     2.472
    86   1 H        0.926     0.034     2.533     2.489
    87   1 H        0.926     0.041     2.440     2.443
    88   1 H        0.926     0.037     2.494     2.470
    89   1 H        0.926     0.037     2.484     2.465
    90   1 H        0.926     0.035     2.511     2.478
    91   1 H        0.926     0.043     2.413     2.429
    92   1 H        0.926     0.059     2.212     2.326

molecular dipole:
                 x           y           z       tot (Debye)
 q only:        3.502       1.932      -0.220
   full:        3.320       1.802      -0.229       9.619

 projected vibrational frequencies (cm⁻¹)
eigval :       -0.00    -0.00    -0.00    -0.00     0.00     0.00
eigval :        8.47    11.07    14.81    21.07    22.26    25.29
eigval :       29.01    39.37    43.41    44.94    45.73    51.85
eigval :       57.93    65.11    70.28    74.67    81.34    83.85
eigval :      102.74   104.15   105.23   118.61   127.09   145.39
eigval :      154.42   165.93   170.22   182.64   198.88   213.96
eigval :      232.67   233.78   241.55   247.25   252.90   279.90
eigval :      297.54   300.80   311.21   320.24   321.68   344.12
eigval :      348.12   364.49   366.36   371.33   377.35   379.30
eigval :      379.68   382.75   385.05   387.83   394.49   397.84
eigval :      399.11   406.09   416.28   430.58   443.45   468.97
eigval :      472.52   481.76   488.24   493.18   496.94   505.48
eigval :      517.53   537.09   551.60   566.73   572.49   584.11
eigval :      585.56   585.96   587.98   593.38   594.55   604.52
eigval :      609.74   614.96   623.87   639.39   650.96   657.09
eigval :      659.90   660.84   665.09   670.61   676.13   681.54
eigval :      689.74   691.22   708.31   721.30   741.49   749.77
eigval :      757.73   758.76   759.95   763.51   765.60   771.75
eigval :      789.16   821.88   824.21   833.03   847.23   865.82
eigval :      869.49   873.93   874.99   875.99   879.25   879.81
eigval :      894.35   895.71   895.97   896.35   896.71   904.87
eigval :      909.21   909.92   917.40   917.62   920.24   923.99
eigval :      925.93   928.19   928.95   929.43   930.04   930.18
eigval :      931.91   932.65   933.02   934.19   936.14   940.30
eigval :      959.65   982.13   989.91  1004.25  1004.48  1008.38
eigval :     1021.21  1031.78  1068.11  1080.30  1080.71  1081.86
eigval :     1082.36  1084.99  1098.10  1113.24  1119.10  1120.13
eigval :     1121.00  1122.23  1140.50  1141.62  1158.48  1172.00
eigval :     1174.68  1177.26  1179.64  1180.61  1181.17  1183.33
eigval :     1190.52  1192.25  1193.20  1193.98  1200.05  1211.01
eigval :     1213.80  1218.51  1241.95  1254.24  1265.05  1266.44
eigval :     1268.19  1274.46  1275.72  1278.55  1280.06  1293.06
eigval :     1297.73  1301.43  1306.18  1314.41  1315.66  1317.44
eigval :     1322.60  1323.41  1326.00  1326.79  1331.30  1334.53
eigval :     1336.94  1366.59  1383.30  1413.52  1416.94  1418.79
eigval :     1424.83  1433.22  1434.40  1438.45  1439.82  1448.90
eigval :     1455.58  1464.90  1466.58  1468.60  1469.99  1482.17
eigval :     1484.28  1488.74  1510.26  1538.55  1541.44  1559.15
eigval :     1570.11  1574.11  1576.09  1576.29  1578.33  1579.79
eigval :     1581.94  1586.76  1589.22  1589.97  1595.91  1597.16
eigval :     1624.81  1644.23  3074.24  3074.92  3075.38  3076.37
eigval :     3076.70  3077.22  3078.43  3081.08  3082.67  3083.96
eigval :     3084.44  3084.46  3084.82  3084.86  3086.14  3086.68
eigval :     3087.44  3087.55  3088.01  3088.75  3089.17  3090.06
eigval :     3090.82  3093.00  3094.20  3095.77  3096.44  3096.52
eigval :     3097.02  3098.37  3098.82  3100.15  3103.42  3104.63

   temp. (K)  partition function   enthalpy   heat capacity  entropy
                                   cal/mol     cal/K/mol   cal/K/mol   J/K/mol
 298.15  VIB  0.171E+23            27432.482    170.018    172.475
         ROT  0.177E+09              888.752      2.981     40.720
         INT  0.302E+31            28321.235    172.999    213.196
         TR   0.197E+29             1481.254      4.968     45.691
         TOT                       29802.4887   177.9674   258.8864  1083.1808

       T/K    H(0)-H(T)+PV         H(T)/Eh          T*S/Eh         G(T)/Eh
   ------------------------------------------------------------------------
    298.15    0.474933E-01    0.742344E+00    0.123005E+00    0.619339E+00
   ------------------------------------------------------------------------

         :::::::::::::::::::::::::::::::::::::::::::::::::::::
         ::                  THERMODYNAMIC                  ::
         :::::::::::::::::::::::::::::::::::::::::::::::::::::
         :: total free energy        -147.966067427932 Eh   ::
         ::.................................................::
         :: total energy             -148.585406207321 Eh   ::
         :: zero point energy           0.694850785397 Eh   ::
         :: G(RRHO) w/o ZPVE           -0.075512006008 Eh   ::
         :: G(RRHO) contrib.            0.619338779389 Eh   ::
         :::::::::::::::::::::::::::::::::::::::::::::::::::::

           -------------------------------------------------
          | TOTAL ENERGY             -148.585406207321 Eh   |
          | TOTAL ENTHALPY           -147.843062133098 Eh   |
          | TOTAL FREE ENERGY        -147.966067427932 Eh   |
          | GRADIENT NORM               0.000040285408 Eh/α |
          | HOMO-LUMO GAP               0.599444832794 eV   |
           -------------------------------------------------

 * finished run on 2025/07/20 at 06:51:20.171
