   * xtb version 6.7.1 (edcfbbe) compiled by 'albert@albert-system' on 2024-07-22

   ID    Z sym.   atoms
    1    8 O      1, 10
    2    6 C      2-9, 11-15, 17-21, 23-41, 43-56, 58
    3    7 N      16, 22, 42, 57
    4    1 H      59-92

          program call               : xtb data2507/toluene/TPA-2/TPA-2_toluene_S0_finalOpt.xtbopt.xyz --gfn 2 --uhf 2 --gbsa toluene --ohess vtight --parallel 40 --molden --ceasefiles --namespace data2507/toluene/TPA-2/TPA-2_toluene_T1_preOpt
      * Solvation model:               GBSA
        Solvent                        toluene
        Solvent mass                       9.2140E+01 g/mol
          :  Hamiltonian                  GFN2-xTB          :
 * total energy  :  -148.5520964 Eh     change       -0.5189321E-08 Eh
 * total energy  :  -148.5549580 Eh     change       -0.2861519E-02 Eh
 * total energy  :  -148.5561839 Eh     change       -0.1225981E-02 Eh
 * total energy  :  -148.5564916 Eh     change       -0.3076818E-03 Eh
 * total energy  :  -148.5569154 Eh     change       -0.4237484E-03 Eh
 * total energy  :  -148.5571806 Eh     change       -0.2652711E-03 Eh
 * total energy  :  -148.5574180 Eh     change       -0.2373779E-03 Eh
 * total energy  :  -148.5575920 Eh     change       -0.1739799E-03 Eh
 * total energy  :  -148.5576541 Eh     change       -0.6207104E-04 Eh
 * total energy  :  -148.5577288 Eh     change       -0.7471271E-04 Eh
 * total energy  :  -148.5579093 Eh     change       -0.5973590E-06 Eh
 * total energy  :  -148.5579099 Eh     change       -0.5633535E-06 Eh
 * total energy  :  -148.5579103 Eh     change       -0.4186188E-06 Eh
 * total energy  :  -148.5579106 Eh     change       -0.2930467E-06 Eh
 * total energy  :  -148.5579108 Eh     change       -0.2174792E-06 Eh
 * total energy  :  -148.5579110 Eh     change       -0.2077711E-06 Eh
 * total energy  :  -148.5579112 Eh     change       -0.2326539E-06 Eh
 * total energy  :  -148.5579115 Eh     change       -0.2398438E-06 Eh
 * total energy  :  -148.5579115 Eh     change       -0.2137227E-08 Eh
   *** GEOMETRY OPTIMIZATION CONVERGED AFTER 44 ITERATIONS ***

 final structure:
================
92
 xtb: 6.7.1 (edcfbbe)
O           -7.99156840286109       -3.50147665425882       -0.44577578856640
C           -7.27165328313942       -2.51439887071083       -0.22884505588482
C           -7.83055246012768       -1.21988716800236        0.17258928391648
C           -9.21686854075338       -1.09425785298103        0.30657054362903
C           -9.78838679129156        0.10178102099586        0.68099594351613
C           -8.98079875826887        1.20767598550377        0.93344819131518
C           -7.61315530229370        1.10357774082020        0.80761292230341
C           -7.01772533071119       -0.10342143604095        0.42691314981694
C           -5.55803784378883       -0.15793669852430        0.30193069455367
O           -4.83865042506179        0.82110808273866        0.54206068548293
C           -5.02154148711314       -1.43665557241236       -0.11249404283897
C           -5.82454154280784       -2.56642353155133       -0.35750914249434
C           -5.21866848627691       -3.77729237526420       -0.73927411392210
C           -3.86231048366080       -3.90876732642798       -0.85411906475419
C           -3.02338186050973       -2.80663381854228       -0.59996753716702
N           -1.70238440831632       -2.89305189866721       -0.59985069729796
C           -0.92333395362373       -1.84978654394116       -0.38234009788135
C            0.50615381976164       -2.10875126523674       -0.25290373959620
C            1.08370458972237       -3.12550086640120       -1.01949579719689
C            2.42537131328912       -3.41260810077355       -0.91851393856148
C            3.24105373524692       -2.68905057949002       -0.04157329046314
N            4.60019018120895       -2.95998801538466        0.04982374750701
C            5.07140902237325       -4.27317607930471       -0.09195256982832
C            4.35932663933545       -5.33919004118765        0.45861919642571
C            4.83093682039376       -6.63089505630610        0.32512423402609
C            6.01597266116791       -6.87875487765971       -0.34983566279600
C            6.72782056539897       -5.82218882880504       -0.89561758037992
C            6.26132835349078       -4.52721902001225       -0.77379726287445
C            5.51451837718788       -1.91676422403011        0.25743481911538
C            6.62560543173674       -2.10512077000481        1.07933776399592
C            7.53613932241522       -1.08134048107466        1.25919369201615
C            7.35384313402718        0.13874389301223        0.62715853157283
C            6.24961161517231        0.33076292541659       -0.18834155039830
C            5.33234692834096       -0.68569823900366       -0.37288561925698
C            2.65802591964296       -1.69025420340278        0.74814598581174
C            1.31458923397221       -1.41097772191192        0.64953354643460
C           -1.51841133151900       -0.55264047413660       -0.26627431475697
C           -0.79159920451571        0.70761369802462       -0.25903108355058
C            0.40530882627905        0.90430266596742       -0.95540791560354
C            1.05570776571699        2.11490207636954       -0.90052981812611
C            0.52588368063241        3.17982743020275       -0.16055267673564
N            1.20071793541638        4.39033312096733       -0.08422637711201
C            0.48740410962150        5.59608363825416       -0.01100182981663
C           -0.66385409371078        5.77845797837273       -0.77751007786794
C           -1.36200987066885        6.96861622704416       -0.70730506837382
C           -0.92208507877589        7.99211411687570        0.11747726900462
C            0.22355369360431        7.81620254833265        0.87739176072363
C            0.92579087116633        6.62764195002681        0.81910618373514
C            2.60209058214647        4.41500481730982       -0.03448971591966
C            3.29933099862420        3.44557346732450        0.68696656430746
C            4.67831254631452        3.49111572378423        0.75684581792574
C            5.38041784847344        4.49522988654036        0.10865578152112
C            4.69195832286950        5.45741562751386       -0.61356841786426
C            3.31260441034504        5.42167820722370       -0.68836748928404
C           -0.69947955937643        2.99964802042200        0.49228181459382
C           -1.34422644184066        1.78634322072022        0.44207367875685
N           -2.83142354083398       -0.48840973036404       -0.17448721373595
C           -3.62047152293585       -1.53695575722058       -0.27433699556288
H           -9.81979299458889       -1.96835225362619        0.10498057775632
H          -10.86081449489237        0.18086109159862        0.77926372650158
H           -9.42576299561872        2.14669266637583        1.22733010552604
H           -6.96537665464185        1.94742196015717        0.99716854387867
H           -5.87738582181143       -4.61353713146794       -0.92591216469458
H           -3.40639578899211       -4.84855462730561       -1.12248460939665
H            0.46039708809928       -3.67483327121414       -1.70794779904995
H            2.85786467804647       -4.19108480298634       -1.52875881231179
H            3.44237575136770       -5.14616501833640        0.99591469161186
H            4.27333252537920       -7.44800575278676        0.75861144694644
H            6.38248351408772       -7.88925134577621       -0.44909912088624
H            7.64901263206595       -6.00823152982711       -1.42772966070694
H            6.81145149300646       -3.70624861224461       -1.20941732767879
H            6.76609738392847       -3.05452835296904        1.57471137681362
H            8.39102937123009       -1.23650547591131        1.90071845465117
H            8.07023143489279        0.93412645451413        0.76731176307842
H            6.10411756585596        1.27441745030922       -0.69222255209261
H            4.47850436814702       -0.53934596480009       -1.01748841347956
H            3.27020357257723       -1.15079438552151        1.45495444246748
H            0.87600709415231       -0.66369350582768        1.29304508785260
H            0.80946440344985        0.11045333572579       -1.56426831964479
H            1.97438484786059        2.25873229696666       -1.44895350161787
H           -1.00172063253457        4.98528198630915       -1.42827487404190
H           -2.25104944310596        7.09949745300921       -1.30637833763750
H           -1.46967909978502        8.92102325904407        0.16773365066159
H            0.56867132308504        8.60718753404021        1.52664876021955
H            1.81166936058002        6.48748163632926        1.42074166737223
H            2.75250262681592        2.67017208090040        1.20254678781650
H            5.20500079852382        2.74305436229844        1.32996237156277
H            6.45774067185700        4.52988143094389        0.16805468566580
H            5.23211529505776        6.23970006805159       -1.12601173700681
H            2.77648673100777        6.16918141909203       -1.25417155914789
H           -1.13184966689948        3.81544083488817        1.05169330616951
H           -2.28871877849543        1.64590723168758        0.94530166640248

          :  Hamiltonian                  GFN2-xTB          :
         :: gradient norm              0.000042475849 Eh/a0 ::
         :: HOMO-LUMO gap              0.938577716820 eV    ::
         :: SCC energy              -151.209176556474 Eh    ::
         :: -> dispersion             -0.134304323716 Eh    ::
         :: -> Gsolv                  -0.074399806218 Eh    ::
         :: repulsion energy           2.651265065553 Eh    ::

    * Orbital Energies and Occupations

         #    Occupation            Energy/Eh            Energy/eV
      -------------------------------------------------------------
         1        2.0000           -0.6941332             -18.8883
       ...           ...                  ...                  ...
       126        2.0000           -0.4139759             -11.2649
       127        2.0000           -0.4136373             -11.2556
       128        2.0000           -0.4132106             -11.2440
       129        2.0000           -0.4123183             -11.2198
       130        2.0000           -0.4123086             -11.2195
       131        2.0000           -0.4078419             -11.0979
       132        2.0000           -0.4048163             -11.0156
       133        2.0000           -0.3977889             -10.8244
       134        2.0000           -0.3842811             -10.4568
       135        1.9983           -0.3649726              -9.9314
       136        1.8463           -0.3605174              -9.8102
       137        1.1554           -0.3572883              -9.7223
       138        1.0000           -0.3273077              -8.9065 (HOMO)
       139                         -0.2928156              -7.9679 (LUMO)
       140                         -0.2821482              -7.6776
       141                         -0.2566895              -6.9849
       142                         -0.2408234              -6.5531
       143                         -0.2392339              -6.5099
       144                         -0.2389960              -6.5034
       145                         -0.2388431              -6.4993
       146                         -0.2351510              -6.3988
       147                         -0.2327000              -6.3321
       148                         -0.2324176              -6.3244
       149                         -0.2299681              -6.2578
       ...                                ...                  ...
       266                          0.7169276              19.5086
      -------------------------------------------------------------
                  HL-Gap            0.0344921 Eh            0.9386 eV

     #   Z          covCN         q      C6AA      α(0)
     1   8 O        0.857    -0.478    23.313     6.474
     2   6 C        2.834     0.201    23.731     7.983
     3   6 C        2.975    -0.022    28.560     8.766
     4   6 C        2.923    -0.019    28.481     8.752
     5   6 C        2.917    -0.026    28.660     8.779
     6   6 C        2.917    -0.026    28.652     8.778
     7   6 C        2.923    -0.020    28.513     8.757
     8   6 C        2.978    -0.020    28.489     8.755
     9   6 C        2.835     0.205    23.656     7.970
    10   8 O        0.858    -0.428    22.256     6.325
    11   6 C        2.976    -0.044    29.092     8.847
    12   6 C        2.971    -0.032    28.798     8.802
    13   6 C        2.920    -0.018    28.451     8.747
    14   6 C        2.912    -0.055    29.369     8.886
    15   6 C        2.947     0.087    26.057     8.372
    16   7 N        1.855    -0.214    26.501     7.630
    17   6 C        2.938     0.081    26.188     8.393
    18   6 C        2.979     0.000    28.014     8.682
    19   6 C        2.924    -0.025    28.638     8.776
    20   6 C        2.919    -0.044    29.093     8.845
    21   6 C        2.924     0.069    26.459     8.435
    22   7 N        2.752    -0.051    22.234     7.003
    23   6 C        2.925     0.063    26.595     8.457
    24   6 C        2.922    -0.044    29.100     8.846
    25   6 C        2.919    -0.027    28.681     8.782
    26   6 C        2.919    -0.033    28.834     8.806
    27   6 C        2.919    -0.027    28.685     8.783
    28   6 C        2.921    -0.044    29.086     8.844
    29   6 C        2.925     0.063    26.599     8.458
    30   6 C        2.921    -0.043    29.075     8.842
    31   6 C        2.919    -0.027    28.683     8.783
    32   6 C        2.919    -0.033    28.833     8.805
    33   6 C        2.919    -0.027    28.688     8.783
    34   6 C        2.922    -0.044    29.102     8.847
    35   6 C        2.920    -0.044    29.100     8.846
    36   6 C        2.920    -0.028    28.711     8.787
    37   6 C        2.935     0.083    26.154     8.387
    38   6 C        2.979     0.001    28.008     8.681
    39   6 C        2.919    -0.030    28.738     8.791
    40   6 C        2.920    -0.045    29.121     8.849
    41   6 C        2.924     0.069    26.445     8.433
    42   7 N        2.752    -0.049    22.193     6.997
    43   6 C        2.925     0.063    26.592     8.457
    44   6 C        2.922    -0.043    29.073     8.842
    45   6 C        2.919    -0.027    28.672     8.781
    46   6 C        2.919    -0.033    28.820     8.803
    47   6 C        2.919    -0.027    28.682     8.782
    48   6 C        2.921    -0.043    29.077     8.843
    49   6 C        2.925     0.063    26.597     8.457
    50   6 C        2.922    -0.044    29.092     8.845
    51   6 C        2.919    -0.027    28.681     8.782
    52   6 C        2.919    -0.033    28.826     8.804
    53   6 C        2.919    -0.027    28.678     8.782
    54   6 C        2.921    -0.043    29.067     8.841
    55   6 C        2.919    -0.043    29.068     8.841
    56   6 C        2.925    -0.024    28.603     8.771
    57   7 N        1.861    -0.175    25.606     7.500
    58   6 C        2.950     0.098    25.818     8.334
    59   1 H        0.926     0.051     2.308     2.376
    60   1 H        0.926     0.049     2.332     2.388
    61   1 H        0.926     0.050     2.314     2.379
    62   1 H        0.926     0.054     2.273     2.358
    63   1 H        0.926     0.060     2.195     2.317
    64   1 H        0.926     0.064     2.154     2.295
    65   1 H        0.926     0.051     2.302     2.373
    66   1 H        0.926     0.049     2.331     2.388
    67   1 H        0.926     0.038     2.476     2.460
    68   1 H        0.926     0.039     2.457     2.451
    69   1 H        0.926     0.038     2.471     2.458
    70   1 H        0.926     0.040     2.443     2.444
    71   1 H        0.926     0.040     2.447     2.446
    72   1 H        0.926     0.039     2.468     2.456
    73   1 H        0.926     0.040     2.450     2.448
    74   1 H        0.926     0.040     2.454     2.449
    75   1 H        0.926     0.044     2.398     2.422
    76   1 H        0.926     0.038     2.474     2.460
    77   1 H        0.926     0.049     2.329     2.387
    78   1 H        0.926     0.040     2.450     2.448
    79   1 H        0.926     0.043     2.409     2.427
    80   1 H        0.926     0.050     2.315     2.380
    81   1 H        0.926     0.038     2.480     2.463
    82   1 H        0.926     0.039     2.458     2.451
    83   1 H        0.926     0.039     2.460     2.453
    84   1 H        0.926     0.042     2.428     2.437
    85   1 H        0.926     0.041     2.434     2.440
    86   1 H        0.926     0.038     2.471     2.458
    87   1 H        0.926     0.044     2.391     2.418
    88   1 H        0.926     0.041     2.442     2.444
    89   1 H        0.926     0.041     2.438     2.442
    90   1 H        0.926     0.039     2.461     2.453
    91   1 H        0.926     0.047     2.359     2.402
    92   1 H        0.926     0.061     2.189     2.313

molecular dipole:
                 x           y           z       tot (Debye)
 q only:        7.706       2.396       0.100
   full:        7.381       2.296       0.094      19.648

 projected vibrational frequencies (cm⁻¹)
eigval :       -0.00    -0.00    -0.00    -0.00     0.00     0.00
eigval :        8.87    12.46    15.87    22.18    24.59    26.66
eigval :       37.90    43.27    43.86    45.89    50.84    53.35
eigval :       57.89    63.67    72.81    77.19    82.46    85.27
eigval :      101.56   106.17   115.04   118.05   132.05   146.38
eigval :      155.47   167.43   171.07   186.71   200.55   215.07
eigval :      231.45   232.50   241.02   251.46   252.21   280.74
eigval :      295.11   301.00   312.09   317.80   324.56   339.46
eigval :      347.77   366.01   368.86   375.07   377.71   377.94
eigval :      380.91   383.28   384.93   388.94   390.14   396.09
eigval :      398.88   409.27   416.32   432.03   456.35   468.43
eigval :      480.13   485.39   489.76   492.31   502.20   509.95
eigval :      523.48   530.84   546.10   563.44   568.67   583.14
eigval :      584.78   585.02   587.88   593.06   593.74   600.22
eigval :      607.06   613.32   621.79   624.97   651.95   655.08
eigval :      659.71   660.07   662.30   662.82   665.29   671.52
eigval :      683.34   687.71   693.37   717.60   719.61   740.94
eigval :      742.56   754.11   758.00   758.72   761.29   764.73
eigval :      782.61   801.04   818.69   822.30   845.27   862.55
eigval :      865.31   871.53   872.44   873.01   875.77   876.56
eigval :      888.05   894.58   896.77   897.07   898.25   902.51
eigval :      907.37   909.09   909.20   916.65   918.34   921.09
eigval :      922.06   926.47   926.85   927.34   928.05   928.36
eigval :      929.47   930.00   930.19   930.71   932.56   938.93
eigval :      954.08   981.58   988.59  1003.44  1003.80  1008.97
eigval :     1021.86  1033.83  1069.62  1080.39  1080.50  1081.58
eigval :     1081.69  1081.92  1100.51  1114.30  1120.11  1120.74
eigval :     1122.05  1122.99  1140.24  1141.97  1164.50  1167.14
eigval :     1176.81  1177.17  1178.29  1178.99  1180.49  1183.74
eigval :     1188.63  1189.02  1191.74  1193.57  1201.07  1209.71
eigval :     1212.04  1220.22  1224.55  1244.31  1254.54  1263.96
eigval :     1265.61  1267.14  1274.49  1274.72  1278.29  1278.71
eigval :     1286.11  1296.00  1300.10  1302.42  1310.96  1314.59
eigval :     1314.71  1316.83  1323.10  1323.29  1325.82  1328.97
eigval :     1339.69  1347.33  1379.89  1399.82  1412.26  1415.15
eigval :     1418.65  1424.14  1432.82  1432.92  1437.91  1438.39
eigval :     1446.33  1450.93  1462.25  1463.10  1463.60  1464.25
eigval :     1474.19  1477.85  1503.91  1529.09  1536.74  1539.34
eigval :     1549.48  1554.87  1559.29  1572.39  1572.64  1573.59
eigval :     1575.70  1577.82  1581.23  1583.75  1585.03  1585.27
eigval :     1592.96  1593.09  3076.20  3077.35  3077.54  3078.20
eigval :     3078.49  3078.81  3079.29  3080.07  3081.70  3082.53
eigval :     3083.07  3085.47  3086.76  3087.19  3087.29  3087.95
eigval :     3088.36  3089.18  3089.79  3090.64  3090.74  3091.82
eigval :     3092.31  3092.88  3093.13  3097.52  3098.22  3098.37
eigval :     3099.16  3099.38  3099.91  3101.54  3103.15  3105.63

   temp. (K)  partition function   enthalpy   heat capacity  entropy
                                   cal/mol     cal/K/mol   cal/K/mol   J/K/mol
 298.15  VIB  0.584E+22            27411.853    171.072    171.779
         ROT  0.174E+09              888.752      2.981     40.693
         INT  0.102E+31            28300.605    174.052    212.472
         TR   0.197E+29             1481.254      4.968     45.691
         TOT                       29781.8591   179.0206   258.1632  1080.1547

       T/K    H(0)-H(T)+PV         H(T)/Eh          T*S/Eh         G(T)/Eh
   ------------------------------------------------------------------------
    298.15    0.474604E-01    0.740680E+00    0.122662E+00    0.618018E+00
   ------------------------------------------------------------------------

         :::::::::::::::::::::::::::::::::::::::::::::::::::::
         ::                  THERMODYNAMIC                  ::
         :::::::::::::::::::::::::::::::::::::::::::::::::::::
         :: total free energy        -147.939893063817 Eh   ::
         ::.................................................::
         :: total energy             -148.557911485705 Eh   ::
         :: zero point energy           0.693219660515 Eh   ::
         :: G(RRHO) w/o ZPVE           -0.075201238626 Eh   ::
         :: G(RRHO) contrib.            0.618018421889 Eh   ::
         :::::::::::::::::::::::::::::::::::::::::::::::::::::

           -------------------------------------------------
          | TOTAL ENERGY             -148.557911485705 Eh   |
          | TOTAL ENTHALPY           -147.817231411797 Eh   |
          | TOTAL FREE ENERGY        -147.939893063817 Eh   |
          | GRADIENT NORM               0.000042511905 Eh/α |
          | HOMO-LUMO GAP               0.938578834900 eV   |
           -------------------------------------------------

 * finished run on 2025/07/20 at 06:59:34.255
