   * xtb version 6.7.1 (edcfbbe) compiled by 'albert@albert-system' on 2024-07-22

   ID    Z sym.   atoms
    1    8 O      1, 10
    2    6 C      2-9, 11-15, 17-21, 23-41, 43-56, 58
    3    7 N      16, 22, 42, 57
    4    1 H      59-92

          program call               : xtb data2507/toluene/TPA-2/TPA-2_toluene_S0_crest.xyz --gfn 2 --gbsa toluene --ohess vtight --parallel 40 --molden --ceasefiles --namespace data2507/toluene/TPA-2/TPA-2_toluene_S0_finalOpt
      * Solvation model:               GBSA
        Solvent                        toluene
        Solvent mass                       9.2140E+01 g/mol
          :  Hamiltonian                  GFN2-xTB          :
 * total energy  :  -148.5836090 Eh     change       -0.2331859E-08 Eh
 * total energy  :  -148.5837900 Eh     change       -0.1809987E-03 Eh
 * total energy  :  -148.5839185 Eh     change       -0.1284900E-03 Eh
 * total energy  :  -148.5839718 Eh     change       -0.5323030E-04 Eh
 * total energy  :  -148.5840476 Eh     change       -0.7582961E-04 Eh
 * total energy  :  -148.5841123 Eh     change       -0.6473689E-04 Eh
 * total energy  :  -148.5841581 Eh     change       -0.4577198E-04 Eh
 * total energy  :  -148.5841974 Eh     change       -0.3926937E-04 Eh
 * total energy  :  -148.5842211 Eh     change       -0.2372984E-04 Eh
 * total energy  :  -148.5842644 Eh     change       -0.4327605E-04 Eh
 * total energy  :  -148.5853043 Eh     change       -0.5908869E-06 Eh
 * total energy  :  -148.5853049 Eh     change       -0.5891939E-06 Eh
 * total energy  :  -148.5853054 Eh     change       -0.5898368E-06 Eh
 * total energy  :  -148.5853060 Eh     change       -0.5940587E-06 Eh
 * total energy  :  -148.5853066 Eh     change       -0.6015743E-06 Eh
 * total energy  :  -148.5853073 Eh     change       -0.6118574E-06 Eh
 * total energy  :  -148.5853079 Eh     change       -0.6249940E-06 Eh
 * total energy  :  -148.5853085 Eh     change       -0.6411727E-06 Eh
 * total energy  :  -148.5853085 Eh     change       -0.3254371E-08 Eh
   *** GEOMETRY OPTIMIZATION CONVERGED AFTER 185 ITERATIONS ***

 final structure:
================
92
 xtb: 6.7.1 (edcfbbe)
O           -7.95499543425202       -3.50871557576860       -0.46701446996764
C           -7.26637359108437       -2.52563343514421       -0.22498696641469
C           -7.86025450326925       -1.24150327501837        0.19098707043839
C           -9.24530936077304       -1.09021778412754        0.16346633896678
C           -9.83039124829231        0.10511851702093        0.53988794839976
C           -9.03661955948222        1.16141855350375        0.96344613974189
C           -7.66145456355953        1.01707169852208        1.01224170302655
C           -7.05949563249798       -0.17582011944198        0.62122417519107
C           -5.58686039512399       -0.30101032530525        0.70709089876725
O           -4.91655118975566        0.51069514062828        1.32633534367230
C           -5.00858244870154       -1.46924042834517        0.02398986018761
C           -5.79877549208817       -2.54631547730805       -0.37495723507347
C           -5.21567727121923       -3.69058242326881       -0.95228656767126
C           -3.86162199868245       -3.79844340769128       -1.11719457702050
C           -3.03344599456290       -2.72936279946166       -0.73414756261696
N           -1.69679608670112       -2.85826465781539       -0.75682366251261
C           -0.93313662922925       -1.84309272855806       -0.41383454494147
C            0.48529113179220       -2.11811208381937       -0.25011527418541
C            1.06435781366768       -3.16754927944302       -0.97306918675149
C            2.40458715009937       -3.45025159080256       -0.86330616884318
C            3.22251261103932       -2.69347016592408       -0.01500422609866
N            4.58194167070139       -2.94935273023003        0.07560549202408
C            5.06952317343860       -4.26010565776845       -0.04865022784650
C            4.38270104565513       -5.32360078500094        0.53591971269249
C            4.87134346036597       -6.61128633061971        0.42329364101621
C            6.04988187418244       -6.85652450810298       -0.26319544953209
C            6.73683272217219       -5.80192694565930       -0.84288871811547
C            6.25190031862396       -4.51159838995983       -0.74292745149191
C            5.49051967602647       -1.89299943573669        0.25299928485962
C            6.60366016261902       -2.05143229795187        1.07697573455722
C            7.51093591819783       -1.01903264140324        1.22309383412546
C            7.32142404088090        0.18084723659678        0.55624652919211
C            6.21419899729902        0.34351070528285       -0.26105261368588
C            5.30177431852306       -0.68293990474958       -0.41337253976811
C            2.63610570463534       -1.67284840050129        0.74447824036281
C            1.29364442436395       -1.39578650341218        0.63498777088781
C           -1.53546803903431       -0.54117131456154       -0.23740966297675
C           -0.80583512004220        0.71839349638502       -0.25838028013886
C            0.38069104183717        0.90606821149871       -0.97422361807445
C            1.04206734174913        2.11173392817894       -0.92966951725231
C            0.53506308539287        3.17987705727750       -0.17989357891703
N            1.22425943384568        4.38322652039335       -0.11017059859268
C            0.52335088243147        5.59660011168440       -0.03069262625052
C           -0.63044339873473        5.79066050177455       -0.78941447974334
C           -1.31840026386356        6.98666436511753       -0.71407629312301
C           -0.86435165568457        8.00625998301198        0.10722396301504
C            0.28446474238430        7.81923464778902        0.85904185531246
C            0.97493377315774        6.62373250979467        0.79676933312309
C            2.62676121890045        4.39119281382357       -0.05831541660172
C            3.31095636206488        3.41877321048781        0.67017758095512
C            4.69039136892103        3.44765537553938        0.74337895197876
C            5.40613738604392        4.44010915919506        0.09289390138477
C            4.73063923081278        5.40575899918142       -0.63619364646500
C            3.35100682602405        5.38461152179874       -0.71579281958378
C           -0.68073369788883        3.00945474642611        0.49261148513962
C           -1.33783584914872        1.80300575083139        0.44895544788725
N           -2.83622259517456       -0.44843145323439       -0.08618495600183
C           -3.61362717669986       -1.52810882570834       -0.22451798237008
H           -9.84338374050443       -1.92914467624134       -0.16148737709020
H          -10.90394008545926        0.21284041477354        0.50565864440565
H           -9.49000176499535        2.09535801808218        1.25942760825440
H           -7.02526011318555        1.82282628610096        1.34838303801316
H           -5.87841696672593       -4.49466987103484       -1.23736300103779
H           -3.40564887394893       -4.69443490744628       -1.50910534074804
H            0.43817859147412       -3.73531133487118       -1.64352827821176
H            2.83927548725050       -4.24724881224564       -1.44776359632572
H            3.47015289516267       -5.13204889472692        1.08144979627037
H            4.33213256508784       -7.42673931187259        0.88271806588347
H            6.43067741777365       -7.86333421315903       -0.34541202383079
H            7.65344056058000       -5.98554823381595       -1.38394441463806
H            6.78423872599903       -3.69186936541552       -1.20266388473138
H            6.75118080868133       -2.98625588826437        1.59761784460673
H            8.36909631629902       -1.15191419987143        1.86547351013680
H            8.03459802991993        0.98329755717803        0.67048666625479
H            6.06176578928074        1.27191632533160       -0.79088333042620
H            4.44440068378883       -0.55870166902642       -1.05829111634705
H            3.24819584260604       -1.11015882979392        1.43332716935087
H            0.85543494697997       -0.63107078064117        1.25831755256130
H            0.77009676199337        0.10909163785007       -1.58955548907930
H            1.95646810353184        2.24656598780825       -1.48796465248043
H           -0.98011746368531        4.99973150212019       -1.43693270688967
H           -2.21041732703322        7.12522168071476       -1.30733774629322
H           -1.40283437246704        8.94042315945017        0.16101021660717
H            0.64210512795823        8.60708211193832        1.50568383163964
H            1.86483301740616        6.47663152314315        1.39107771316642
H            2.75383828912714        2.65085484899502        1.18637849382572
H            5.20663867184677        2.69496743297822        1.32040076618490
H            6.48369662000889        4.46280519943099        0.15572181440699
H            5.28115196168428        6.17994038158841       -1.15036269036963
H            2.82509789846971        6.13707224166709       -1.28496710959912
H           -1.09198518672438        3.82815176588003        1.06403762420188
H           -2.26687064893571        1.66062219619297        0.97970060634841

          :  Hamiltonian                  GFN2-xTB          :
         :: gradient norm              0.000054831799 Eh/a0 ::
         :: HOMO-LUMO gap              0.594302799363 eV    ::
         :: SCC energy              -151.233604537112 Eh    ::
         :: -> dispersion             -0.134385689824 Eh    ::
         :: -> Gsolv                  -0.067110511028 Eh    ::
         :: repulsion energy           2.648296017129 Eh    ::

    * Orbital Energies and Occupations

         #    Occupation            Energy/Eh            Energy/eV
      -------------------------------------------------------------
         1        2.0000           -0.7173161             -19.5192
       ...           ...                  ...                  ...
       125        2.0000           -0.4127179             -11.2306
       126        2.0000           -0.4126136             -11.2278
       127        2.0000           -0.4114261             -11.1955
       128        2.0000           -0.4109656             -11.1829
       129        2.0000           -0.4101656             -11.1612
       130        2.0000           -0.4089777             -11.1289
       131        2.0000           -0.4086329             -11.1195
       132        2.0000           -0.4079073             -11.0997
       133        2.0000           -0.4001054             -10.8874
       134        2.0000           -0.3971085             -10.8059
       135        2.0000           -0.3619740              -9.8498
       136        2.0000           -0.3565362              -9.7018
       137        2.0000           -0.3547713              -9.6538 (HOMO)
       138        0.0000           -0.3329311              -9.0595 (LUMO)
       139                         -0.2939097              -7.9977
       140                         -0.2823217              -7.6824
       141                         -0.2656043              -7.2275
       142                         -0.2406762              -6.5491
       143                         -0.2366156              -6.4386
       144                         -0.2354672              -6.4074
       145                         -0.2350023              -6.3947
       146                         -0.2341420              -6.3713
       147                         -0.2310880              -6.2882
       148                         -0.2290272              -6.2321
       ...                                ...                  ...
       266                          0.7174700              19.5234
      -------------------------------------------------------------
                  HL-Gap            0.0218402 Eh            0.5943 eV

     #   Z          covCN         q      C6AA      α(0)
     1   8 O        0.858    -0.410    21.891     6.273
     2   6 C        2.831     0.223    23.315     7.913
     3   6 C        2.975    -0.016    28.398     8.741
     4   6 C        2.923    -0.014    28.357     8.733
     5   6 C        2.917    -0.019    28.472     8.750
     6   6 C        2.918    -0.017    28.443     8.746
     7   6 C        2.923    -0.014    28.367     8.734
     8   6 C        2.976    -0.015    28.387     8.740
     9   6 C        2.828     0.226    23.251     7.901
    10   8 O        0.858    -0.390    21.488     6.215
    11   6 C        2.970    -0.033    28.806     8.804
    12   6 C        2.973    -0.021    28.523     8.760
    13   6 C        2.921    -0.023    28.576     8.766
    14   6 C        2.914    -0.040    28.990     8.829
    15   6 C        2.957     0.081    26.189     8.394
    16   7 N        1.854    -0.252    27.414     7.760
    17   6 C        2.942     0.092    25.966     8.357
    18   6 C        2.980    -0.007    28.185     8.708
    19   6 C        2.924    -0.025    28.637     8.776
    20   6 C        2.919    -0.047    29.158     8.855
    21   6 C        2.923     0.071    26.405     8.427
    22   7 N        2.752    -0.062    22.434     7.035
    23   6 C        2.925     0.063    26.589     8.456
    24   6 C        2.922    -0.046    29.130     8.851
    25   6 C        2.919    -0.028    28.708     8.786
    26   6 C        2.919    -0.036    28.886     8.813
    27   6 C        2.919    -0.028    28.710     8.787
    28   6 C        2.922    -0.045    29.119     8.849
    29   6 C        2.925     0.063    26.592     8.457
    30   6 C        2.922    -0.045    29.110     8.848
    31   6 C        2.919    -0.028    28.711     8.787
    32   6 C        2.919    -0.035    28.880     8.813
    33   6 C        2.919    -0.028    28.702     8.785
    34   6 C        2.922    -0.045    29.124     8.850
    35   6 C        2.920    -0.047    29.157     8.855
    36   6 C        2.920    -0.028    28.700     8.785
    37   6 C        2.944     0.092    25.959     8.356
    38   6 C        2.982    -0.007    28.184     8.708
    39   6 C        2.919    -0.030    28.752     8.793
    40   6 C        2.920    -0.047    29.179     8.858
    41   6 C        2.924     0.071    26.420     8.429
    42   7 N        2.752    -0.065    22.497     7.045
    43   6 C        2.925     0.063    26.578     8.454
    44   6 C        2.922    -0.046    29.135     8.852
    45   6 C        2.919    -0.029    28.715     8.787
    46   6 C        2.919    -0.036    28.902     8.816
    47   6 C        2.919    -0.029    28.719     8.788
    48   6 C        2.922    -0.046    29.133     8.851
    49   6 C        2.925     0.063    26.580     8.455
    50   6 C        2.922    -0.046    29.139     8.852
    51   6 C        2.919    -0.028    28.711     8.787
    52   6 C        2.919    -0.036    28.901     8.816
    53   6 C        2.919    -0.029    28.720     8.788
    54   6 C        2.922    -0.045    29.126     8.850
    55   6 C        2.919    -0.046    29.146     8.853
    56   6 C        2.925    -0.026    28.642     8.777
    57   7 N        1.856    -0.241    27.148     7.723
    58   6 C        2.956     0.092    25.962     8.357
    59   1 H        0.926     0.063     2.160     2.298
    60   1 H        0.926     0.062     2.179     2.308
    61   1 H        0.926     0.062     2.172     2.305
    62   1 H        0.926     0.064     2.148     2.292
    63   1 H        0.926     0.067     2.121     2.278
    64   1 H        0.926     0.066     2.132     2.283
    65   1 H        0.926     0.054     2.271     2.357
    66   1 H        0.926     0.046     2.374     2.410
    67   1 H        0.926     0.035     2.514     2.480
    68   1 H        0.926     0.037     2.484     2.465
    69   1 H        0.926     0.036     2.498     2.472
    70   1 H        0.926     0.038     2.474     2.460
    71   1 H        0.926     0.037     2.490     2.468
    72   1 H        0.926     0.036     2.500     2.473
    73   1 H        0.926     0.038     2.477     2.461
    74   1 H        0.926     0.037     2.487     2.466
    75   1 H        0.926     0.040     2.443     2.444
    76   1 H        0.926     0.034     2.527     2.486
    77   1 H        0.926     0.044     2.394     2.420
    78   1 H        0.926     0.035     2.511     2.478
    79   1 H        0.926     0.036     2.509     2.477
    80   1 H        0.926     0.044     2.401     2.423
    81   1 H        0.926     0.034     2.534     2.489
    82   1 H        0.926     0.036     2.498     2.472
    83   1 H        0.926     0.036     2.506     2.475
    84   1 H        0.926     0.038     2.481     2.463
    85   1 H        0.926     0.036     2.499     2.472
    86   1 H        0.926     0.033     2.544     2.494
    87   1 H        0.926     0.040     2.453     2.449
    88   1 H        0.926     0.037     2.496     2.470
    89   1 H        0.926     0.037     2.486     2.466
    90   1 H        0.926     0.035     2.512     2.478
    91   1 H        0.926     0.043     2.413     2.429
    92   1 H        0.926     0.059     2.215     2.327

molecular dipole:
                 x           y           z       tot (Debye)
 q only:        3.584       1.609      -0.234
   full:        3.393       1.499      -0.249       9.450

 projected vibrational frequencies (cm⁻¹)
eigval :       -0.00    -0.00    -0.00     0.00     0.00     0.00
eigval :       10.38    13.41    17.39    20.44    22.55    25.97
eigval :       33.59    40.52    41.42    45.54    48.23    52.69
eigval :       58.00    63.56    71.51    75.25    81.71    83.41
eigval :      101.52   103.19   104.44   118.79   127.00   144.57
eigval :      154.34   167.29   171.59   184.29   199.20   214.28
eigval :      233.08   233.47   241.01   246.79   253.59   279.13
eigval :      297.41   300.82   311.36   320.83   320.87   343.54
eigval :      347.67   365.17   366.93   370.67   376.64   378.14
eigval :      379.80   382.55   384.59   386.69   395.71   397.35
eigval :      398.73   405.71   415.81   430.40   443.03   470.07
eigval :      472.67   481.38   488.07   492.75   496.74   505.29
eigval :      516.55   536.17   552.12   566.80   572.35   583.88
eigval :      585.54   586.22   588.09   593.44   594.56   604.37
eigval :      609.53   614.75   623.71   639.36   650.77   656.77
eigval :      659.90   661.15   665.05   670.30   676.07   681.65
eigval :      689.41   691.56   707.50   721.31   741.17   749.07
eigval :      756.95   757.34   758.15   762.59   764.09   771.85
eigval :      789.66   821.37   822.95   838.17   847.03   864.84
eigval :      867.38   872.73   873.05   873.51   876.44   879.70
eigval :      893.57   894.26   894.87   895.19   896.37   904.93
eigval :      909.39   909.43   917.58   919.55   921.37   923.32
eigval :      926.12   926.48   927.31   927.95   928.60   928.82
eigval :      929.49   929.91   930.50   932.09   934.55   937.92
eigval :      960.06   982.21   990.02  1004.30  1004.49  1008.48
eigval :     1021.62  1032.03  1068.37  1080.99  1081.18  1082.15
eigval :     1082.33  1085.19  1097.61  1113.24  1120.06  1120.59
eigval :     1121.86  1122.62  1139.35  1140.46  1159.27  1170.46
eigval :     1176.81  1177.36  1179.30  1180.88  1182.63  1184.50
eigval :     1190.54  1192.40  1192.62  1194.02  1200.53  1210.99
eigval :     1213.61  1218.73  1242.43  1253.94  1265.29  1266.57
eigval :     1267.94  1275.39  1275.88  1278.95  1279.99  1290.50
eigval :     1297.56  1302.38  1306.26  1314.75  1315.65  1317.03
eigval :     1322.72  1323.37  1325.09  1325.95  1330.86  1334.21
eigval :     1336.65  1366.84  1382.66  1413.22  1416.66  1418.08
eigval :     1424.51  1433.77  1433.96  1439.45  1439.71  1449.32
eigval :     1455.73  1465.20  1466.56  1468.92  1469.90  1481.78
eigval :     1483.71  1488.51  1510.56  1538.85  1541.64  1559.83
eigval :     1570.30  1574.03  1576.01  1576.16  1578.14  1579.72
eigval :     1581.79  1586.49  1589.40  1589.87  1596.02  1597.05
eigval :     1626.51  1645.96  3074.53  3075.00  3075.09  3075.72
eigval :     3075.96  3076.44  3079.46  3080.20  3083.50  3083.56
eigval :     3084.11  3084.59  3084.99  3085.50  3085.92  3086.83
eigval :     3087.24  3087.29  3087.45  3088.17  3089.22  3089.36
eigval :     3090.05  3092.51  3094.99  3095.60  3096.30  3096.70
eigval :     3097.62  3098.20  3098.83  3099.65  3103.24  3104.68

   temp. (K)  partition function   enthalpy   heat capacity  entropy
                                   cal/mol     cal/K/mol   cal/K/mol   J/K/mol
 298.15  VIB  0.827E+22            27421.399    170.220    171.941
         ROT  0.175E+09              888.752      2.981     40.695
         INT  0.144E+31            28310.151    173.200    212.636
         TR   0.197E+29             1481.254      4.968     45.691
         TOT                       29791.4049   178.1686   258.3269  1080.8397

       T/K    H(0)-H(T)+PV         H(T)/Eh          T*S/Eh         G(T)/Eh
   ------------------------------------------------------------------------
    298.15    0.474756E-01    0.742261E+00    0.122739E+00    0.619522E+00
   ------------------------------------------------------------------------

         :::::::::::::::::::::::::::::::::::::::::::::::::::::
         ::                  THERMODYNAMIC                  ::
         :::::::::::::::::::::::::::::::::::::::::::::::::::::
         :: total free energy        -147.965786930202 Eh   ::
         ::.................................................::
         :: total energy             -148.585308518815 Eh   ::
         :: zero point energy           0.694785398989 Eh   ::
         :: G(RRHO) w/o ZPVE           -0.075263810377 Eh   ::
         :: G(RRHO) contrib.            0.619521588613 Eh   ::
         :::::::::::::::::::::::::::::::::::::::::::::::::::::

           -------------------------------------------------
          | TOTAL ENERGY             -148.585308518815 Eh   |
          | TOTAL ENTHALPY           -147.843047494177 Eh   |
          | TOTAL FREE ENERGY        -147.965786930202 Eh   |
          | GRADIENT NORM               0.000054829855 Eh/α |
          | HOMO-LUMO GAP               0.594303041183 eV   |
           -------------------------------------------------

 * finished run on 2025/07/20 at 06:59:23.215
