   * xtb version 6.7.1 (edcfbbe) compiled by 'albert@albert-system' on 2024-07-22

   ID    Z sym.   atoms
    1    8 O      1, 10
    2    6 C      2-9, 11-15, 17-21, 23-41, 43-56, 58
    3    7 N      16, 22, 42, 57
    4    1 H      59-92

          program call               : xtb data2507/toluene/TPA-2/TPA-2_toluene_T1_crest.xyz --gfn 2 --uhf 2 --gbsa toluene --ohess vtight --parallel 40 --molden --ceasefiles --namespace data2507/toluene/TPA-2/TPA-2_toluene_T1_finalOpt
      * Solvation model:               GBSA
        Solvent                        toluene
        Solvent mass                       9.2140E+01 g/mol
          :  Hamiltonian                  GFN2-xTB          :
 * total energy  :  -148.5561616 Eh     change       -0.1002809E-07 Eh
 * total energy  :  -148.5565102 Eh     change       -0.3485556E-03 Eh
 * total energy  :  -148.5567237 Eh     change       -0.2134787E-03 Eh
 * total energy  :  -148.5567822 Eh     change       -0.5857139E-04 Eh
 * total energy  :  -148.5568544 Eh     change       -0.7218327E-04 Eh
 * total energy  :  -148.5568965 Eh     change       -0.4208162E-04 Eh
 * total energy  :  -148.5569299 Eh     change       -0.3336131E-04 Eh
 * total energy  :  -148.5569628 Eh     change       -0.3289643E-04 Eh
 * total energy  :  -148.5569975 Eh     change       -0.3469846E-04 Eh
 * total energy  :  -148.5570297 Eh     change       -0.3226637E-04 Eh
 * total energy  :  -148.5578928 Eh     change       -0.8083705E-06 Eh
 * total energy  :  -148.5578934 Eh     change       -0.5827627E-06 Eh
 * total energy  :  -148.5578939 Eh     change       -0.5205946E-06 Eh
 * total energy  :  -148.5578945 Eh     change       -0.5803030E-06 Eh
 * total energy  :  -148.5578952 Eh     change       -0.7302378E-06 Eh
 * total energy  :  -148.5578961 Eh     change       -0.8496719E-06 Eh
 * total energy  :  -148.5578969 Eh     change       -0.8462894E-06 Eh
 * total energy  :  -148.5578977 Eh     change       -0.7490636E-06 Eh
 * total energy  :  -148.5578977 Eh     change       -0.4078629E-08 Eh
   *** GEOMETRY OPTIMIZATION CONVERGED AFTER 94 ITERATIONS ***

 final structure:
================
92
 xtb: 6.7.1 (edcfbbe)
O           -7.93839738854892       -3.65440649875557       -0.40715095925779
C           -7.23648695656642       -2.65333314359113       -0.19543611108619
C           -7.81974377418380       -1.36373115663763        0.18672570094736
C           -9.20927607387974       -1.25826663054526        0.30373134555401
C           -9.80340749374076       -0.06753899799233        0.65938376954703
C           -9.01582526879056        1.05299917351742        0.91041515786114
C           -7.64533665928141        0.96880990987844        0.80130362180439
C           -7.02714239334453       -0.23221642527639        0.43842172242034
C           -5.56569533747623       -0.26440257158544        0.32658247417172
O           -4.86423262735689        0.72814260007755        0.56416378625185
C           -5.00524943463511       -1.53765183294456       -0.07296447838981
C           -5.78777618236118       -2.68286695167462       -0.31258059616102
C           -5.15934164642784       -3.88718839366526       -0.67822469584521
C           -3.80024314970143       -3.99712233692906       -0.78299450883845
C           -2.98147258421681       -2.87830288383872       -0.53607182304625
N           -1.65917953394818       -2.94178641478839       -0.53089147445191
C           -0.89886140813717       -1.88247926916226       -0.32441226585845
C            0.53543334680404       -2.11334031905065       -0.19502423704705
C            1.12834968788701       -3.13279486559316       -0.94631190971079
C            2.47737428338513       -3.38682071961917       -0.85443900553492
C            3.28549162809777       -2.62401713897960       -0.00443236778549
N            4.65396804280105       -2.85272639191575        0.06877522591215
C            5.16070244556341       -4.15499663315508       -0.04628203225720
C            4.49032825775675       -5.22443029132980        0.54831355778253
C            4.99720377261478       -6.50537266692750        0.44341258880115
C            6.17643011326780       -6.73880357780455       -0.24670589000489
C            6.84594143869878       -5.67897588354077       -0.83787266418378
C            6.34417202574958       -4.39493601774770       -0.74440544814093
C            5.53988931424510       -1.77608809524915        0.22011562621756
C            6.67902759101419       -1.90525440217335        1.01469808636511
C            7.56246774317315       -0.84975004397436        1.13651402097162
C            7.32455208362501        0.34439362949884        0.47416368506508
C            6.19156289369670        0.47848640387676       -0.31292667469765
C            5.30164604075167       -0.57056083174387       -0.44031988143296
C            2.68694157846671       -1.62699154782133        0.77561393589634
C            1.33595496021403       -1.38246258089722        0.68815438527064
C           -1.51731791370874       -0.59492340947544       -0.22422562547624
C           -0.81314060206759        0.67831951358142       -0.23032265339643
C            0.37748574419051        0.89005450438633       -0.93304182057177
C            1.00856114341229        2.11119010065807       -0.88776198944614
C            0.46481546145570        3.17163136590760       -0.15147152799313
N            1.12281769741196        4.39184870697098       -0.08143397985401
C            0.39259191711925        5.58781512674709       -0.01485846842546
C           -0.75951139817620        5.75050250738252       -0.78447565225521
C           -1.47344519786485        6.93171960030830       -0.72221291341189
C           -1.04880472421119        7.96540593953810        0.09786093532756
C            0.09705035515616        7.80861069408105        0.86164965063128
C            0.81514457891741        6.62920414934159        0.81113927424029
C            2.52360056593072        4.43606575100881       -0.03217785572427
C            3.23461830977610        3.47682585882205        0.68958477471515
C            4.61294280078298        3.54046191155012        0.75769585451713
C            5.30080414856163        4.55382307781198        0.10861574118471
C            4.59878146350290        5.50636382754324       -0.61330393465707
C            3.22000914233125        5.45174752071147       -0.68735799257197
C           -0.75647768742573        2.97676567117797        0.50466092332247
C           -1.38176163423235        1.75283970574234        0.46422335648078
N           -2.83137505870932       -0.55260726589518       -0.13537508765160
C           -3.60180048938538       -1.61579190130874       -0.22644160138812
H           -9.79639975322372       -2.14348131640348        0.10413876598470
H          -10.87803575554983       -0.00406832453466        0.74391941449135
H           -9.47850202623014        1.98781809650048        1.19004235491828
H           -7.01297518262091        1.82453150201125        0.98972198975511
H           -5.80267161926768       -4.73624838102598       -0.86073323579103
H           -3.32695594540715       -4.93177067442673       -1.03902617701926
H            0.51076385986093       -3.70990085690869       -1.61695938558005
H            2.92163317893782       -4.16750963372156       -1.45333138887385
H            3.57812008178369       -5.04195789914804        1.09723714742567
H            4.47223259435238       -7.32503925917170        0.91146408294071
H            6.57085189429992       -7.74068061063778       -0.32347448935178
H            7.76173065145614       -5.85425810409676       -1.38281369892999
H            6.86130409261396       -3.57189323536823       -1.21515427495662
H            6.86270451905820       -2.83421780097085        1.53402230045987
H            8.44004042268782       -0.95954695979648        1.75642046714597
H            8.02059816867037        1.16404667666968        0.56865825247569
H            6.00217685379565        1.40207960555783       -0.83890865349474
H            4.42603053570564       -0.47008028666365       -1.06403745307624
H            3.29433612405795       -1.05996648488793        1.46476884442570
H            0.88633700696130       -0.63537707463479        1.32415294954676
H            0.79163928147172        0.09902678043006       -1.53882943412336
H            1.92278163168286        2.26674733428478       -1.44035785470892
H           -1.08545826901314        4.94923340962861       -1.43143092729013
H           -2.36272834784169        7.04773357078879       -1.32396490038621
H           -1.60847655080588        8.88742602501799        0.14151307387830
H            0.43004706903047        8.60751724631471        1.50755374259093
H            1.70134738524136        6.50371079701164        1.41552939938459
H            2.69861652560532        2.69495020708774        1.20663352069781
H            5.15064818744743        2.79883072171185        1.32896798854811
H            6.37755609610100        4.60306208156542        0.16703153753961
H            5.12787473641450        6.29576393851098       -1.12639024381403
H            2.67355006699807        6.19136851590500       -1.25359504504021
H           -1.20062215678769        3.78931306249750        1.05955914981356
H           -2.32259660156804        1.60058747616594        0.97084402252848

          :  Hamiltonian                  GFN2-xTB          :
         :: gradient norm              0.000056188663 Eh/a0 ::
         :: HOMO-LUMO gap              0.938823361912 eV    ::
         :: SCC energy              -151.209112659566 Eh    ::
         :: -> dispersion             -0.134529272561 Eh    ::
         :: -> Gsolv                  -0.074334860520 Eh    ::
         :: repulsion energy           2.651214972496 Eh    ::

    * Orbital Energies and Occupations

         #    Occupation            Energy/Eh            Energy/eV
      -------------------------------------------------------------
         1        2.0000           -0.6941198             -18.8880
       ...           ...                  ...                  ...
       126        2.0000           -0.4139743             -11.2648
       127        2.0000           -0.4136476             -11.2559
       128        2.0000           -0.4131961             -11.2436
       129        2.0000           -0.4123525             -11.2207
       130        2.0000           -0.4122544             -11.2180
       131        2.0000           -0.4078440             -11.0980
       132        2.0000           -0.4047478             -11.0137
       133        2.0000           -0.3977727             -10.8239
       134        2.0000           -0.3842805             -10.4568
       135        1.9983           -0.3649724              -9.9314
       136        1.8442           -0.3605295              -9.8105
       137        1.1575           -0.3573307              -9.7235
       138        1.0000           -0.3273086              -8.9065 (HOMO)
       139                         -0.2928075              -7.9677 (LUMO)
       140                         -0.2823039              -7.6819
       141                         -0.2567117              -6.9855
       142                         -0.2409583              -6.5568
       143                         -0.2392448              -6.5102
       144                         -0.2390310              -6.5044
       145                         -0.2388161              -6.4985
       146                         -0.2351101              -6.3977
       147                         -0.2327396              -6.3332
       148                         -0.2324727              -6.3259
       149                         -0.2299477              -6.2572
       ...                                ...                  ...
       266                          0.7169065              19.5080
      -------------------------------------------------------------
                  HL-Gap            0.0345011 Eh            0.9388 eV

     #   Z          covCN         q      C6AA      α(0)
     1   8 O        0.857    -0.478    23.313     6.474
     2   6 C        2.834     0.201    23.731     7.983
     3   6 C        2.975    -0.022    28.560     8.766
     4   6 C        2.923    -0.019    28.481     8.752
     5   6 C        2.917    -0.026    28.660     8.779
     6   6 C        2.917    -0.026    28.652     8.778
     7   6 C        2.923    -0.020    28.512     8.757
     8   6 C        2.978    -0.020    28.489     8.755
     9   6 C        2.835     0.205    23.655     7.970
    10   8 O        0.858    -0.428    22.256     6.325
    11   6 C        2.976    -0.044    29.092     8.847
    12   6 C        2.971    -0.032    28.797     8.802
    13   6 C        2.919    -0.018    28.451     8.747
    14   6 C        2.912    -0.055    29.370     8.887
    15   6 C        2.947     0.087    26.057     8.372
    16   7 N        1.855    -0.214    26.502     7.630
    17   6 C        2.938     0.081    26.190     8.393
    18   6 C        2.979     0.000    28.013     8.682
    19   6 C        2.924    -0.025    28.639     8.776
    20   6 C        2.919    -0.044    29.090     8.845
    21   6 C        2.924     0.069    26.460     8.436
    22   7 N        2.752    -0.052    22.237     7.004
    23   6 C        2.925     0.063    26.594     8.457
    24   6 C        2.922    -0.044    29.102     8.847
    25   6 C        2.919    -0.027    28.681     8.782
    26   6 C        2.919    -0.034    28.835     8.806
    27   6 C        2.919    -0.027    28.685     8.783
    28   6 C        2.921    -0.044    29.088     8.844
    29   6 C        2.925     0.063    26.598     8.458
    30   6 C        2.921    -0.043    29.077     8.843
    31   6 C        2.919    -0.027    28.684     8.783
    32   6 C        2.919    -0.033    28.833     8.805
    33   6 C        2.919    -0.027    28.681     8.782
    34   6 C        2.922    -0.044    29.103     8.847
    35   6 C        2.920    -0.044    29.095     8.845
    36   6 C        2.920    -0.028    28.712     8.787
    37   6 C        2.935     0.083    26.153     8.387
    38   6 C        2.979     0.001    28.006     8.681
    39   6 C        2.919    -0.029    28.736     8.791
    40   6 C        2.920    -0.045    29.120     8.849
    41   6 C        2.924     0.069    26.446     8.433
    42   7 N        2.752    -0.049    22.190     6.996
    43   6 C        2.925     0.063    26.593     8.457
    44   6 C        2.922    -0.043    29.073     8.842
    45   6 C        2.919    -0.027    28.672     8.781
    46   6 C        2.919    -0.033    28.819     8.803
    47   6 C        2.919    -0.027    28.681     8.782
    48   6 C        2.921    -0.043    29.076     8.843
    49   6 C        2.925     0.063    26.597     8.457
    50   6 C        2.922    -0.044    29.093     8.845
    51   6 C        2.919    -0.027    28.675     8.781
    52   6 C        2.919    -0.033    28.825     8.804
    53   6 C        2.919    -0.027    28.678     8.782
    54   6 C        2.921    -0.043    29.068     8.841
    55   6 C        2.919    -0.043    29.067     8.841
    56   6 C        2.925    -0.024    28.602     8.770
    57   7 N        1.861    -0.176    25.610     7.501
    58   6 C        2.950     0.098    25.818     8.334
    59   1 H        0.926     0.051     2.308     2.376
    60   1 H        0.926     0.049     2.332     2.388
    61   1 H        0.926     0.050     2.314     2.379
    62   1 H        0.926     0.054     2.273     2.358
    63   1 H        0.926     0.060     2.195     2.317
    64   1 H        0.926     0.064     2.155     2.295
    65   1 H        0.926     0.052     2.299     2.371
    66   1 H        0.926     0.049     2.331     2.388
    67   1 H        0.926     0.038     2.477     2.461
    68   1 H        0.926     0.039     2.458     2.451
    69   1 H        0.926     0.038     2.472     2.459
    70   1 H        0.926     0.040     2.444     2.445
    71   1 H        0.926     0.040     2.448     2.447
    72   1 H        0.926     0.039     2.466     2.456
    73   1 H        0.926     0.040     2.449     2.447
    74   1 H        0.926     0.040     2.453     2.449
    75   1 H        0.926     0.043     2.405     2.425
    76   1 H        0.926     0.038     2.479     2.462
    77   1 H        0.926     0.049     2.328     2.386
    78   1 H        0.926     0.040     2.447     2.446
    79   1 H        0.926     0.043     2.410     2.428
    80   1 H        0.926     0.050     2.314     2.379
    81   1 H        0.926     0.038     2.480     2.463
    82   1 H        0.926     0.039     2.457     2.451
    83   1 H        0.926     0.039     2.459     2.452
    84   1 H        0.926     0.042     2.428     2.437
    85   1 H        0.926     0.041     2.433     2.439
    86   1 H        0.926     0.038     2.472     2.459
    87   1 H        0.926     0.044     2.395     2.420
    88   1 H        0.926     0.041     2.441     2.443
    89   1 H        0.926     0.041     2.438     2.442
    90   1 H        0.926     0.039     2.460     2.453
    91   1 H        0.926     0.047     2.358     2.401
    92   1 H        0.926     0.061     2.190     2.314

molecular dipole:
                 x           y           z       tot (Debye)
 q only:        7.663       2.555       0.066
   full:        7.340       2.449       0.059      19.667

 projected vibrational frequencies (cm⁻¹)
eigval :       -0.00    -0.00     0.00     0.00     0.00     0.00
eigval :       11.10    15.10    17.44    22.04    23.80    27.31
eigval :       41.01    42.74    45.53    46.09    51.21    53.89
eigval :       60.58    63.05    73.32    75.61    81.04    84.36
eigval :      101.11   106.86   116.07   118.73   133.01   146.11
eigval :      156.52   168.75   171.78   187.76   201.78   215.07
eigval :      232.18   232.62   241.52   251.74   253.02   280.90
eigval :      294.95   301.06   312.18   318.19   325.02   340.14
eigval :      347.63   366.52   368.93   376.81   377.94   379.78
eigval :      381.11   384.02   386.04   389.73   391.73   396.32
eigval :      400.36   409.61   417.71   431.94   456.42   468.48
eigval :      480.34   485.39   490.37   491.94   502.58   510.09
eigval :      523.53   531.59   546.03   563.41   568.53   583.10
eigval :      584.88   585.07   587.84   593.09   593.83   600.19
eigval :      607.11   613.25   622.00   626.47   652.39   655.82
eigval :      659.56   660.36   662.60   663.92   665.32   671.46
eigval :      683.17   688.03   693.83   717.79   719.45   740.91
eigval :      743.20   754.22   758.19   758.95   761.66   764.19
eigval :      782.95   801.98   818.28   822.28   845.32   862.06
eigval :      864.87   871.29   871.79   873.36   874.79   876.48
eigval :      888.57   894.39   896.57   897.46   897.83   902.60
eigval :      907.77   909.14   909.19   916.08   918.19   920.81
eigval :      923.18   925.94   926.38   926.99   928.95   929.13
eigval :      929.93   930.82   931.06   931.24   932.67   936.71
eigval :      954.20   981.73   988.69  1003.57  1003.78  1009.24
eigval :     1021.71  1034.05  1069.71  1080.32  1080.39  1081.36
eigval :     1081.50  1082.36  1100.49  1114.28  1120.63  1121.11
eigval :     1122.52  1123.19  1139.14  1142.49  1164.19  1166.67
eigval :     1176.70  1178.13  1178.85  1179.02  1181.59  1183.83
eigval :     1188.38  1189.21  1192.00  1193.37  1201.52  1209.47
eigval :     1211.65  1220.17  1224.67  1244.46  1254.34  1263.43
eigval :     1265.51  1266.95  1274.23  1274.60  1278.26  1278.57
eigval :     1286.21  1296.01  1300.09  1302.47  1310.78  1314.57
eigval :     1314.82  1316.69  1323.29  1323.38  1325.69  1328.92
eigval :     1339.80  1347.62  1379.84  1399.75  1412.69  1415.05
eigval :     1418.59  1424.17  1433.08  1433.18  1438.12  1438.77
eigval :     1446.40  1450.67  1462.20  1463.08  1463.47  1464.26
eigval :     1474.24  1477.43  1503.92  1529.19  1536.72  1539.42
eigval :     1549.68  1555.17  1559.40  1572.36  1572.68  1573.45
eigval :     1575.69  1577.94  1581.29  1583.94  1585.01  1585.38
eigval :     1592.85  1593.10  3075.88  3077.81  3078.11  3078.17
eigval :     3078.85  3079.16  3079.32  3079.93  3081.41  3082.43
eigval :     3083.07  3085.48  3087.03  3087.06  3087.52  3088.47
eigval :     3088.82  3089.33  3090.47  3090.61  3090.97  3091.91
eigval :     3092.51  3093.05  3093.13  3097.62  3098.30  3098.47
eigval :     3099.46  3099.55  3100.00  3101.52  3103.16  3105.62

   temp. (K)  partition function   enthalpy   heat capacity  entropy
                                   cal/mol     cal/K/mol   cal/K/mol   J/K/mol
 298.15  VIB  0.306E+22            27375.294    171.147    171.153
         ROT  0.174E+09              888.752      2.981     40.686
         INT  0.531E+30            28264.046    174.127    211.839
         TR   0.197E+29             1481.254      4.968     45.691
         TOT                       29745.3001   179.0956   257.5302  1077.5062

       T/K    H(0)-H(T)+PV         H(T)/Eh          T*S/Eh         G(T)/Eh
   ------------------------------------------------------------------------
    298.15    0.474022E-01    0.740738E+00    0.122361E+00    0.618377E+00
   ------------------------------------------------------------------------

         :::::::::::::::::::::::::::::::::::::::::::::::::::::
         ::                  THERMODYNAMIC                  ::
         :::::::::::::::::::::::::::::::::::::::::::::::::::::
         :: total free energy        -147.939520877379 Eh   ::
         ::.................................................::
         :: total energy             -148.557897681887 Eh   ::
         :: zero point energy           0.693335542979 Eh   ::
         :: G(RRHO) w/o ZPVE           -0.074958738472 Eh   ::
         :: G(RRHO) contrib.            0.618376804508 Eh   ::
         :::::::::::::::::::::::::::::::::::::::::::::::::::::

           -------------------------------------------------
          | TOTAL ENERGY             -148.557897681887 Eh   |
          | TOTAL ENTHALPY           -147.817159985890 Eh   |
          | TOTAL FREE ENERGY        -147.939520877379 Eh   |
          | GRADIENT NORM               0.000056320408 Eh/α |
          | HOMO-LUMO GAP               0.938822240126 eV   |
           -------------------------------------------------

 * finished run on 2025/07/20 at 07:09:22.310
