   * xtb version 6.7.1 (edcfbbe) compiled by 'albert@albert-system' on 2024-07-22

   ID    Z sym.   atoms
    1    7 N      1, 13
    2    6 C      2-12, 14-39
    3    1 H      40-63

          program call               : xtb data2507/toluene/BPCN-Cz2Ph/BPCN-Cz2Ph_toluene_T1_crest.xyz --gfn 2 --uhf 2 --gbsa toluene --ohess vtight --parallel 40 --molden --ceasefiles --namespace data2507/toluene/BPCN-Cz2Ph/BPCN-Cz2Ph_toluene_T1_finalOpt
      * Solvation model:               GBSA
        Solvent                        toluene
        Solvent mass                       9.2140E+01 g/mol
          :  Hamiltonian                  GFN2-xTB          :
 * total energy  :   -97.2488391 Eh     change       -0.7410108E-09 Eh
 * total energy  :   -97.2489062 Eh     change       -0.6706129E-04 Eh
 * total energy  :   -97.2489281 Eh     change       -0.2188948E-04 Eh
 * total energy  :   -97.2489150 Eh     change        0.1304044E-04 Eh
 * total energy  :   -97.2489340 Eh     change       -0.1896410E-04 Eh
 * total energy  :   -97.2489390 Eh     change       -0.5004100E-05 Eh
 * total energy  :   -97.2489417 Eh     change       -0.2722081E-05 Eh
 * total energy  :   -97.2489471 Eh     change       -0.5327747E-05 Eh
 * total energy  :   -97.2489486 Eh     change       -0.1570142E-05 Eh
 * total energy  :   -97.2489503 Eh     change       -0.1644100E-05 Eh
 * total energy  :   -97.2489751 Eh     change       -0.3030370E-06 Eh
 * total energy  :   -97.2489754 Eh     change       -0.3140060E-06 Eh
 * total energy  :   -97.2489757 Eh     change       -0.2611072E-06 Eh
 * total energy  :   -97.2489760 Eh     change       -0.2513378E-06 Eh
 * total energy  :   -97.2489762 Eh     change       -0.2391282E-06 Eh
 * total energy  :   -97.2489764 Eh     change       -0.2349021E-06 Eh
 * total energy  :   -97.2489767 Eh     change       -0.2369422E-06 Eh
 * total energy  :   -97.2489769 Eh     change       -0.2332436E-06 Eh
 * total energy  :   -97.2489769 Eh     change       -0.1604761E-08 Eh
   *** GEOMETRY OPTIMIZATION CONVERGED AFTER 44 ITERATIONS ***

 final structure:
================
63
 xtb: 6.7.1 (edcfbbe)
N            6.13424791304380        2.69631644189011       -0.69486292527839
C            6.36260116590749        1.57697126883441       -0.49413602285834
C            6.76047226200670        0.27035287244001       -0.23272280806140
C            8.14453486371650        0.04317920017517       -0.24145372740567
C            8.67477816632092       -1.16886979192685        0.12259088551051
C            7.80925420270771       -2.20778884958512        0.52737602681849
C            6.45857010767741       -2.01635033093453        0.54464473550712
C            5.84999005046131       -0.79776889846923        0.14111395934469
C            4.44288052768737       -0.66497759443086        0.08522947756731
C            3.57003790988376       -1.49807971457044        0.85893257365494
C            2.21782878638009       -1.35797001085854        0.82321812851536
C            1.60873250833536       -0.36878431301439        0.01365763578487
N            0.23952792410577       -0.20437042484102        0.00019420654438
C           -0.70068796559544       -1.21685177321063       -0.03548592871599
C           -0.52713465299826       -2.59169828931125       -0.14812267446434
C           -1.65267849210485       -3.38948390838182       -0.18452467703191
C           -2.94985520610270       -2.85353879852794       -0.13185117918721
C           -4.11729240415380       -3.74066387907697       -0.15322563019537
C           -4.10281643914418       -4.95222537530325        0.54032576069279
C           -5.20633092748106       -5.78389196047055        0.53048227261527
C           -6.34324265159557       -5.42697596132118       -0.17732165287435
C           -6.36876188942008       -4.22903571358683       -0.87392400084543
C           -5.26957338647834       -3.39167608497306       -0.85979580774509
C           -3.11749100012248       -1.46824066575677       -0.07045851191627
C           -2.00307382901354       -0.65402652057418       -0.02753951625128
C           -1.82727731670529        0.77538958757027        0.01443473024033
C           -2.71139152147034        1.83529322160665        0.05731154264549
C           -2.21287602449593        3.13841866489018        0.12313390160909
C           -3.13024208294968        4.28199842153500        0.15532930989541
C           -2.82470162576570        5.45962761299319       -0.52929269295290
C           -3.69155031457712        6.53548076124912       -0.50292094128723
C           -4.87612042021085        6.46040683382871        0.21277836177493
C           -5.18924344980188        5.29828222650507        0.90001060761347
C           -4.32813565914516        4.21794723550616        0.86933291343428
C           -0.82467660843852        3.34424528492174        0.17693215135115
C            0.07448082788173        2.29781721942813        0.14152143834303
C           -0.42755164901016        1.00615782978955        0.02869806019920
C            2.44761190348990        0.45101206129762       -0.77860813659787
C            3.79902240588485        0.30125402540023       -0.75171901802668
H            8.79276856429462        0.85972697241127       -0.53293911459656
H            9.74227031773230       -1.32716654155352        0.10833816922203
H            8.22656254266846       -3.16183792565726        0.81442613990991
H            5.82118978087154       -2.84275283811731        0.81985898364676
H            3.99914375757247       -2.20995905911547        1.54596367938467
H            1.59507759619385       -1.95078254848375        1.47683280863335
H            0.45604432693474       -3.02800134169643       -0.22801672995037
H           -1.53354684885355       -4.45702880901653       -0.28828589062122
H           -3.22955378217424       -5.22880356991633        1.11267726243383
H           -5.18213876553557       -6.71417345325976        1.07967664347352
H           -7.20438981107313       -6.07890064821115       -0.18646119501877
H           -7.25002497875567       -3.94856040353410       -1.43277389837242
H           -5.29200954281420       -2.47104415890959       -1.42416538466798
H           -4.10680155613855       -1.03923979123394       -0.03826278285548
H           -3.77521364982259        1.65934197036955        0.02250898594808
H           -1.91371506690539        5.52012920616359       -1.10649243809209
H           -3.44421033821779        7.43705679898862       -1.04473214545819
H           -5.55119288891740        7.30321700164053        0.23520966042235
H           -6.10835073343486        5.23650691609559        1.46482539271380
H           -4.57030122425865        3.32526122268314        1.42705049201082
H           -0.44950418279653        4.35066944720390        0.28111426167989
H            1.13415748262119        2.48433846376507        0.22127377074945
H            1.99578936802898        1.15017762679417       -1.46659671707149
H            4.40365959357121        0.89089517674810       -1.42200592589149

          :  Hamiltonian                  GFN2-xTB          :
         :: gradient norm              0.000045204089 Eh/a0 ::
         :: HOMO-LUMO gap              0.444320363223 eV    ::
         :: SCC energy               -99.137771258062 Eh    ::
         :: -> dispersion             -0.082574344479 Eh    ::
         :: -> Gsolv                  -0.049600872573 Eh    ::
         :: repulsion energy           1.888794360164 Eh    ::

    * Orbital Energies and Occupations

         #    Occupation            Energy/Eh            Energy/eV
      -------------------------------------------------------------
         1        2.0000           -0.6950379             -18.9129
       ...           ...                  ...                  ...
        80        2.0000           -0.4190375             -11.4026
        81        2.0000           -0.4147534             -11.2860
        82        2.0000           -0.4128728             -11.2348
        83        2.0000           -0.4093746             -11.1396
        84        2.0000           -0.4086205             -11.1191
        85        2.0000           -0.4080274             -11.1030
        86        2.0000           -0.4014490             -10.9240
        87        2.0000           -0.4010889             -10.9142
        88        2.0000           -0.4005163             -10.8986
        89        2.0000           -0.3884640             -10.5706
        90        2.0000           -0.3838958             -10.4463
        91        1.0000           -0.3642346              -9.9113
        92        0.9998           -0.2746874              -7.4746 (HOMO)
        93        0.0002           -0.2583588              -7.0303 (LUMO)
        94        0.0000           -0.2568050              -6.9880
        95                         -0.2459030              -6.6914
        96                         -0.2377042              -6.4683
        97                         -0.2263023              -6.1580
        98                         -0.2257067              -6.1418
        99                         -0.2246397              -6.1128
       100                         -0.2159121              -5.8753
       101                         -0.2052048              -5.5839
       102                         -0.1912719              -5.2048
       103                         -0.1895202              -5.1571
       ...                                ...                  ...
       180                          1.1530484              31.3760
      -------------------------------------------------------------
                  HL-Gap            0.0163285 Eh            0.4443 eV

     #   Z          covCN         q      C6AA      α(0)
     1   7 N        0.911    -0.355    29.127     7.806
     2   6 C        1.920     0.105    28.492     8.620
     3   6 C        2.966    -0.015    28.393     8.740
     4   6 C        2.934    -0.023    28.591     8.769
     5   6 C        2.913    -0.039    28.959     8.824
     6   6 C        2.911    -0.038    28.949     8.823
     7   6 C        2.917    -0.034    28.844     8.807
     8   6 C        2.966    -0.006    28.171     8.706
     9   6 C        2.966     0.004    27.921     8.667
    10   6 C        2.916    -0.041    29.019     8.834
    11   6 C        2.910    -0.041    29.027     8.834
    12   6 C        2.911     0.038    27.157     8.545
    13   7 N        2.796     0.018    20.944     6.797
    14   6 C        3.071     0.040    27.028     8.524
    15   6 C        2.907    -0.038    28.937     8.821
    16   6 C        2.926    -0.038    28.937     8.822
    17   6 C        2.976     0.013    27.708     8.634
    18   6 C        2.976     0.012    27.739     8.639
    19   6 C        2.924    -0.033    28.821     8.804
    20   6 C        2.918    -0.029    28.723     8.789
    21   6 C        2.919    -0.029    28.721     8.788
    22   6 C        2.918    -0.029    28.724     8.789
    23   6 C        2.924    -0.033    28.820     8.804
    24   6 C        2.916    -0.032    28.789     8.799
    25   6 C        3.058    -0.009    28.183     8.706
    26   6 C        3.058    -0.009    28.187     8.707
    27   6 C        2.916    -0.032    28.793     8.799
    28   6 C        2.976     0.014    27.697     8.633
    29   6 C        2.976     0.012    27.735     8.639
    30   6 C        2.924    -0.033    28.811     8.802
    31   6 C        2.918    -0.029    28.717     8.788
    32   6 C        2.919    -0.029    28.717     8.788
    33   6 C        2.918    -0.029    28.724     8.789
    34   6 C        2.924    -0.033    28.819     8.804
    35   6 C        2.926    -0.037    28.920     8.819
    36   6 C        2.907    -0.037    28.914     8.817
    37   6 C        3.071     0.041    27.018     8.523
    38   6 C        2.910    -0.040    28.983     8.828
    39   6 C        2.916    -0.039    28.962     8.825
    40   1 H        0.925     0.018     2.764     2.600
    41   1 H        0.926     0.026     2.648     2.545
    42   1 H        0.926     0.027     2.632     2.537
    43   1 H        0.926     0.033     2.541     2.493
    44   1 H        0.926     0.040     2.453     2.449
    45   1 H        0.926     0.045     2.389     2.417
    46   1 H        0.926     0.048     2.341     2.393
    47   1 H        0.926     0.046     2.364     2.404
    48   1 H        0.926     0.037     2.483     2.464
    49   1 H        0.926     0.034     2.527     2.486
    50   1 H        0.926     0.034     2.532     2.488
    51   1 H        0.926     0.035     2.520     2.483
    52   1 H        0.926     0.038     2.474     2.459
    53   1 H        0.926     0.050     2.314     2.379
    54   1 H        0.926     0.051     2.305     2.374
    55   1 H        0.926     0.037     2.487     2.466
    56   1 H        0.926     0.034     2.525     2.485
    57   1 H        0.926     0.034     2.525     2.485
    58   1 H        0.926     0.035     2.512     2.479
    59   1 H        0.926     0.039     2.466     2.456
    60   1 H        0.926     0.046     2.373     2.409
    61   1 H        0.926     0.046     2.365     2.405
    62   1 H        0.926     0.040     2.443     2.444
    63   1 H        0.926     0.033     2.545     2.495

molecular dipole:
                 x           y           z       tot (Debye)
 q only:       -4.561      -1.471       0.408
   full:       -4.249      -1.808       0.453      11.794

 projected vibrational frequencies (cm⁻¹)
eigval :       -0.00    -0.00     0.00     0.00     0.00     0.00
eigval :       14.26    19.43    23.48    39.30    41.73    45.70
eigval :       56.61    59.40    68.23    80.99    92.84   102.67
eigval :      120.55   135.41   144.14   153.30   172.94   181.15
eigval :      186.99   225.61   243.03   245.59   269.19   282.29
eigval :      308.74   319.60   343.28   348.48   371.33   372.40
eigval :      379.30   384.28   390.42   395.00   396.40   411.68
eigval :      434.09   445.83   472.35   474.35   487.98   496.05
eigval :      500.74   506.54   552.31   563.74   573.88   576.25
eigval :      585.89   585.99   590.54   601.66   617.69   623.08
eigval :      632.86   639.03   658.50   667.53   671.19   688.19
eigval :      693.47   705.09   733.19   735.28   739.33   755.49
eigval :      757.18   781.94   795.76   814.89   827.13   829.58
eigval :      844.36   857.39   867.26   867.52   875.71   875.98
eigval :      897.13   899.30   899.88   901.34   902.59   903.90
eigval :      904.88   909.71   921.67   925.59   929.60   930.65
eigval :      930.72   932.83   960.04   968.21   977.46   987.94
eigval :     1021.98  1063.64  1065.37  1066.44  1083.74  1084.37
eigval :     1117.26  1120.31  1121.30  1127.23  1137.04  1143.08
eigval :     1169.86  1178.86  1180.70  1182.15  1197.72  1199.04
eigval :     1208.10  1215.69  1216.40  1225.32  1233.26  1241.51
eigval :     1246.35  1259.53  1277.92  1279.66  1280.46  1286.76
eigval :     1308.15  1317.50  1317.96  1320.19  1327.88  1346.75
eigval :     1354.52  1366.91  1374.85  1388.92  1400.84  1415.24
eigval :     1424.95  1425.49  1428.16  1440.49  1443.10  1458.39
eigval :     1465.33  1479.36  1483.71  1484.86  1534.84  1536.83
eigval :     1538.66  1542.27  1565.55  1570.99  1571.92  1581.89
eigval :     1592.23  1594.82  2236.55  3054.17  3070.06  3070.09
eigval :     3071.82  3071.85  3073.12  3078.92  3081.08  3081.15
eigval :     3081.24  3084.26  3084.37  3086.70  3090.96  3091.16
eigval :     3092.17  3092.48  3093.26  3096.39  3098.87  3101.01
eigval :     3102.40  3103.06  3111.29

   temp. (K)  partition function   enthalpy   heat capacity  entropy
                                   cal/mol     cal/K/mol   cal/K/mol   J/K/mol
 298.15  VIB  0.199E+14            17835.038    114.559    109.986
         ROT  0.691E+08              888.752      2.981     38.853
         INT  0.138E+22            18723.790    117.540    148.840
         TR   0.107E+29             1481.254      4.968     44.475
         TOT                       20205.0439   122.5084   193.3145   808.8279

       T/K    H(0)-H(T)+PV         H(T)/Eh          T*S/Eh         G(T)/Eh
   ------------------------------------------------------------------------
    298.15    0.321988E-01    0.510717E+00    0.918500E-01    0.418867E+00
   ------------------------------------------------------------------------

         :::::::::::::::::::::::::::::::::::::::::::::::::::::
         ::                  THERMODYNAMIC                  ::
         :::::::::::::::::::::::::::::::::::::::::::::::::::::
         :: total free energy         -96.830110296025 Eh   ::
         ::.................................................::
         :: total energy              -97.248976902340 Eh   ::
         :: zero point energy           0.478517776283 Eh   ::
         :: G(RRHO) w/o ZPVE           -0.059651169969 Eh   ::
         :: G(RRHO) contrib.            0.418866606314 Eh   ::
         :::::::::::::::::::::::::::::::::::::::::::::::::::::

           -------------------------------------------------
          | TOTAL ENERGY              -97.248976902340 Eh   |
          | TOTAL ENTHALPY            -96.738260339122 Eh   |
          | TOTAL FREE ENERGY         -96.830110296025 Eh   |
          | GRADIENT NORM               0.000045261490 Eh/α |
          | HOMO-LUMO GAP               0.444321836130 eV   |
           -------------------------------------------------

 * finished run on 2025/08/25 at 08:35:51.829
