   * xtb version 6.7.1 (edcfbbe) compiled by 'albert@albert-system' on 2024-07-22

   ID    Z sym.   atoms
    1    7 N      1, 13
    2    6 C      2-12, 14-39
    3    1 H      40-63

          program call               : xtb data2507/toluene/BPCN-Cz2Ph/BPCN-Cz2Ph.xyz --gfn 2 --gbsa toluene --ohess vtight --parallel 40 --molden --ceasefiles --namespace data2507/toluene/BPCN-Cz2Ph/BPCN-Cz2Ph_toluene_S0_preOpt
      * Solvation model:               GBSA
        Solvent                        toluene
        Solvent mass                       9.2140E+01 g/mol
          :  Hamiltonian                  GFN2-xTB          :
 * total energy  :   -97.3269075 Eh     change       -0.2425026E-08 Eh
 * total energy  :   -97.3367757 Eh     change       -0.9868154E-02 Eh
 * total energy  :   -97.3387019 Eh     change       -0.1926181E-02 Eh
 * total energy  :   -97.3381226 Eh     change        0.5792812E-03 Eh
 * total energy  :   -97.3396172 Eh     change       -0.1494665E-02 Eh
 * total energy  :   -97.3398635 Eh     change       -0.2462543E-03 Eh
 * total energy  :   -97.3400797 Eh     change       -0.2161679E-03 Eh
 * total energy  :   -97.3402644 Eh     change       -0.1847251E-03 Eh
 * total energy  :   -97.3404915 Eh     change       -0.2271197E-03 Eh
 * total energy  :   -97.3407638 Eh     change       -0.2722475E-03 Eh
 * total energy  :   -97.3425664 Eh     change       -0.6349080E-06 Eh
 * total energy  :   -97.3425670 Eh     change       -0.6066508E-06 Eh
 * total energy  :   -97.3425675 Eh     change       -0.4806944E-06 Eh
 * total energy  :   -97.3425678 Eh     change       -0.3483364E-06 Eh
 * total energy  :   -97.3425681 Eh     change       -0.3159346E-06 Eh
 * total energy  :   -97.3425684 Eh     change       -0.2684863E-06 Eh
 * total energy  :   -97.3425686 Eh     change       -0.2055304E-06 Eh
 * total energy  :   -97.3425687 Eh     change       -0.1037448E-06 Eh
 * total energy  :   -97.3425687 Eh     change       -0.2212967E-07 Eh
   *** GEOMETRY OPTIMIZATION CONVERGED AFTER 60 ITERATIONS ***

 final structure:
================
63
 xtb: 6.7.1 (edcfbbe)
N            5.78029080883270        3.26818281683144        0.15692503298871
C            6.24533601810215        2.22070322973287        0.07930729651894
C            6.87669490441035        0.95885019919133        0.01592890665445
C            8.27298180017157        0.91909546707450        0.01921147881723
C            8.92887615462096       -0.29596579305188        0.01469371401226
C            8.19742672424814       -1.47527047874787        0.01758590926462
C            6.81454214199247       -1.44017469729176        0.01694599283712
C            6.12805215673366       -0.22982088311888        0.00708014521923
C            4.65875479303116       -0.19937127181574       -0.01095712063485
C            3.92706660226207       -0.99513376199892        0.86874726353868
C            2.54754939373704       -0.95810412814649        0.87300160847202
C            1.86662122841158       -0.13691371894787       -0.02308503111514
N            0.46703767134391       -0.09320409869647       -0.02089836850721
C           -0.37949211525342       -1.18483316738362       -0.03696847731594
C           -0.08452578043332       -2.53920241639337       -0.10895531695886
C           -1.13636412283371       -3.43236150062766       -0.13194156939491
C           -2.47276043616246       -3.01064637153876       -0.10372642276977
C           -3.55927485832891       -4.00320739078709       -0.12477536631596
C           -4.68197099055959       -3.81196986879608       -0.92755030386040
C           -5.70392724249900       -4.74335514633723       -0.94448423038410
C           -5.62479905818940       -5.87946900658352       -0.15588320960998
C           -4.51438541534104       -6.07939944708576        0.64773305067928
C           -3.48925044180650       -5.15144230798678        0.66148283156847
C           -2.76250007047219       -1.65263038720606       -0.06389908427789
C           -1.72091536029191       -0.73829750493929       -0.02984183205701
C           -1.67233008358313        0.69812071602603        0.00313165765725
C           -2.64989884728738        1.68048053564081        0.04515367475473
C           -2.26860110917058        3.01557149959969        0.08356681580979
C           -3.28411217798112        4.08045081247783        0.11616825021635
C           -3.14103153604736        5.22349088835865       -0.66774931010264
C           -4.09645199325055        6.22272985867048       -0.63869840178596
C           -5.20869577182093        6.10009832545721        0.17783353957501
C           -5.36074944858662        4.96900812507009        0.96293440905157
C           -4.40884993445396        3.96648369569940        0.93065790907638
C           -0.90645825357171        3.34614955247053        0.10229281272724
C            0.08303909922079        2.38461367766139        0.07118903842481
C           -0.30407344334046        1.05348942886519        0.00088625874761
C            2.59195184227880        0.64246443161459       -0.92141810859744
C            3.97167517068424        0.61565619854208       -0.90812018446013
H            8.82650055344510        1.84697418028922        0.02994067713334
H           10.00784611094574       -0.32400907152969        0.01325545794704
H            8.70930646809736       -2.42601946130426        0.01742859696087
H            6.24998442488887       -2.36057982095219        0.00409628880260
H            4.44687346278461       -1.62097948066716        1.57915301189832
H            1.99028439223322       -1.54983165345718        1.58347576159758
H            0.93524319956382       -2.88950744833121       -0.15908461840280
H           -0.92623587639283       -4.48987150453671       -0.19841595335192
H           -4.74287877090325       -2.93481028035331       -1.55595379719551
H           -6.56606882693106       -4.58340064449616       -1.57655308407783
H           -6.42504594301001       -6.60526902948348       -0.16730178855787
H           -4.44860871962419       -6.96185554070907        1.26845232749830
H           -2.63279307764437       -5.30594499046025        1.30223729040474
H           -3.78692205589306       -1.31218502076809       -0.04172393789628
H           -3.69509165049248        1.40995886353810        0.03078380838398
H           -2.28260313633095        5.31866787726111       -1.31737451460786
H           -3.97400597108483        7.10110672240147       -1.25659447640230
H           -5.95323275041032        6.88263576669989        0.20249927006806
H           -6.22458535990496        4.86929040610224        1.60498809389218
H           -4.52529358202268        3.09336604222553        1.55684536259114
H           -0.62429470889083        4.38680365532080        0.16810156427634
H            1.12447272927681        2.66647978619002        0.11420647046271
H            2.06929043414733        1.25852275707084       -1.63726581770050
H            4.52137963533878        1.21559377845075       -1.61870525218659

          :  Hamiltonian                  GFN2-xTB          :
         :: gradient norm              0.000079614165 Eh/a0 ::
         :: HOMO-LUMO gap              2.185697031800 eV    ::
         :: SCC energy               -99.254371359227 Eh    ::
         :: -> dispersion             -0.082874551941 Eh    ::
         :: -> Gsolv                  -0.044757603192 Eh    ::
         :: repulsion energy           1.911802613164 Eh    ::

    * Orbital Energies and Occupations

         #    Occupation            Energy/Eh            Energy/eV
      -------------------------------------------------------------
         1        2.0000           -0.6780098             -18.4496
       ...           ...                  ...                  ...
        79        2.0000           -0.4210374             -11.4570
        80        2.0000           -0.4181238             -11.3777
        81        2.0000           -0.4177907             -11.3687
        82        2.0000           -0.4163364             -11.3291
        83        2.0000           -0.4128856             -11.2352
        84        2.0000           -0.4085553             -11.1174
        85        2.0000           -0.4063504             -11.0574
        86        2.0000           -0.4018741             -10.9356
        87        2.0000           -0.4010902             -10.9142
        88        2.0000           -0.3967757             -10.7968
        89        2.0000           -0.3898592             -10.6086
        90        2.0000           -0.3766698             -10.2497
        91        2.0000           -0.3589426              -9.7673 (HOMO)
        92                         -0.2786196              -7.5816 (LUMO)
        93                         -0.2560908              -6.9686
        94                         -0.2450205              -6.6673
        95                         -0.2424005              -6.5961
        96                         -0.2368689              -6.4455
        97                         -0.2331270              -6.3437
        98                         -0.2200432              -5.9877
        99                         -0.2192651              -5.9665
       100                         -0.2185851              -5.9480
       101                         -0.2121019              -5.7716
       102                         -0.2044326              -5.5629
       ...                                ...                  ...
       180                          1.1540511              31.4033
      -------------------------------------------------------------
                  HL-Gap            0.0803229 Eh            2.1857 eV

     #   Z          covCN         q      C6AA      α(0)
     1   7 N        0.911    -0.281    27.253     7.550
     2   6 C        1.913     0.121    28.128     8.565
     3   6 C        2.977     0.010    27.790     8.647
     4   6 C        2.929    -0.019    28.477     8.751
     5   6 C        2.918    -0.026    28.652     8.778
     6   6 C        2.917    -0.020    28.499     8.754
     7   6 C        2.923    -0.030    28.744     8.792
     8   6 C        2.980     0.021    27.521     8.605
     9   6 C        2.976     0.005    27.899     8.664
    10   6 C        2.924    -0.032    28.797     8.800
    11   6 C        2.920    -0.042    29.055     8.839
    12   6 C        2.912     0.066    26.532     8.446
    13   7 N        2.801    -0.042    22.047     6.974
    14   6 C        3.074     0.045    26.904     8.504
    15   6 C        2.908    -0.052    29.295     8.875
    16   6 C        2.928    -0.039    28.962     8.826
    17   6 C        2.976    -0.002    28.073     8.691
    18   6 C        2.977     0.010    27.797     8.648
    19   6 C        2.925    -0.036    28.889     8.814
    20   6 C        2.918    -0.031    28.781     8.797
    21   6 C        2.920    -0.034    28.838     8.806
    22   6 C        2.918    -0.031    28.785     8.798
    23   6 C        2.925    -0.036    28.895     8.815
    24   6 C        2.918    -0.039    28.957     8.824
    25   6 C        3.064    -0.018    28.385     8.736
    26   6 C        3.064    -0.018    28.391     8.737
    27   6 C        2.918    -0.039    28.963     8.825
    28   6 C        2.976    -0.002    28.066     8.690
    29   6 C        2.977     0.010    27.796     8.648
    30   6 C        2.925    -0.036    28.890     8.814
    31   6 C        2.918    -0.031    28.782     8.798
    32   6 C        2.920    -0.034    28.837     8.806
    33   6 C        2.918    -0.031    28.783     8.798
    34   6 C        2.925    -0.036    28.889     8.814
    35   6 C        2.929    -0.038    28.947     8.823
    36   6 C        2.908    -0.051    29.275     8.872
    37   6 C        3.075     0.046    26.902     8.504
    38   6 C        2.921    -0.041    29.019     8.834
    39   6 C        2.923    -0.029    28.715     8.788
    40   1 H        0.926     0.042     2.421     2.433
    41   1 H        0.926     0.048     2.344     2.394
    42   1 H        0.926     0.050     2.319     2.381
    43   1 H        0.926     0.050     2.324     2.384
    44   1 H        0.926     0.046     2.364     2.404
    45   1 H        0.926     0.048     2.342     2.393
    46   1 H        0.926     0.033     2.550     2.497
    47   1 H        0.926     0.034     2.535     2.490
    48   1 H        0.926     0.030     2.583     2.513
    49   1 H        0.926     0.029     2.601     2.522
    50   1 H        0.926     0.029     2.607     2.525
    51   1 H        0.926     0.029     2.599     2.521
    52   1 H        0.926     0.031     2.577     2.510
    53   1 H        0.926     0.033     2.541     2.493
    54   1 H        0.926     0.034     2.535     2.490
    55   1 H        0.926     0.030     2.579     2.511
    56   1 H        0.926     0.029     2.598     2.520
    57   1 H        0.926     0.029     2.604     2.524
    58   1 H        0.926     0.029     2.598     2.521
    59   1 H        0.926     0.030     2.580     2.512
    60   1 H        0.926     0.033     2.538     2.491
    61   1 H        0.926     0.032     2.564     2.504
    62   1 H        0.926     0.046     2.370     2.407
    63   1 H        0.926     0.036     2.499     2.472

molecular dipole:
                 x           y           z       tot (Debye)
 q only:        1.093      -1.479      -0.035
   full:        1.339      -1.772      -0.068       5.649

 projected vibrational frequencies (cm⁻¹)
eigval :       -0.00    -0.00    -0.00     0.00     0.00     0.00
eigval :       12.65    19.85    24.74    35.94    38.84    40.59
eigval :       52.75    54.18    62.95    81.32    88.02    96.53
eigval :      118.35   130.18   133.32   146.91   153.59   182.59
eigval :      194.67   216.31   247.69   258.47   265.29   275.92
eigval :      310.83   316.92   351.46   364.79   370.64   371.13
eigval :      383.74   385.48   391.14   397.42   407.49   431.22
eigval :      437.20   473.06   475.78   490.67   499.25   506.07
eigval :      530.05   547.20   555.90   565.80   570.54   585.59
eigval :      586.26   592.43   600.22   608.09   622.80   623.59
eigval :      642.16   668.36   671.16   682.67   685.79   705.47
eigval :      707.15   711.20   739.76   747.13   757.37   758.40
eigval :      778.76   784.88   819.94   825.42   830.32   860.31
eigval :      871.74   873.82   876.24   880.86   882.35   887.07
eigval :      899.25   899.73   906.45   910.08   914.24   919.66
eigval :      926.93   927.99   929.37   930.32   930.98   932.03
eigval :      932.95   936.68   971.23   980.73   997.38  1026.67
eigval :     1044.27  1071.38  1071.78  1085.18  1085.72  1090.25
eigval :     1119.22  1120.07  1130.93  1132.83  1138.92  1159.21
eigval :     1178.20  1179.72  1180.84  1183.75  1197.03  1198.92
eigval :     1204.71  1220.04  1220.32  1223.85  1241.33  1244.86
eigval :     1266.88  1279.86  1280.34  1281.20  1286.03  1303.60
eigval :     1305.71  1312.43  1313.93  1316.45  1317.77  1344.45
eigval :     1356.98  1373.02  1400.17  1408.96  1422.25  1428.67
eigval :     1431.43  1432.98  1454.02  1459.78  1466.54  1492.85
eigval :     1496.02  1498.74  1552.03  1558.67  1565.83  1572.92
eigval :     1580.20  1580.74  1582.25  1592.03  1593.16  1596.91
eigval :     1601.50  1612.95  2355.99  3064.25  3064.56  3065.50
eigval :     3065.68  3074.00  3074.26  3076.75  3076.96  3078.07
eigval :     3078.55  3079.48  3080.52  3082.26  3083.83  3084.00
eigval :     3085.80  3086.48  3086.86  3089.86  3091.18  3091.76
eigval :     3095.20  3097.55  3099.70

   temp. (K)  partition function   enthalpy   heat capacity  entropy
                                   cal/mol     cal/K/mol   cal/K/mol   J/K/mol
 298.15  VIB  0.356E+14            17696.327    112.502    109.753
         ROT  0.685E+08              888.752      2.981     38.835
         INT  0.244E+22            18585.079    115.483    148.587
         TR   0.107E+29             1481.254      4.968     44.475
         TOT                       20066.3332   120.4511   193.0619   807.7711

       T/K    H(0)-H(T)+PV         H(T)/Eh          T*S/Eh         G(T)/Eh
   ------------------------------------------------------------------------
    298.15    0.319777E-01    0.513943E+00    0.917299E-01    0.422213E+00
   ------------------------------------------------------------------------

         :::::::::::::::::::::::::::::::::::::::::::::::::::::
         ::                  THERMODYNAMIC                  ::
         :::::::::::::::::::::::::::::::::::::::::::::::::::::
         :: total free energy         -96.920356078190 Eh   ::
         ::.................................................::
         :: total energy              -97.342568746825 Eh   ::
         :: zero point energy           0.481964878480 Eh   ::
         :: G(RRHO) w/o ZPVE           -0.059752209844 Eh   ::
         :: G(RRHO) contrib.            0.422212668635 Eh   ::
         :::::::::::::::::::::::::::::::::::::::::::::::::::::

           -------------------------------------------------
          | TOTAL ENERGY              -97.342568746825 Eh   |
          | TOTAL ENTHALPY            -96.828626130846 Eh   |
          | TOTAL FREE ENERGY         -96.920356078190 Eh   |
          | GRADIENT NORM               0.000079477781 Eh/α |
          | HOMO-LUMO GAP               2.185698387531 eV   |
           -------------------------------------------------

 * finished run on 2025/08/25 at 08:30:34.269
