   * xtb version 6.7.1 (edcfbbe) compiled by 'albert@albert-system' on 2024-07-22

   ID    Z sym.   atoms
    1    7 N      1, 13
    2    6 C      2-12, 14-39
    3    1 H      40-63

          program call               : xtb data2507/toluene/BPCN-Cz2Ph/BPCN-Cz2Ph_toluene_S0_finalOpt.xtbopt.xyz --gfn 2 --uhf 2 --gbsa toluene --ohess vtight --parallel 40 --molden --ceasefiles --namespace data2507/toluene/BPCN-Cz2Ph/BPCN-Cz2Ph_toluene_T1_preOpt
      * Solvation model:               GBSA
        Solvent                        toluene
        Solvent mass                       9.2140E+01 g/mol
          :  Hamiltonian                  GFN2-xTB          :
 * total energy  :   -97.2395307 Eh     change       -0.1465196E-08 Eh
 * total energy  :   -97.2433298 Eh     change       -0.3799062E-02 Eh
 * total energy  :   -97.2454973 Eh     change       -0.2167585E-02 Eh
 * total energy  :   -97.2461243 Eh     change       -0.6269367E-03 Eh
 * total energy  :   -97.2468752 Eh     change       -0.7509117E-03 Eh
 * total energy  :   -97.2474332 Eh     change       -0.5580451E-03 Eh
 * total energy  :   -97.2477990 Eh     change       -0.3657192E-03 Eh
 * total energy  :   -97.2480877 Eh     change       -0.2887835E-03 Eh
 * total energy  :   -97.2483209 Eh     change       -0.2331724E-03 Eh
 * total energy  :   -97.2484430 Eh     change       -0.1221226E-03 Eh
 * total energy  :   -97.2489655 Eh     change       -0.7608312E-06 Eh
 * total energy  :   -97.2489659 Eh     change       -0.4270116E-06 Eh
 * total energy  :   -97.2489663 Eh     change       -0.3739437E-06 Eh
 * total energy  :   -97.2489666 Eh     change       -0.3406621E-06 Eh
 * total energy  :   -97.2489669 Eh     change       -0.3066910E-06 Eh
 * total energy  :   -97.2489671 Eh     change       -0.1254548E-06 Eh
 * total energy  :   -97.2489674 Eh     change       -0.3644530E-06 Eh
 * total energy  :   -97.2489676 Eh     change       -0.2226482E-06 Eh
 * total energy  :   -97.2489677 Eh     change       -0.9008178E-07 Eh
   *** GEOMETRY OPTIMIZATION CONVERGED AFTER 47 ITERATIONS ***

 final structure:
================
63
 xtb: 6.7.1 (edcfbbe)
N            6.07664020735177        2.78806515573384       -0.74972246295690
C            6.32907699991358        1.67346214017455       -0.55140589665242
C            6.75400330001964        0.37488827972564       -0.29245497886274
C            8.14154088788277        0.17140105997300       -0.31524101044080
C            8.69593570728813       -1.03043344059523        0.04674337122258
C            7.85268091579942       -2.08253113481479        0.46430168515536
C            6.49911411086744       -1.91418122874516        0.49529002326181
C            5.86615297010112       -0.70782435166097        0.09333692471693
C            4.45648637378202       -0.59933922442177        0.04880051651264
C            3.60446027201434       -1.44041643825890        0.83668743022578
C            2.24977790753266       -1.32243387225993        0.81211496375265
C            1.61784384533439       -0.34985939390735        0.00001753736667
N            0.24624145952960       -0.20641436360477       -0.00346557664753
C           -0.67966918963774       -1.23242507288147       -0.02604417694529
C           -0.48736360183954       -2.60569981833710       -0.12616512532459
C           -1.60179196830918       -3.41941076724165       -0.15234294516166
C           -2.90621745537478       -2.90116822855659       -0.10142569412723
C           -4.06159232786263       -3.80407183006409       -0.11351101203918
C           -4.02903855349276       -5.01143531879067        0.58672976663679
C           -5.12145205106914       -5.85771084128129        0.58477298386147
C           -6.26514964931951       -5.51987845113674       -0.12145399877134
C           -6.30867172663060       -4.32624545604369       -0.82453664808028
C           -5.22054995841712       -3.47450399261875       -0.81860697038129
C           -3.09283208630234       -1.51778963367437       -0.05169697957903
C           -1.98983637490963       -0.68777605941450       -0.01946293292530
C           -1.83417304035356        0.74430711265874        0.00799153710006
C           -2.73286029606957        1.79221447133512        0.04111069895518
C           -2.25250017454884        3.10283761485206        0.09296499863732
C           -3.18549298343080        4.23392354734998        0.11236898643880
C           -4.38514626097500        4.15994817343797        0.82255344671121
C           -5.26108802531146        5.22855742421838        0.84025285895734
C           -4.96119971677249        6.38889622626019        0.14413961902736
C           -3.77497293957019        6.47387679786722       -0.56768632871351
C           -2.89356425463931        5.40969473862595       -0.58145424217316
C           -0.86715395054711        3.32832453353722        0.14392728242031
C            0.04638738495610        2.29421203579355        0.11690729512310
C           -0.43778824778194        0.99474010742518        0.01635656583661
C            2.43628625424057        0.47649754103449       -0.80683050477710
C            3.79010090509452        0.34899533407266       -0.79070625657178
H            8.77281812703852        0.99780959621128       -0.61590659891577
H            9.76575221516518       -1.17072600660158        0.02149282126413
H            8.28928656802032       -3.02829796766057        0.75000338697293
H            5.87851606596545       -2.75021366021543        0.77978495163452
H            4.05162279122919       -2.13960128866763        1.52530098467673
H            1.64262480819614       -1.91979799527146        1.47616292609354
H            0.50160170174777       -3.02909869115986       -0.20422856188497
H           -1.46782143952242       -4.48604306414042       -0.24670321034155
H           -3.15057068827087       -5.27332680378931        1.15801439501374
H           -5.08329457898995       -6.78462145566477        1.13885885645282
H           -7.11750081466641       -6.18330127107824       -0.12438742062390
H           -7.19525996189141       -4.06050608228031       -1.38217612936457
H           -5.25681163604906       -2.55764269830639       -1.38836005737230
H           -4.08787814596104       -1.10222697248558       -0.02034332189698
H           -3.79413400124743        1.60104230891464        0.00914860000842
H           -4.61739291780014        3.26915069925973        1.38744630421615
H           -6.18155726771045        5.15907652637113        1.40194782705544
H           -5.64802586468189        7.22235327099047        0.15643462770610
H           -3.53771159776160        7.37398264963252       -1.11641815656120
H           -1.98148129191601        5.47767115628847       -1.15606251011345
H           -0.50576041649232        4.34070544317272        0.23874071499793
H            1.10351171386616        2.49609580200959        0.19331555069434
H            1.96686682720611        1.16206285763122       -1.49673900307048
H            4.37931676433472        0.94251840442547       -1.47129083766594

          :  Hamiltonian                  GFN2-xTB          :
         :: gradient norm              0.000124870346 Eh/a0 ::
         :: HOMO-LUMO gap              0.442830714728 eV    ::
         :: SCC energy               -99.137755902293 Eh    ::
         :: -> dispersion             -0.082583146731 Eh    ::
         :: -> Gsolv                  -0.049590498476 Eh    ::
         :: repulsion energy           1.888788091532 Eh    ::

    * Orbital Energies and Occupations

         #    Occupation            Energy/Eh            Energy/eV
      -------------------------------------------------------------
         1        2.0000           -0.6950255             -18.9126
       ...           ...                  ...                  ...
        80        2.0000           -0.4190256             -11.4023
        81        2.0000           -0.4147735             -11.2866
        82        2.0000           -0.4128567             -11.2344
        83        2.0000           -0.4093913             -11.1401
        84        2.0000           -0.4086172             -11.1190
        85        2.0000           -0.4080264             -11.1030
        86        2.0000           -0.4014336             -10.9236
        87        2.0000           -0.4010886             -10.9142
        88        2.0000           -0.4004997             -10.8982
        89        2.0000           -0.3884275             -10.5697
        90        2.0000           -0.3838725             -10.4457
        91        1.0000           -0.3642279              -9.9111
        92        0.9998           -0.2746118              -7.4726 (HOMO)
        93        0.0002           -0.2583387              -7.0298 (LUMO)
        94        0.0000           -0.2568720              -6.9898
        95                         -0.2459465              -6.6925
        96                         -0.2377060              -6.4683
        97                         -0.2262972              -6.1579
        98                         -0.2257003              -6.1416
        99                         -0.2246637              -6.1134
       100                         -0.2158797              -5.8744
       101                         -0.2052081              -5.5840
       102                         -0.1912017              -5.2029
       103                         -0.1895146              -5.1570
       ...                                ...                  ...
       180                          1.1530628              31.3764
      -------------------------------------------------------------
                  HL-Gap            0.0162731 Eh            0.4428 eV

     #   Z          covCN         q      C6AA      α(0)
     1   7 N        0.911    -0.354    29.126     7.805
     2   6 C        1.920     0.105    28.493     8.620
     3   6 C        2.966    -0.015    28.394     8.740
     4   6 C        2.934    -0.024    28.592     8.769
     5   6 C        2.913    -0.039    28.959     8.824
     6   6 C        2.911    -0.038    28.950     8.823
     7   6 C        2.917    -0.034    28.844     8.807
     8   6 C        2.966    -0.006    28.171     8.706
     9   6 C        2.966     0.004    27.921     8.667
    10   6 C        2.916    -0.041    29.018     8.833
    11   6 C        2.910    -0.041    29.027     8.834
    12   6 C        2.911     0.038    27.157     8.545
    13   7 N        2.796     0.018    20.944     6.797
    14   6 C        3.070     0.040    27.028     8.524
    15   6 C        2.907    -0.038    28.938     8.821
    16   6 C        2.926    -0.038    28.938     8.822
    17   6 C        2.976     0.013    27.708     8.634
    18   6 C        2.976     0.012    27.739     8.639
    19   6 C        2.924    -0.033    28.820     8.804
    20   6 C        2.918    -0.029    28.723     8.789
    21   6 C        2.919    -0.029    28.721     8.788
    22   6 C        2.918    -0.029    28.724     8.789
    23   6 C        2.924    -0.033    28.820     8.804
    24   6 C        2.916    -0.032    28.789     8.799
    25   6 C        3.058    -0.009    28.183     8.706
    26   6 C        3.058    -0.009    28.188     8.707
    27   6 C        2.916    -0.032    28.793     8.799
    28   6 C        2.976     0.014    27.697     8.633
    29   6 C        2.976     0.012    27.735     8.639
    30   6 C        2.924    -0.033    28.819     8.804
    31   6 C        2.918    -0.029    28.724     8.789
    32   6 C        2.919    -0.029    28.716     8.788
    33   6 C        2.918    -0.029    28.717     8.788
    34   6 C        2.924    -0.033    28.811     8.802
    35   6 C        2.926    -0.037    28.921     8.819
    36   6 C        2.907    -0.037    28.913     8.817
    37   6 C        3.071     0.041    27.018     8.523
    38   6 C        2.911    -0.040    28.984     8.828
    39   6 C        2.916    -0.039    28.959     8.825
    40   1 H        0.925     0.018     2.764     2.600
    41   1 H        0.926     0.026     2.649     2.545
    42   1 H        0.926     0.027     2.633     2.537
    43   1 H        0.926     0.033     2.542     2.493
    44   1 H        0.926     0.040     2.453     2.449
    45   1 H        0.926     0.045     2.388     2.417
    46   1 H        0.926     0.048     2.341     2.393
    47   1 H        0.926     0.046     2.364     2.404
    48   1 H        0.926     0.037     2.483     2.464
    49   1 H        0.926     0.034     2.527     2.486
    50   1 H        0.926     0.034     2.532     2.488
    51   1 H        0.926     0.035     2.520     2.483
    52   1 H        0.926     0.038     2.473     2.459
    53   1 H        0.926     0.050     2.314     2.379
    54   1 H        0.926     0.051     2.305     2.374
    55   1 H        0.926     0.039     2.466     2.456
    56   1 H        0.926     0.035     2.512     2.479
    57   1 H        0.926     0.034     2.525     2.485
    58   1 H        0.926     0.034     2.525     2.485
    59   1 H        0.926     0.037     2.487     2.466
    60   1 H        0.926     0.046     2.373     2.409
    61   1 H        0.926     0.046     2.365     2.405
    62   1 H        0.926     0.040     2.443     2.444
    63   1 H        0.926     0.033     2.546     2.495

molecular dipole:
                 x           y           z       tot (Debye)
 q only:       -4.531      -1.540       0.438
   full:       -4.212      -1.871       0.479      11.777

 projected vibrational frequencies (cm⁻¹)
eigval :       -0.00    -0.00    -0.00     0.00     0.00     0.00
eigval :       11.90    19.06    23.64    40.25    41.70    45.04
eigval :       56.39    60.06    68.01    80.16    92.71   103.39
eigval :      119.91   135.09   143.77   153.02   171.74   181.07
eigval :      187.00   225.39   243.15   244.30   269.02   282.04
eigval :      308.31   318.60   342.48   348.55   370.64   371.79
eigval :      378.95   383.78   389.98   392.75   396.02   411.29
eigval :      432.84   445.19   472.49   474.36   487.90   495.90
eigval :      499.95   506.56   552.31   563.77   573.64   575.69
eigval :      585.74   585.93   590.21   601.31   617.79   622.22
eigval :      632.94   639.11   658.77   667.25   671.09   686.77
eigval :      693.57   703.79   733.12   735.26   739.95   756.00
eigval :      756.21   781.39   796.26   815.77   826.26   830.10
eigval :      844.39   857.40   866.12   866.74   875.28   875.92
eigval :      896.55   899.25   900.26   901.14   901.61   903.44
eigval :      905.27   909.65   921.28   926.09   929.04   930.29
eigval :      931.83   932.27   960.00   968.22   977.46   987.99
eigval :     1021.99  1063.13  1065.07  1065.85  1083.79  1084.43
eigval :     1117.49  1120.06  1120.60  1126.99  1136.54  1142.78
eigval :     1169.57  1178.91  1179.32  1181.93  1197.54  1198.94
eigval :     1207.55  1215.20  1216.32  1224.20  1232.47  1241.19
eigval :     1246.31  1259.32  1277.76  1279.61  1280.32  1286.55
eigval :     1307.97  1317.11  1317.90  1319.52  1327.45  1346.53
eigval :     1354.41  1366.17  1374.80  1388.96  1400.67  1415.27
eigval :     1424.39  1425.05  1427.18  1440.03  1442.85  1458.26
eigval :     1465.20  1479.27  1483.55  1484.68  1534.31  1536.37
eigval :     1538.34  1542.01  1565.15  1570.77  1571.68  1581.69
eigval :     1592.15  1594.75  2236.25  3054.61  3069.86  3070.17
eigval :     3071.77  3071.90  3072.65  3078.93  3080.99  3081.08
eigval :     3081.29  3084.40  3084.44  3086.06  3090.91  3091.20
eigval :     3092.06  3092.68  3093.17  3096.41  3098.77  3100.74
eigval :     3102.61  3104.40  3110.25

   temp. (K)  partition function   enthalpy   heat capacity  entropy
                                   cal/mol     cal/K/mol   cal/K/mol   J/K/mol
 298.15  VIB  0.245E+14            17852.164    114.612    110.274
         ROT  0.691E+08              888.752      2.981     38.852
         INT  0.169E+22            18740.917    117.593    149.126
         TR   0.107E+29             1481.254      4.968     44.475
         TOT                       20222.1704   122.5612   193.6010   810.0267

       T/K    H(0)-H(T)+PV         H(T)/Eh          T*S/Eh         G(T)/Eh
   ------------------------------------------------------------------------
    298.15    0.322261E-01    0.510640E+00    0.919861E-01    0.418654E+00
   ------------------------------------------------------------------------

         :::::::::::::::::::::::::::::::::::::::::::::::::::::
         ::                  THERMODYNAMIC                  ::
         :::::::::::::::::::::::::::::::::::::::::::::::::::::
         :: total free energy         -96.830313473129 Eh   ::
         ::.................................................::
         :: total energy              -97.248967813611 Eh   ::
         :: zero point energy           0.478414360765 Eh   ::
         :: G(RRHO) w/o ZPVE           -0.059760020283 Eh   ::
         :: G(RRHO) contrib.            0.418654340482 Eh   ::
         :::::::::::::::::::::::::::::::::::::::::::::::::::::

           -------------------------------------------------
          | TOTAL ENERGY              -97.248967813611 Eh   |
          | TOTAL ENTHALPY            -96.738327372995 Eh   |
          | TOTAL FREE ENERGY         -96.830313473129 Eh   |
          | GRADIENT NORM               0.000125227442 Eh/α |
          | HOMO-LUMO GAP               0.442813980305 eV   |
           -------------------------------------------------

 * finished run on 2025/08/25 at 08:33:01.726
