   * xtb version 6.7.1 (edcfbbe) compiled by 'albert@albert-system' on 2024-07-22

   ID    Z sym.   atoms
    1    7 N      1, 13
    2    6 C      2-12, 14-39
    3    1 H      40-63

          program call               : xtb data2507/toluene/BPCN-Cz2Ph/BPCN-Cz2Ph_toluene_S0_crest.xyz --gfn 2 --gbsa toluene --ohess vtight --parallel 40 --molden --ceasefiles --namespace data2507/toluene/BPCN-Cz2Ph/BPCN-Cz2Ph_toluene_S0_finalOpt
      * Solvation model:               GBSA
        Solvent                        toluene
        Solvent mass                       9.2140E+01 g/mol
          :  Hamiltonian                  GFN2-xTB          :
 * total energy  :   -97.3425054 Eh     change       -0.1603695E-08 Eh
 * total energy  :   -97.3425307 Eh     change       -0.2530829E-04 Eh
 * total energy  :   -97.3425432 Eh     change       -0.1247423E-04 Eh
 * total energy  :   -97.3425393 Eh     change        0.3934238E-05 Eh
 * total energy  :   -97.3425505 Eh     change       -0.1122435E-04 Eh
 * total energy  :   -97.3425497 Eh     change        0.7582812E-06 Eh
 * total energy  :   -97.3425545 Eh     change       -0.4726911E-05 Eh
 * total energy  :   -97.3425588 Eh     change       -0.4326767E-05 Eh
 * total energy  :   -97.3425623 Eh     change       -0.3541347E-05 Eh
 * total energy  :   -97.3425647 Eh     change       -0.2332182E-05 Eh
 * total energy  :   -97.3425691 Eh     change       -0.1060208E-05 Eh
 * total energy  :   -97.3425697 Eh     change       -0.6554540E-06 Eh
 * total energy  :   -97.3425702 Eh     change       -0.5123025E-06 Eh
 * total energy  :   -97.3425706 Eh     change       -0.3370496E-06 Eh
 * total energy  :   -97.3425709 Eh     change       -0.2895457E-06 Eh
 * total energy  :   -97.3425711 Eh     change       -0.2119766E-06 Eh
 * total energy  :   -97.3425712 Eh     change       -0.1661866E-06 Eh
 * total energy  :   -97.3425714 Eh     change       -0.1453692E-06 Eh
 * total energy  :   -97.3425715 Eh     change       -0.9293670E-07 Eh
   *** GEOMETRY OPTIMIZATION CONVERGED AFTER 21 ITERATIONS ***

 final structure:
================
63
 xtb: 6.7.1 (edcfbbe)
N            5.80132512187369        2.77113529624023        0.10138461647603
C            6.18574414452570        1.69020703719376        0.04389176467052
C            6.72257464021891        0.38439981031038        0.00530126706779
C            8.11227854200621        0.24337108131248        0.01902802144263
C            8.67819176775476       -1.01594272362926        0.03731164844510
C            7.86291657296067       -2.13879978591329        0.05214641828928
C            6.48637143775625       -2.00336842156508        0.04150778161493
C            5.88944080132275       -0.74669585366015        0.00961407120260
C            4.42634819311775       -0.61075502539640       -0.01560871440793
C            3.63661899766687       -1.34567377458199        0.86700074391261
C            2.26344070175029       -1.20944989251939        0.86674147363846
C            1.64580066361917       -0.34739243964143       -0.03683653924034
N            0.25322334028078       -0.20098855319384       -0.03731051218427
C           -0.67179750629414       -1.22705529726269       -0.04086903263844
C           -0.47840989558351       -2.60000459372035       -0.10529121748308
C           -1.59370227592397       -3.41284283077365       -0.11472276583985
C           -2.89506687609845       -2.89328648841646       -0.08110273559338
C           -4.05214710998526       -3.80282847514093       -0.08737474818588
C           -4.06067411625015       -4.94890250829106        0.70509964484033
C           -5.15145430144905       -5.79881619694172        0.70466884936007
C           -6.25066186712523       -5.52173641589083       -0.09139088385814
C           -6.25223388099032       -4.38706597689377       -0.88595384345100
C           -5.16440532983534       -3.53343317688651       -0.88226995200358
C           -3.08307149284553       -1.51726029685445       -0.05023740590928
C           -1.97646410212205       -0.68243071891517       -0.02977373041936
C           -1.82156327782627        0.74663491016433       -0.00750216850295
C           -2.72350207562299        1.79881247979728        0.03392522725584
C           -2.24460368768063        3.10238620572044        0.06300319815625
C           -3.17884748489217        4.23904837605047        0.09850161218248
C           -4.30691913549272        4.20672293078425        0.91581583295020
C           -5.18318684172294        5.27577668467860        0.95147632599075
C           -4.95100307024901        6.39377418382724        0.16725766714213
C           -3.83446570585486        6.43608748432578       -0.65147901947505
C           -2.95453405036571        5.36987757754513       -0.68412110884806
C           -0.86163038016453        3.33126232226029        0.07170452432965
C            0.05388028408446        2.29904543796991        0.04038690533231
C           -0.43083365533748        0.99977734948818       -0.01928235399454
C            2.42784574937821        0.37084235540172       -0.93854709061303
C            3.80203039240279        0.24505005422389       -0.92066942639649
H            8.73177690619556        1.12861095769129        0.01984257337563
H            9.75215958756372       -1.12253852815216        0.04422246792087
H            8.30435315702016       -3.12401905572662        0.06936579816547
H            5.85677562559299       -2.88063137665721        0.03852183798710
H            4.10790073532951       -2.00209368772639        1.58361174403390
H            1.66324358919299       -1.75476201167636        1.57937851045173
H            0.51217099355996       -3.02544275923645       -0.15923838780847
H           -1.46287610309080       -4.48342730067603       -0.17461775363848
H           -3.21286565982587       -5.16291586260682        1.34019831352303
H           -5.14583017698460       -6.68054183374145        1.32984918062194
H           -7.10200813430845       -6.18694333655571       -0.09267599011670
H           -7.10508227541947       -4.16749323880161       -1.51267942516351
H           -5.16584161131649       -2.65761420327251       -1.51544216552280
H           -4.07921354999876       -1.10159885556219       -0.02455448171714
H           -3.78583055098891        1.60603710624811        0.02680312633770
H           -4.48524839590958        3.34403381596348        1.54184291679475
H           -6.05024681087063        5.23833444166101        1.59580747521919
H           -5.63699127208958        7.22799975339741        0.19421262554256
H           -3.64956345567550        7.30405633662873       -1.26855241868405
H           -2.09311622258376        5.40357119137899       -1.33585682109812
H           -0.50271452291748        4.34838544685406        0.13025028943223
H            1.11346431450814        2.50347377311963        0.07589891502946
H            1.95302747645791        1.01758967560213       -1.66060948810272
H            4.39506708485146        0.79873715614000       -1.63386534033955

          :  Hamiltonian                  GFN2-xTB          :
         :: gradient norm              0.000066948042 Eh/a0 ::
         :: HOMO-LUMO gap              2.184192335529 eV    ::
         :: SCC energy               -99.254527396221 Eh    ::
         :: -> dispersion             -0.082874433248 Eh    ::
         :: -> Gsolv                  -0.044747996040 Eh    ::
         :: repulsion energy           1.911955916394 Eh    ::

    * Orbital Energies and Occupations

         #    Occupation            Energy/Eh            Energy/eV
      -------------------------------------------------------------
         1        2.0000           -0.6780312             -18.4502
       ...           ...                  ...                  ...
        79        2.0000           -0.4210288             -11.4568
        80        2.0000           -0.4181303             -11.3779
        81        2.0000           -0.4178053             -11.3691
        82        2.0000           -0.4163684             -11.3300
        83        2.0000           -0.4128820             -11.2351
        84        2.0000           -0.4085880             -11.1182
        85        2.0000           -0.4063377             -11.0570
        86        2.0000           -0.4018820             -10.9358
        87        2.0000           -0.4010854             -10.9141
        88        2.0000           -0.3967615             -10.7964
        89        2.0000           -0.3898501             -10.6084
        90        2.0000           -0.3766620             -10.2495
        91        2.0000           -0.3589392              -9.7672 (HOMO)
        92                         -0.2786716              -7.5830 (LUMO)
        93                         -0.2561719              -6.9708
        94                         -0.2450295              -6.6676
        95                         -0.2425088              -6.5990
        96                         -0.2368708              -6.4456
        97                         -0.2331775              -6.3451
        98                         -0.2200418              -5.9876
        99                         -0.2192430              -5.9659
       100                         -0.2184468              -5.9442
       101                         -0.2120696              -5.7707
       102                         -0.2043908              -5.5618
       ...                                ...                  ...
       180                          1.1540451              31.4032
      -------------------------------------------------------------
                  HL-Gap            0.0802676 Eh            2.1842 eV

     #   Z          covCN         q      C6AA      α(0)
     1   7 N        0.911    -0.281    27.256     7.551
     2   6 C        1.913     0.121    28.127     8.565
     3   6 C        2.977     0.010    27.790     8.647
     4   6 C        2.929    -0.019    28.477     8.751
     5   6 C        2.918    -0.026    28.652     8.778
     6   6 C        2.917    -0.020    28.500     8.754
     7   6 C        2.923    -0.030    28.745     8.792
     8   6 C        2.980     0.021    27.522     8.605
     9   6 C        2.976     0.005    27.899     8.664
    10   6 C        2.924    -0.032    28.798     8.800
    11   6 C        2.920    -0.042    29.055     8.839
    12   6 C        2.912     0.066    26.532     8.446
    13   7 N        2.801    -0.042    22.046     6.974
    14   6 C        3.074     0.045    26.905     8.504
    15   6 C        2.908    -0.052    29.295     8.875
    16   6 C        2.928    -0.039    28.963     8.826
    17   6 C        2.976    -0.002    28.072     8.691
    18   6 C        2.977     0.010    27.797     8.648
    19   6 C        2.925    -0.036    28.895     8.815
    20   6 C        2.918    -0.031    28.785     8.798
    21   6 C        2.920    -0.034    28.838     8.806
    22   6 C        2.918    -0.031    28.781     8.797
    23   6 C        2.925    -0.036    28.889     8.814
    24   6 C        2.918    -0.039    28.957     8.824
    25   6 C        3.064    -0.018    28.385     8.736
    26   6 C        3.064    -0.018    28.391     8.737
    27   6 C        2.918    -0.039    28.964     8.825
    28   6 C        2.976    -0.002    28.066     8.690
    29   6 C        2.977     0.010    27.796     8.648
    30   6 C        2.925    -0.036    28.890     8.814
    31   6 C        2.918    -0.031    28.783     8.798
    32   6 C        2.920    -0.034    28.837     8.806
    33   6 C        2.918    -0.031    28.782     8.798
    34   6 C        2.925    -0.036    28.890     8.815
    35   6 C        2.929    -0.038    28.947     8.823
    36   6 C        2.908    -0.051    29.276     8.872
    37   6 C        3.075     0.046    26.902     8.504
    38   6 C        2.921    -0.041    29.020     8.834
    39   6 C        2.923    -0.029    28.715     8.788
    40   1 H        0.926     0.042     2.422     2.434
    41   1 H        0.926     0.048     2.344     2.394
    42   1 H        0.926     0.050     2.319     2.382
    43   1 H        0.926     0.050     2.323     2.383
    44   1 H        0.926     0.047     2.363     2.404
    45   1 H        0.926     0.048     2.342     2.393
    46   1 H        0.926     0.033     2.550     2.497
    47   1 H        0.926     0.034     2.535     2.490
    48   1 H        0.926     0.031     2.577     2.510
    49   1 H        0.926     0.029     2.599     2.521
    50   1 H        0.926     0.029     2.607     2.525
    51   1 H        0.926     0.029     2.601     2.522
    52   1 H        0.926     0.030     2.582     2.513
    53   1 H        0.926     0.033     2.540     2.492
    54   1 H        0.926     0.034     2.535     2.490
    55   1 H        0.926     0.030     2.580     2.512
    56   1 H        0.926     0.029     2.598     2.521
    57   1 H        0.926     0.029     2.604     2.524
    58   1 H        0.926     0.029     2.598     2.521
    59   1 H        0.926     0.031     2.579     2.511
    60   1 H        0.926     0.033     2.538     2.491
    61   1 H        0.926     0.032     2.564     2.504
    62   1 H        0.926     0.046     2.370     2.407
    63   1 H        0.926     0.036     2.498     2.471

molecular dipole:
                 x           y           z       tot (Debye)
 q only:        0.979      -1.558      -0.009
   full:        1.202      -1.869      -0.036       5.648

 projected vibrational frequencies (cm⁻¹)
eigval :       -0.00    -0.00    -0.00     0.00     0.00     0.00
eigval :       11.58    17.98    21.50    37.06    40.29    41.06
eigval :       53.18    54.68    62.69    82.17    87.92    94.88
eigval :      118.40   128.92   133.53   147.55   152.91   182.76
eigval :      194.34   215.46   247.60   258.42   265.45   275.90
eigval :      311.04   317.05   350.91   364.80   372.65   373.96
eigval :      382.29   385.12   390.56   397.73   407.29   430.68
eigval :      437.40   472.99   475.60   490.92   499.03   506.04
eigval :      529.02   546.20   555.96   565.38   570.15   585.44
eigval :      586.08   592.26   599.95   607.99   622.84   623.55
eigval :      641.91   669.17   671.93   682.58   685.62   705.36
eigval :      706.90   710.84   739.70   746.72   756.71   757.96
eigval :      776.68   784.64   818.66   824.82   829.40   860.31
eigval :      870.27   873.12   874.50   880.25   881.36   884.63
eigval :      898.77   899.15   906.16   909.56   913.42   918.12
eigval :      925.32   927.50   929.37   930.02   930.50   931.09
eigval :      931.79   933.92   971.18   980.68   996.99  1026.63
eigval :     1043.16  1071.17  1071.64  1085.02  1085.93  1089.78
eigval :     1119.40  1120.06  1128.86  1132.65  1137.89  1158.20
eigval :     1177.34  1178.13  1179.99  1182.25  1196.97  1199.68
eigval :     1204.40  1219.55  1220.24  1223.75  1240.30  1244.16
eigval :     1265.19  1279.56  1280.33  1281.16  1285.16  1303.39
eigval :     1305.59  1312.52  1314.08  1316.63  1317.95  1344.47
eigval :     1356.89  1372.86  1399.84  1408.92  1422.03  1428.43
eigval :     1431.22  1432.87  1453.42  1459.87  1466.68  1492.86
eigval :     1495.93  1498.02  1551.90  1558.60  1565.72  1572.86
eigval :     1580.00  1580.69  1582.21  1592.07  1593.06  1597.05
eigval :     1601.69  1613.05  2356.00  3063.89  3064.26  3065.34
eigval :     3065.49  3073.82  3074.12  3076.75  3076.83  3078.38
eigval :     3078.85  3079.85  3081.27  3082.28  3083.78  3084.00
eigval :     3085.71  3086.37  3086.70  3090.20  3091.86  3092.06
eigval :     3095.02  3097.48  3100.30

   temp. (K)  partition function   enthalpy   heat capacity  entropy
                                   cal/mol     cal/K/mol   cal/K/mol   J/K/mol
 298.15  VIB  0.455E+14            17707.715    112.599    110.066
         ROT  0.685E+08              888.752      2.981     38.835
         INT  0.311E+22            18596.468    115.580    148.900
         TR   0.107E+29             1481.254      4.968     44.475
         TOT                       20077.7217   120.5482   193.3752   809.0819

       T/K    H(0)-H(T)+PV         H(T)/Eh          T*S/Eh         G(T)/Eh
   ------------------------------------------------------------------------
    298.15    0.319959E-01    0.513845E+00    0.918788E-01    0.421966E+00
   ------------------------------------------------------------------------

         :::::::::::::::::::::::::::::::::::::::::::::::::::::
         ::                  THERMODYNAMIC                  ::
         :::::::::::::::::::::::::::::::::::::::::::::::::::::
         :: total free energy         -96.920605407361 Eh   ::
         ::.................................................::
         :: total energy              -97.342571480886 Eh   ::
         :: zero point energy           0.481848986529 Eh   ::
         :: G(RRHO) w/o ZPVE           -0.059882913004 Eh   ::
         :: G(RRHO) contrib.            0.421966073525 Eh   ::
         :::::::::::::::::::::::::::::::::::::::::::::::::::::

           -------------------------------------------------
          | TOTAL ENERGY              -97.342571480886 Eh   |
          | TOTAL ENTHALPY            -96.828726608140 Eh   |
          | TOTAL FREE ENERGY         -96.920605407361 Eh   |
          | GRADIENT NORM               0.000066941868 Eh/α |
          | HOMO-LUMO GAP               2.184192785929 eV   |
           -------------------------------------------------

 * finished run on 2025/08/25 at 08:32:57.201
