   * xtb version 6.7.1 (edcfbbe) compiled by 'albert@albert-system' on 2024-07-22

   ID    Z sym.   atoms
    1    6 C      1-9, 11-14, 16-31, 35-41
    2    7 N      10, 15, 32, 34
    3   16 S      33
    4    1 H      42-71

          program call               : xtb data2507/gas/BTZ–DMAC/BTZ–DMAC_gas_T1_crest.xyz --gfn 2 --spinpol --tblite --uhf 2 --ohess vtight --parallel 40 --molden --ceasefiles --namespace data2507/gas/BTZ–DMAC/BTZ–DMAC_gas_T1_finalOpt
 * total energy  :  -107.3463493 Eh     change        0.6576239E-07 Eh
 * total energy  :  -107.3463559 Eh     change       -0.6551480E-05 Eh
 * total energy  :  -107.3463587 Eh     change       -0.2778678E-05 Eh
 * total energy  :  -107.3463596 Eh     change       -0.9328806E-06 Eh
 * total energy  :  -107.3463603 Eh     change       -0.7565999E-06 Eh
 * total energy  :  -107.3463608 Eh     change       -0.5017992E-06 Eh
 * total energy  :  -107.3463612 Eh     change       -0.3545199E-06 Eh
 * total energy  :  -107.3463614 Eh     change       -0.1958935E-06 Eh
 * total energy  :  -107.3463614 Eh     change       -0.3102629E-07 Eh
   *** GEOMETRY OPTIMIZATION CONVERGED AFTER 9 ITERATIONS ***

 final structure:
================
71
 xtb: 6.7.1 (edcfbbe)
C           -6.47434101114487       -0.02087814584803       -1.22628087385681
C           -5.74373645333441       -0.14473283395878        0.12401725026292
C           -6.76072871711675       -0.23242043380482        1.27785963342703
C           -4.88852434896492        1.08647023030846        0.32935598017499
C           -5.49453097267759        2.33266025538336        0.41955154957069
C           -4.76906201008284        3.48287841980424        0.66388742784209
C           -3.40126197789671        3.39264781323426        0.86633354328771
C           -2.77599307361509        2.17049189258007        0.77752394739154
C           -3.49620079578786        1.01104788881558        0.46162523001326
N           -2.82861308562750       -0.19670469992108        0.34713970193512
C           -1.42243941352945       -0.19396712218920        0.33745889437100
C           -0.68664285572062       -0.87963032406419        1.33327521555486
C            0.68205495029819       -0.88070068582351        1.33535234755091
C            1.42171359387267       -0.19689264666836        0.34116929999098
N            2.82777522643482       -0.20074003503231        0.35355903885575
C            3.51243994918516       -1.38925588659299        0.17672220342972
C            2.80273795961746       -2.58883583214014        0.02384860275035
C            3.45838506158673       -3.79128458436430       -0.11648277441872
C            4.84279829072504       -3.82396757963059       -0.13353058354239
C            5.54753747715057       -2.63802289960848       -0.04534697087797
C            4.91319429601790       -1.41213060531839        0.10305484743414
C            5.74165885874539       -0.14546094864522        0.11618859338597
C            6.45906422774639       -0.02590316451754       -1.24158997441017
C            6.76979705916268       -0.22651855147147        1.26054184355944
C            4.88614997408751        1.08503669107107        0.32415767513438
C            5.49063267887448        2.33241230629014        0.40799314543628
C            4.76466008072501        3.48197099146105        0.65393927715080
C            3.39825093019892        3.38994521811762        0.86489223927577
C            2.77446677732229        2.16663997661808        0.78195651564821
C            3.49470167567277        1.00785185688574        0.46367301136822
C            0.72253145975637        0.50332905618802       -0.65559403154508
N            1.24652503250547        1.15887516683978       -1.68600053205389
S            0.00531814474865        1.74978302620077       -2.60699285980317
N           -1.23946312017442        1.16195124376474       -1.68901765186050
C           -0.71953726889146        0.50501139058834       -0.65736367914795
C           -3.51237282318065       -1.38513755647587        0.16675966383387
C           -2.80128320408119       -2.58270764176587        0.00461550771610
C           -3.45553166790698       -3.78542221443678       -0.13976444310525
C           -4.83996563401789       -3.82026445170468       -0.15129988886513
C           -5.54630760278762       -2.63601130905912       -0.05356033757403
C           -4.91332040965119       -1.40988619679848        0.09859278815734
H           -7.09977710919629        0.86722753506710       -1.24521296426578
H           -7.10369058747981       -0.88774479124262       -1.40822384506509
H           -5.74688709784779        0.05341728534222       -2.03199836545701
H           -6.23666229213315       -0.32297044764116        2.22751450176111
H           -7.40920707330305       -1.09566090336383        1.15961502154197
H           -7.38437275250820        0.65589041122799        1.31419291668781
H           -6.56376196252426        2.41350722251307        0.29591407348216
H           -5.26916845053634        4.43780521729472        0.71688096400912
H           -2.82382293775714        4.27449059448920        1.09868970512385
H           -1.71588709350423        2.10289500366265        0.96032144685962
H           -1.23320960918400       -1.36672700487323        2.12677929841596
H            1.22536114269553       -1.36799503547293        2.13096795354992
H            1.72538196509057       -2.56895977974885       -0.00082777912657
H            2.88845867709674       -4.70164592659498       -0.22511011768563
H            5.36847540278812       -4.76028795395422       -0.24115863205836
H            6.62465708119036       -2.67434069968332       -0.10262342861586
H            7.08145862358514        0.86408149919777       -1.27061361833896
H            7.08919792436924       -0.89186218396645       -1.42527107839842
H            5.72374100627804        0.04235732291482       -2.04065729094487
H            6.25503873027401       -0.31450251569125        2.21551426561721
H            7.41920132397846       -1.08864418371269        1.13951481600204
H            7.39188652114227        0.66319720330299        1.28748856710141
H            6.55894928613352        2.41480709514322        0.27761831559323
H            5.26343449580650        4.43787774677954        0.70162329515525
H            2.82078038115835        4.27130398685856        1.09899650747097
H            1.71556142024377        2.09748676467169        0.97128591363741
H           -1.72405327689848       -2.56075339324431       -0.02414876507278
H           -2.88458873224473       -4.69422399398825       -0.25581207082633
H           -5.36453965544037       -4.75685898663618       -0.26184246506992
H           -6.62364388421740       -2.67384073036264       -0.10580613453190

 projected vibrational frequencies (cm⁻¹)
eigval :       -0.00    -0.00     0.00     0.00     0.00     0.00
eigval :       13.62    15.23    17.78    18.82    37.54    50.84
eigval :       57.48    62.56    95.09    98.01   103.63   104.34
eigval :      113.79   128.45   128.90   154.94   168.28   170.38
eigval :      184.22   193.24   193.72   211.66   215.54   233.16
eigval :      234.99   242.61   261.88   300.70   305.41   307.49
eigval :      325.58   330.74   331.52   345.04   350.95   362.29
eigval :      371.54   380.81   381.52   402.38   409.95   416.00
eigval :      417.19   454.84   456.94   465.49   494.74   507.57
eigval :      507.88   518.90   519.46   536.71   543.25   545.25
eigval :      545.61   555.31   559.03   578.16   584.78   587.34
eigval :      617.60   622.31   633.59   654.11   676.86   687.41
eigval :      687.71   689.19   701.35   701.48   714.42   735.58
eigval :      764.72   773.62   774.07   775.29   776.09   799.00
eigval :      818.69   825.97   826.59   850.34   859.54   861.70
eigval :      869.32   871.11   871.54   884.88   909.59   910.59
eigval :      913.58   913.84   914.39   914.40   921.02   921.36
eigval :      921.78   921.91   937.58   937.81   958.07   958.09
eigval :     1013.92  1013.95  1030.27  1065.78  1076.54  1076.88
eigval :     1095.77  1110.30  1110.80  1115.87  1116.22  1118.66
eigval :     1138.89  1139.53  1153.93  1153.96  1171.23  1173.09
eigval :     1183.75  1184.47  1184.86  1185.69  1199.28  1201.77
eigval :     1237.15  1240.01  1243.67  1244.42  1256.84  1257.37
eigval :     1260.86  1287.77  1295.79  1295.88  1302.36  1307.94
eigval :     1311.86  1325.38  1329.68  1330.44  1336.91  1336.99
eigval :     1346.19  1400.87  1400.90  1403.16  1418.01  1418.07
eigval :     1422.67  1423.27  1428.91  1430.36  1433.73  1455.56
eigval :     1460.45  1461.23  1480.46  1480.63  1486.62  1486.67
eigval :     1487.32  1487.35  1497.56  1497.66  1501.45  1501.47
eigval :     1522.64  1560.14  1560.33  1573.82  1574.94  1582.47
eigval :     1582.68  1592.66  1593.15  3028.40  3028.44  3034.72
eigval :     3034.82  3041.32  3041.45  3045.79  3045.93  3048.94
eigval :     3049.14  3055.76  3056.07  3080.76  3082.29  3082.39
eigval :     3082.80  3082.96  3087.92  3088.19  3088.24  3088.45
eigval :     3093.14  3097.59  3098.05  3098.47  3099.44  3109.29
eigval :     3110.74  3111.65  3113.15

   temp. (K)  partition function   enthalpy   heat capacity  entropy
                                   cal/mol     cal/K/mol   cal/K/mol   J/K/mol
 298.15  VIB  0.647E+15            20111.338    128.979    123.110
         ROT  0.445E+08              888.752      2.981     37.980
         INT  0.288E+23            21000.090    131.959    161.090
         TR   0.125E+29             1481.254      4.968     44.783
         TOT                       22481.3444   136.9276   205.8731   861.3730

       T/K    H(0)-H(T)+PV         H(T)/Eh          T*S/Eh         G(T)/Eh
   ------------------------------------------------------------------------
    298.15    0.358263E-01    0.591393E+00    0.978169E-01    0.493576E+00
   ------------------------------------------------------------------------

         :::::::::::::::::::::::::::::::::::::::::::::::::::::
         ::                  THERMODYNAMIC                  ::
         :::::::::::::::::::::::::::::::::::::::::::::::::::::
         :: total free energy        -106.852785373870 Eh   ::
         ::.................................................::
         :: total energy             -107.346361415722 Eh   ::
         :: zero point energy           0.555566687531 Eh   ::
         :: G(RRHO) w/o ZPVE           -0.061990645679 Eh   ::
         :: G(RRHO) contrib.            0.493576041852 Eh   ::
         :::::::::::::::::::::::::::::::::::::::::::::::::::::

           -------------------------------------------------
          | TOTAL ENERGY             -107.346361415722 Eh   |
          | TOTAL ENTHALPY           -106.754968425481 Eh   |
          | TOTAL FREE ENERGY        -106.852785373870 Eh   |
          | GRADIENT NORM               0.000098763479 Eh/α |
           -------------------------------------------------

 * finished run on 2025/09/04 at 05:21:27.225
