   * xtb version 6.7.1 (edcfbbe) compiled by 'albert@albert-system' on 2024-07-22

   ID    Z sym.   atoms
    1    6 C      1-9, 11-14, 16-31, 35-41
    2    7 N      10, 15, 32, 34
    3   16 S      33
    4    1 H      42-71

          program call               : xtb data2507/gas/BTZ–DMAC/BTZ–DMAC_gas_S0_crest.xyz --gfn 2 --ohess vtight --parallel 40 --molden --ceasefiles --namespace data2507/gas/BTZ–DMAC/BTZ–DMAC_gas_S0_finalOpt
          :  Hamiltonian                  GFN2-xTB          :
 * total energy  :  -107.4008027 Eh     change       -0.6679102E-08 Eh
 * total energy  :  -107.4008031 Eh     change       -0.3955871E-06 Eh
 * total energy  :  -107.4008035 Eh     change       -0.3553088E-06 Eh
 * total energy  :  -107.4008042 Eh     change       -0.7534006E-06 Eh
 * total energy  :  -107.4008048 Eh     change       -0.6209486E-06 Eh
 * total energy  :  -107.4008052 Eh     change       -0.3766942E-06 Eh
 * total energy  :  -107.4008056 Eh     change       -0.3797690E-06 Eh
 * total energy  :  -107.4008062 Eh     change       -0.6343094E-06 Eh
 * total energy  :  -107.4008073 Eh     change       -0.1121247E-05 Eh
 * total energy  :  -107.4008085 Eh     change       -0.1161125E-05 Eh
 * total energy  :  -107.4008094 Eh     change       -0.8835916E-06 Eh
 * total energy  :  -107.4008101 Eh     change       -0.7593573E-06 Eh
 * total energy  :  -107.4008110 Eh     change       -0.8738336E-06 Eh
 * total energy  :  -107.4008120 Eh     change       -0.1020040E-05 Eh
 * total energy  :  -107.4008128 Eh     change       -0.7200590E-06 Eh
 * total energy  :  -107.4008130 Eh     change       -0.2626826E-06 Eh
 * total energy  :  -107.4008132 Eh     change       -0.1485144E-06 Eh
 * total energy  :  -107.4008132 Eh     change       -0.1267749E-07 Eh
   *** GEOMETRY OPTIMIZATION CONVERGED AFTER 18 ITERATIONS ***

 final structure:
================
71
 xtb: 6.7.1 (edcfbbe)
C           -6.41273614412270        0.03829081689303       -1.31402426502828
C           -5.73570667558574       -0.07741015402311        0.06371217752861
C           -6.79553662690984       -0.12952798241416        1.17950142750356
C           -4.86653757834611        1.14490434059488        0.28170117634661
C           -5.45122924553372        2.40396579358474        0.30974592458928
C           -4.71454523542956        3.55019670263077        0.54085913253227
C           -3.35636312381423        3.44377930592109        0.77944373004035
C           -2.75201068657585        2.20520137083898        0.75593938782109
C           -3.48635488583633        1.04952109714946        0.47595629544444
N           -2.84091869329143       -0.18028175915799        0.44943511493729
C           -1.43140182605302       -0.18732397088405        0.45730005643644
C           -0.70172340604587       -0.70827471905876        1.50018594574033
C            0.70231401928906       -0.70991163186775        1.50225582913937
C            1.43607464371433       -0.19034824789758        0.46171760105635
N            2.84587457453663       -0.18610707105760        0.45820778357694
C            3.53994788199168       -1.37200754027779        0.25284260517630
C            2.84894388991121       -2.58483608493967        0.18096161988162
C            3.51708896433179       -3.77681308940423       -0.00301174144143
C            4.89426593874952       -3.78190091296660       -0.12693325899306
C            5.57795555721172       -2.58156033738784       -0.08644766760585
C            4.92996500427301       -1.36697333006664        0.09544645356666
C            5.74161633660985       -0.08604901440274        0.08034204221946
C            6.42311411170472        0.04179634987482       -1.29414132094313
C            6.79784688245315       -0.15173601846569        1.19879291198187
C            4.87452223796492        1.13612941169644        0.30748025177974
C            5.46184824871922        2.39355514414872        0.34930454589584
C            4.72662022717729        3.53941797142742        0.58695254785163
C            3.36693402716216        3.43416277371530        0.81732171989214
C            2.76000234236662        2.19713928785634        0.78078441621567
C            3.49340215819669        1.04211672799886        0.49575706277215
C            0.72393778007891        0.34812987958396       -0.63524479677938
N            1.22435838782223        0.87035440947475       -1.75450120697902
S            0.00900926313105        1.31538572079534       -2.70611646018815
N           -1.21034986987602        0.87268177873800       -1.75856114725584
C           -0.71465095124533        0.34933053099143       -0.63770963640024
C           -3.53736715402816       -1.36668651347075        0.25432430709500
C           -2.84928876173315       -2.58185507269291        0.19474794898362
C           -3.52009957618581       -3.77403803254926        0.02222080971132
C           -4.89717939544420       -3.77718849368396       -0.10271491676995
C           -5.57785194065542       -2.57479977107305       -0.07579785991385
C           -4.92709748323682       -1.35995552854016        0.09431055284138
H           -7.01736290876297        0.93911819577360       -1.37350524721487
H           -7.05490326460766       -0.81717732975220       -1.50502990446668
H           -5.65456252587576        0.08087337231676       -2.09360381357512
H           -6.30760857147969       -0.21148175093675        2.14902120866280
H           -7.45269959018172       -0.98522167084043        1.05284948249023
H           -7.40584816646178        0.76910996090093        1.17825655956220
H           -6.51406955955785        2.49917215336807        0.14632188135423
H           -5.19946180780451        4.51444049549157        0.54923137733688
H           -2.76605749946459        4.32308443348194        0.99043689180334
H           -1.69588463822000        2.12995982161175        0.96642220930707
H           -1.22678305075782       -1.12125453783898        2.34852199890776
H            1.22400232939621       -1.12464782292443        2.35180683654358
H            1.77299272346567       -2.59394925435681        0.26004984930605
H            2.95819519492270       -4.69945724381545       -0.05244781627015
H            5.43044864701793       -4.70811719099768       -0.26628546873504
H            6.65058902698791       -2.59664722168729       -0.20666662174403
H            7.02643386009894        0.94405049304167       -1.34437620559498
H            7.06737199212889       -0.81103429620992       -1.48984425246247
H            5.66747649635507        0.08943334038474       -2.07589960776381
H            6.30672659160529       -0.23895264641651        2.16625035931495
H            7.45132071094340       -1.00955549863312        1.06738552305815
H            7.41239363877519        0.74399693797890        1.20624338083117
H            6.52565838654240        2.48782388845885        0.19173623812232
H            5.21369474243786        4.50242157995221        0.60622090113503
H            2.77743075555134        4.31309880193956        1.03208704450793
H            1.70252808100601        2.12245964644988        0.98469617846330
H           -1.77342394947031       -2.59300585325989        0.27445311582836
H           -2.96330196217772       -4.69841513988730       -0.01735973258851
H           -5.43549926960754       -4.70351578193652       -0.23274116596835
H           -6.65032796625233       -2.58844262499030       -0.19756846331008

          :  Hamiltonian                  GFN2-xTB          :
         :: gradient norm              0.000095169147 Eh/a0 ::
         :: HOMO-LUMO gap              0.928541757989 eV    ::
         :: SCC energy              -109.233022325586 Eh    ::
         :: -> dispersion             -0.105131562623 Eh    ::
         :: repulsion energy           1.832209146464 Eh    ::

    * Orbital Energies and Occupations

         #    Occupation            Energy/Eh            Energy/eV
      -------------------------------------------------------------
         1        2.0000           -0.7665205             -20.8581
       ...           ...                  ...                  ...
        88        2.0000           -0.4122559             -11.2181
        89        2.0000           -0.4090465             -11.1307
        90        2.0000           -0.4070009             -11.0751
        91        2.0000           -0.4045023             -11.0071
        92        2.0000           -0.4018295             -10.9343
        93        2.0000           -0.4016997             -10.9308
        94        2.0000           -0.3996292             -10.8745
        95        2.0000           -0.3964834             -10.7889
        96        2.0000           -0.3963434             -10.7851
        97        2.0000           -0.3911758             -10.6444
        98        2.0000           -0.3909827             -10.6392
        99        2.0000           -0.3480659              -9.4714
       100        2.0000           -0.3450811              -9.3901 (HOMO)
       101                         -0.3109579              -8.4616 (LUMO)
       102                         -0.2305408              -6.2733
       103                         -0.2301149              -6.2617
       104                         -0.2227375              -6.0610
       105                         -0.2225505              -6.0559
       106                         -0.2190522              -5.9607
       107                         -0.2178692              -5.9285
       108                         -0.2176552              -5.9227
       109                         -0.2165797              -5.8934
       110                         -0.2161515              -5.8818
       111                         -0.1898712              -5.1667
       ...                                ...                  ...
       199                          0.7216118              19.6361
      -------------------------------------------------------------
                  HL-Gap            0.0341233 Eh            0.9285 eV

     #   Z          covCN         q      C6AA      α(0)
     1   6 C        3.761    -0.103    22.523     6.765
     2   6 C        3.909     0.022    20.150     6.380
     3   6 C        3.761    -0.104    22.530     6.766
     4   6 C        2.980    -0.010    28.272     8.722
     5   6 C        2.928    -0.035    28.883     8.814
     6   6 C        2.918    -0.043    29.067     8.841
     7   6 C        2.920    -0.032    28.806     8.801
     8   6 C        2.925    -0.052    29.293     8.876
     9   6 C        2.932     0.062    26.610     8.460
    10   7 N        2.753    -0.059    22.376     7.026
    11   6 C        2.917     0.055    26.762     8.483
    12   6 C        2.920    -0.046    29.152     8.854
    13   6 C        2.920    -0.046    29.149     8.854
    14   6 C        2.917     0.055    26.761     8.483
    15   7 N        2.753    -0.059    22.381     7.026
    16   6 C        2.926     0.059    26.670     8.469
    17   6 C        2.924    -0.058    29.439     8.898
    18   6 C        2.920    -0.033    28.816     8.803
    19   6 C        2.917    -0.044    29.090     8.845
    20   6 C        2.928    -0.036    28.889     8.814
    21   6 C        2.980    -0.011    28.295     8.725
    22   6 C        3.909     0.022    20.150     6.380
    23   6 C        3.761    -0.103    22.523     6.765
    24   6 C        3.761    -0.104    22.529     6.766
    25   6 C        2.980    -0.011    28.273     8.722
    26   6 C        2.928    -0.035    28.883     8.814
    27   6 C        2.918    -0.043    29.069     8.841
    28   6 C        2.920    -0.032    28.806     8.801
    29   6 C        2.925    -0.052    29.297     8.876
    30   6 C        2.932     0.062    26.610     8.460
    31   6 C        3.351     0.067    23.845     7.691
    32   7 N        1.853    -0.267    27.789     7.813
    33  16 S        2.683     0.356   127.392    18.996
    34   7 N        1.853    -0.267    27.789     7.813
    35   6 C        3.351     0.067    23.846     7.692
    36   6 C        2.926     0.059    26.671     8.469
    37   6 C        2.924    -0.058    29.440     8.898
    38   6 C        2.920    -0.033    28.815     8.803
    39   6 C        2.917    -0.044    29.089     8.844
    40   6 C        2.928    -0.036    28.889     8.814
    41   6 C        2.980    -0.011    28.294     8.725
    42   1 H        0.925     0.040     2.452     2.449
    43   1 H        0.925     0.039     2.458     2.452
    44   1 H        0.925     0.035     2.520     2.482
    45   1 H        0.925     0.032     2.564     2.504
    46   1 H        0.925     0.040     2.451     2.448
    47   1 H        0.925     0.040     2.450     2.448
    48   1 H        0.926     0.031     2.568     2.506
    49   1 H        0.926     0.028     2.622     2.532
    50   1 H        0.926     0.028     2.616     2.529
    51   1 H        0.926     0.018     2.759     2.597
    52   1 H        0.926     0.053     2.280     2.361
    53   1 H        0.926     0.053     2.280     2.361
    54   1 H        0.926     0.021     2.710     2.575
    55   1 H        0.926     0.028     2.615     2.529
    56   1 H        0.926     0.027     2.628     2.535
    57   1 H        0.926     0.031     2.568     2.506
    58   1 H        0.925     0.040     2.452     2.449
    59   1 H        0.925     0.039     2.459     2.452
    60   1 H        0.925     0.035     2.520     2.482
    61   1 H        0.925     0.032     2.564     2.504
    62   1 H        0.925     0.040     2.452     2.449
    63   1 H        0.925     0.040     2.451     2.448
    64   1 H        0.926     0.031     2.568     2.506
    65   1 H        0.926     0.027     2.623     2.533
    66   1 H        0.926     0.028     2.617     2.530
    67   1 H        0.926     0.018     2.760     2.598
    68   1 H        0.926     0.022     2.707     2.573
    69   1 H        0.926     0.028     2.614     2.528
    70   1 H        0.926     0.027     2.627     2.535
    71   1 H        0.926     0.031     2.568     2.506

molecular dipole:
                 x           y           z       tot (Debye)
 q only:       -0.009       0.068      -0.076
   full:       -0.010      -0.065       0.142       0.399

 projected vibrational frequencies (cm⁻¹)
eigval :       -0.00    -0.00    -0.00     0.00     0.00     0.00
eigval :       11.30    13.63    15.34    20.28    29.56    46.49
eigval :       53.51    63.42    94.95    95.43   103.52   104.36
eigval :      113.65   129.28   129.60   156.96   166.53   169.65
eigval :      185.17   191.09   191.25   215.94   218.62   230.29
eigval :      232.42   237.71   261.92   290.32   305.88   306.91
eigval :      323.60   332.14   332.29   345.74   348.08   356.44
eigval :      375.44   379.88   394.70   410.50   412.10   418.18
eigval :      452.63   453.71   471.13   480.36   489.96   514.53
eigval :      514.80   522.07   523.04   542.62   547.48   547.85
eigval :      548.43   559.83   560.64   585.74   587.50   594.88
eigval :      626.13   634.06   653.72   656.39   682.65   683.40
eigval :      684.43   695.31   695.39   719.96   730.72   747.22
eigval :      776.06   776.96   777.59   778.83   824.75   825.46
eigval :      842.46   848.14   853.77   865.40   867.16   869.02
eigval :      869.98   874.01   901.66   909.97   912.67   912.81
eigval :      913.80   913.83   914.51   917.09   920.91   921.25
eigval :      921.28   922.34   938.71   938.93   957.67   957.68
eigval :     1014.90  1014.91  1041.59  1064.07  1077.67  1077.89
eigval :     1104.88  1109.35  1115.08  1115.25  1120.41  1120.70
eigval :     1141.36  1141.79  1160.68  1160.69  1170.89  1177.74
eigval :     1186.93  1187.22  1188.05  1189.22  1197.48  1209.81
eigval :     1242.48  1243.63  1249.81  1251.04  1266.81  1269.26
eigval :     1278.35  1287.79  1295.84  1295.88  1304.46  1324.25
eigval :     1324.39  1329.74  1334.77  1335.39  1337.40  1340.08
eigval :     1350.01  1379.54  1402.48  1402.48  1420.67  1420.68
eigval :     1436.47  1436.65  1441.33  1442.17  1478.31  1479.76
eigval :     1489.63  1489.68  1490.00  1490.55  1490.93  1495.28
eigval :     1496.78  1500.47  1500.58  1504.92  1505.09  1534.69
eigval :     1563.62  1576.44  1576.70  1591.31  1591.53  1593.07
eigval :     1593.61  1601.74  1602.85  3027.58  3027.69  3030.99
eigval :     3031.08  3039.30  3039.32  3042.78  3042.90  3048.16
eigval :     3048.17  3053.08  3053.28  3076.67  3077.08  3078.45
eigval :     3078.68  3081.68  3081.93  3083.73  3083.91  3089.48
eigval :     3090.39  3090.73  3094.89  3095.29  3097.21  3097.56
eigval :     3100.55  3101.47  3102.34

   temp. (K)  partition function   enthalpy   heat capacity  entropy
                                   cal/mol     cal/K/mol   cal/K/mol   J/K/mol
 298.15  VIB  0.122E+16            20007.880    127.614    122.967
         ROT  0.443E+08              888.752      2.981     37.971
         INT  0.542E+23            20896.632    130.595    160.938
         TR   0.125E+29             1481.254      4.968     44.783
         TOT                       22377.8859   135.5632   205.7211   860.7373

       T/K    H(0)-H(T)+PV         H(T)/Eh          T*S/Eh         G(T)/Eh
   ------------------------------------------------------------------------
    298.15    0.356614E-01    0.593361E+00    0.977448E-01    0.495616E+00
   ------------------------------------------------------------------------

         :::::::::::::::::::::::::::::::::::::::::::::::::::::
         ::                  THERMODYNAMIC                  ::
         :::::::::::::::::::::::::::::::::::::::::::::::::::::
         :: total free energy        -106.905197300881 Eh   ::
         ::.................................................::
         :: total energy             -107.400813179124 Eh   ::
         :: zero point energy           0.557699203579 Eh   ::
         :: G(RRHO) w/o ZPVE           -0.062083325336 Eh   ::
         :: G(RRHO) contrib.            0.495615878243 Eh   ::
         :::::::::::::::::::::::::::::::::::::::::::::::::::::

           -------------------------------------------------
          | TOTAL ENERGY             -107.400813179124 Eh   |
          | TOTAL ENTHALPY           -106.807452544374 Eh   |
          | TOTAL FREE ENERGY        -106.905197300881 Eh   |
          | GRADIENT NORM               0.000095064513 Eh/α |
          | HOMO-LUMO GAP               0.928541313071 eV   |
           -------------------------------------------------

 * finished run on 2025/09/04 at 05:17:23.720
