   * xtb version 6.7.1 (edcfbbe) compiled by 'albert@albert-system' on 2024-07-22

   ID    Z sym.   atoms
    1    6 C      1-9, 11-14, 16-31, 35-41
    2    7 N      10, 15, 32, 34
    3   16 S      33
    4    1 H      42-71

          program call               : xtb data2507/gas/BTZ–DMAC/BTZ–DMAC_gas_S0_finalOpt.xtbopt.xyz --gfn 2 --spinpol --tblite --uhf 2 --ohess vtight --parallel 40 --molden --ceasefiles --namespace data2507/gas/BTZ–DMAC/BTZ–DMAC_gas_T1_preOpt
 * total energy  :  -107.3397385 Eh     change       -0.1806839E-07 Eh
 * total energy  :  -107.3440416 Eh     change       -0.4303107E-02 Eh
 * total energy  :  -107.3456120 Eh     change       -0.1570389E-02 Eh
 * total energy  :  -107.3458000 Eh     change       -0.1879748E-03 Eh
 * total energy  :  -107.3459395 Eh     change       -0.1395595E-03 Eh
 * total energy  :  -107.3460036 Eh     change       -0.6402876E-04 Eh
 * total energy  :  -107.3460664 Eh     change       -0.6283867E-04 Eh
 * total energy  :  -107.3461303 Eh     change       -0.6386165E-04 Eh
 * total energy  :  -107.3461899 Eh     change       -0.5965816E-04 Eh
 * total energy  :  -107.3462404 Eh     change       -0.5050319E-04 Eh
 * total energy  :  -107.3463506 Eh     change       -0.8959072E-06 Eh
 * total energy  :  -107.3463514 Eh     change       -0.8905015E-06 Eh
 * total energy  :  -107.3463522 Eh     change       -0.7340264E-06 Eh
 * total energy  :  -107.3463527 Eh     change       -0.4827778E-06 Eh
 * total energy  :  -107.3463529 Eh     change       -0.2789069E-06 Eh
 * total energy  :  -107.3463531 Eh     change       -0.2051991E-06 Eh
 * total energy  :  -107.3463534 Eh     change       -0.2235471E-06 Eh
 * total energy  :  -107.3463535 Eh     change       -0.1485348E-06 Eh
 * total energy  :  -107.3463536 Eh     change       -0.3524488E-07 Eh
   *** GEOMETRY OPTIMIZATION CONVERGED AFTER 44 ITERATIONS ***

 final structure:
================
71
 xtb: 6.7.1 (edcfbbe)
C           -6.42497897624358       -0.02500474243323       -1.28588856780779
C           -5.73536008016109       -0.10493472427035        0.08912482614518
C           -6.78642037604916       -0.15011863088732        1.21439474839079
C           -4.88157254552470        1.13000719745678        0.27659346420709
C           -5.48481232627488        2.38017668837618        0.31537117500353
C           -4.76031406697430        3.53514946643824        0.53949231708306
C           -3.39733609668166        3.44729606406627        0.77334564361241
C           -2.77464562546896        2.22125615815281        0.73429185651400
C           -3.49253538862732        1.05501671750453        0.43876944952804
N           -2.82581097981950       -0.15679405171380        0.37290292889830
C           -1.41971743681816       -0.15258220221283        0.36861228551582
C           -0.68414049020420       -0.80381432771125        1.38727270035722
C            0.68470416333286       -0.80497037104507        1.38920076480868
C            1.42432642111781       -0.15528776445446        0.37243724659755
N            2.83034407297645       -0.16212041341021        0.38055738872899
C            3.51260227820816       -1.35640301733825        0.23589169938998
C            2.80121693102363       -2.56024123715618        0.13249947778111
C            3.45518456749095       -3.76694874677254        0.02465410780475
C            4.83926425185507       -3.80060005050216       -0.00871977110883
C            5.54490500940584       -2.61256608206728        0.03063305917085
C            4.91240043412454       -1.38215723133107        0.14589456947030
C            5.74075674754988       -0.11597732597150        0.10419399250308
C            6.43381708956289       -0.04055478657005       -1.26934723047749
C            6.78903558206291       -0.16024729713564        1.23209708827232
C            4.88867774652000        1.12085635065470        0.28676697611843
C            5.49398807145806        2.37006585994587        0.32409704046281
C            4.77103131280055        3.52675890246343        0.54425585764759
C            3.40747376052920        3.44169873287992        0.77579369926704
C            2.78275083535659        2.21666798046273        0.73800878136648
C            3.49913968503299        1.04859405039644        0.44602685014807
C            0.72520115930040        0.51459499076774       -0.64503953195014
N            1.24923122538950        1.13761250681023       -1.69541583795035
S            0.00798209743772        1.69971115519757       -2.63415578641034
N           -1.23677301559354        1.14040654608166       -1.69843555196018
C           -0.71665809611861        0.51613102559009       -0.64683388138806
C           -3.50976518677414       -1.34958021326243        0.22408004926750
C           -2.80012275496139       -2.55440643869488        0.12050269720411
C           -3.45585408355165       -3.75972803630054        0.00788753852119
C           -4.83987270907611       -3.79085364551911       -0.03007023809204
C           -5.54359057032750       -2.60169765911858        0.00989122734218
C           -4.90930284510269       -1.37265894419727        0.12992368183971
H           -7.04529237626355        0.86434709856023       -1.35369318612978
H           -7.05236977049635       -0.89561806445223       -1.45661245587381
H           -5.67346835429077        0.01907252593481       -2.07149399949921
H           -6.29116139048672       -0.21014009733304        2.18175523225469
H           -7.43520513446860       -1.01439375374438        1.10625538840533
H           -7.40716484630371        0.74082858105097        1.20208942622906
H           -6.55075789162532        2.46057276539084        0.16582199869993
H           -5.25790172480184        4.49277741555255        0.55230984457585
H           -2.82185326713991        4.33418647889947        0.99087762449565
H           -1.71863347638677        2.15556913099789        0.94065091475379
H           -1.23063951227355       -1.26340035457372        2.19708837603165
H            1.22809991557683       -1.26532171321904        2.20066966371566
H            1.72365325008976       -2.54104548857362        0.12056145777091
H            2.88400369392011       -4.68025735944178       -0.04610169739607
H            5.36365494578742       -4.74015972715917       -0.09153276985299
H            6.62117487883991       -2.65117138134184       -0.03951198001049
H            7.05585912782749        0.84753826739235       -1.33779631073048
H            7.06007526019529       -0.91268687179857       -1.43645548117304
H            5.68428014062152        0.00294778609538       -2.05686962959302
H            6.29134983971874       -0.21720184910933        2.19839717233515
H            7.43669733237141       -1.02580424214850        1.12754928943353
H            7.41124415702104        0.72967064135658        1.21920822169044
H            6.56037545032573        2.44829499335950        0.17655353802070
H            5.27021655285879        4.48357193044183        0.55591898957663
H            2.83310861334994        4.33000961022907        0.99046384257630
H            1.72625638190764        2.15322697987781        0.94258479436602
H           -1.72249048837873       -2.53703823786655        0.11220074096219
H           -2.88605743944567       -4.67388927212664       -0.06300711207471
H           -5.36562735246418       -4.72929605435893       -0.11678943320305
H           -6.61970646858663       -2.63827890954652       -0.06362954862538

 projected vibrational frequencies (cm⁻¹)
eigval :       -0.00    -0.00     0.00     0.00     0.00     0.00
eigval :       13.91    15.23    18.35    19.04    37.27    50.77
eigval :       57.50    62.57    94.94    98.01   103.88   104.84
eigval :      113.71   128.12   128.43   155.15   168.49   169.89
eigval :      184.89   193.93   194.37   211.45   215.49   233.07
eigval :      234.87   242.43   262.31   300.49   305.04   307.29
eigval :      325.19   331.22   332.10   345.16   351.07   362.64
eigval :      371.62   380.88   382.10   402.35   409.69   416.09
eigval :      417.20   454.95   456.98   465.50   494.57   507.65
eigval :      507.97   519.16   519.45   536.85   543.42   545.33
eigval :      545.72   555.17   558.70   578.08   584.76   587.31
eigval :      617.61   622.42   633.60   654.25   676.82   687.44
eigval :      687.73   689.27   701.46   701.57   714.41   735.71
eigval :      764.83   773.77   774.42   775.64   776.48   799.81
eigval :      818.72   825.99   826.61   850.41   860.01   861.69
eigval :      869.93   871.64   872.05   885.78   909.61   910.56
eigval :      913.84   914.07   914.62   914.64   921.34   921.68
eigval :      922.14   922.22   937.66   937.99   958.25   958.26
eigval :     1014.06  1014.10  1030.13  1065.82  1076.63  1076.98
eigval :     1095.63  1110.34  1110.74  1115.98  1116.42  1118.69
eigval :     1139.00  1139.66  1154.11  1154.13  1171.35  1173.18
eigval :     1183.95  1184.80  1185.10  1185.94  1199.54  1202.49
eigval :     1237.23  1240.50  1244.00  1244.62  1257.00  1257.49
eigval :     1261.08  1287.75  1295.84  1295.92  1302.92  1308.06
eigval :     1312.00  1325.50  1329.61  1330.40  1336.94  1337.03
eigval :     1346.21  1401.48  1401.53  1403.64  1418.81  1418.82
eigval :     1422.74  1423.32  1428.75  1430.55  1433.33  1455.40
eigval :     1460.51  1461.17  1480.46  1480.82  1487.17  1487.23
eigval :     1487.98  1488.09  1498.59  1498.79  1501.90  1501.91
eigval :     1522.15  1560.16  1560.36  1573.94  1575.01  1582.49
eigval :     1582.70  1592.69  1593.17  3028.85  3028.90  3035.01
eigval :     3035.06  3041.34  3041.39  3046.24  3046.27  3049.43
eigval :     3049.84  3056.77  3057.12  3080.81  3082.40  3082.47
eigval :     3082.88  3083.04  3087.99  3088.27  3088.36  3088.59
eigval :     3093.04  3097.54  3098.05  3098.51  3099.52  3108.30
eigval :     3109.75  3111.88  3113.48

   temp. (K)  partition function   enthalpy   heat capacity  entropy
                                   cal/mol     cal/K/mol   cal/K/mol   J/K/mol
 298.15  VIB  0.609E+15            20106.299    128.952    123.028
         ROT  0.445E+08              888.752      2.981     37.976
         INT  0.271E+23            20995.052    131.933    161.004
         TR   0.125E+29             1481.254      4.968     44.783
         TOT                       22476.3056   136.9009   205.7875   861.0151

       T/K    H(0)-H(T)+PV         H(T)/Eh          T*S/Eh         G(T)/Eh
   ------------------------------------------------------------------------
    298.15    0.358183E-01    0.591457E+00    0.977763E-01    0.493681E+00
   ------------------------------------------------------------------------

         :::::::::::::::::::::::::::::::::::::::::::::::::::::
         ::                  THERMODYNAMIC                  ::
         :::::::::::::::::::::::::::::::::::::::::::::::::::::
         :: total free energy        -106.852673009486 Eh   ::
         ::.................................................::
         :: total energy             -107.346353549908 Eh   ::
         :: zero point energy           0.555638572655 Eh   ::
         :: G(RRHO) w/o ZPVE           -0.061958032233 Eh   ::
         :: G(RRHO) contrib.            0.493680540422 Eh   ::
         :::::::::::::::::::::::::::::::::::::::::::::::::::::

           -------------------------------------------------
          | TOTAL ENERGY             -107.346353549908 Eh   |
          | TOTAL ENTHALPY           -106.754896704272 Eh   |
          | TOTAL FREE ENERGY        -106.852673009486 Eh   |
          | GRADIENT NORM               0.000054354693 Eh/α |
           -------------------------------------------------

 * finished run on 2025/09/04 at 05:17:31.143
