   * xtb version 6.7.1 (edcfbbe) compiled by 'albert@albert-system' on 2024-07-22

   ID    Z sym.   atoms
    1    6 C      1-9, 11-14, 16-31, 35-41
    2    7 N      10, 15, 32, 34
    3   16 S      33
    4    1 H      42-71

          program call               : xtb data2507/gas/BTZ–DMAC/BTZ–DMAC.xyz --gfn 2 --ohess vtight --parallel 40 --molden --ceasefiles --namespace data2507/gas/BTZ–DMAC/BTZ–DMAC_gas_S0_preOpt
          :  Hamiltonian                  GFN2-xTB          :
 * total energy  :  -107.3631980 Eh     change       -0.2167155E-08 Eh
 * total energy  :  -107.3854628 Eh     change       -0.2226480E-01 Eh
 * total energy  :  -107.3939339 Eh     change       -0.8471140E-02 Eh
 * total energy  :  -107.3962632 Eh     change       -0.2329246E-02 Eh
 * total energy  :  -107.3978341 Eh     change       -0.1570882E-02 Eh
 * total energy  :  -107.3986006 Eh     change       -0.7665745E-03 Eh
 * total energy  :  -107.3989842 Eh     change       -0.3835167E-03 Eh
 * total energy  :  -107.3991850 Eh     change       -0.2008747E-03 Eh
 * total energy  :  -107.3992959 Eh     change       -0.1108321E-03 Eh
 * total energy  :  -107.3993758 Eh     change       -0.7992868E-04 Eh
 * total energy  :  -107.4008061 Eh     change       -0.6859386E-06 Eh
 * total energy  :  -107.4008068 Eh     change       -0.6950625E-06 Eh
 * total energy  :  -107.4008076 Eh     change       -0.7930402E-06 Eh
 * total energy  :  -107.4008081 Eh     change       -0.5202764E-06 Eh
 * total energy  :  -107.4008084 Eh     change       -0.2767908E-06 Eh
 * total energy  :  -107.4008086 Eh     change       -0.2185302E-06 Eh
 * total energy  :  -107.4008089 Eh     change       -0.2556507E-06 Eh
 * total energy  :  -107.4008092 Eh     change       -0.3066643E-06 Eh
 * total energy  :  -107.4008092 Eh     change       -0.1107877E-07 Eh
   *** GEOMETRY OPTIMIZATION CONVERGED AFTER 94 ITERATIONS ***

 final structure:
================
71
 xtb: 6.7.1 (edcfbbe)
C           -6.39429728728668        0.06750265220781       -1.51829001707451
C           -5.73451637338778        0.00625412865929       -0.12869566299287
C           -6.80826837421734       -0.07083675165251        0.97217383124596
C           -4.91734698369068        1.26826089894120        0.06953648877852
C           -5.55781278279324        2.50012986630337        0.04444846532489
C           -4.86875340377551        3.69104577973614        0.17357876223524
C           -3.49327257073195        3.66111263871458        0.31166282834463
C           -2.83263898682428        2.45128252232888        0.34202011981982
C           -3.52940864582999        1.24363889233679        0.24295511752110
N           -2.84335162074805        0.03625379633344        0.29590904049657
C           -1.43384262281825        0.03145692635057        0.30595461629312
C           -0.70187015038666        0.41653908427271        1.40472286960748
C            0.70215778372817        0.41672857160694        1.40448761890978
C            1.43382245957727        0.03163623141043        0.30553552708441
N            2.84335623967963        0.03643961875542        0.29516378338245
C            3.49800238231448       -1.18163958667346        0.16352588602880
C            2.77427755464147       -2.36885691583329        0.30459591026762
C            3.38760811947131       -3.59592342112916        0.17044218531926
C            4.74442923553099       -3.66101359191481       -0.08992004985248
C            5.47082364669249       -2.48909441518703       -0.18436625918648
C            4.87688203221855       -1.24098486771295       -0.05270339614416
C            5.73462758563950        0.00620418941380       -0.12849990904440
C            6.39514665547041        0.06588196231615       -1.51781033120483
C            6.80780274052631       -0.06951512496278        0.97302763519012
C            4.91726942610899        1.26838183893469        0.06786907229776
C            5.55757847415661        2.50029985062500        0.04146321136313
C            4.86832541236348        3.69127447327772        0.16904026446983
C            3.49282651630135        3.66133268594324        0.30695366633554
C            2.83234046709782        2.45145498269492        0.33860209783123
C            3.52930074553056        1.24380435374603        0.24100175510245
C            0.71912569952399       -0.36935448332025       -0.84734529602289
N            1.21704134625892       -0.75068549313310       -2.02314392606906
S           -0.00042675994056       -1.07509665591345       -3.01982056885052
N           -1.21764572939605       -0.75076074680218       -2.02282337349781
C           -0.71944182120855       -0.36943904544532       -0.84714464111739
C           -3.49794535122368       -1.18173148963796        0.16298718233814
C           -2.77424451966240       -2.36904210001649        0.30341177669454
C           -3.38742630733720       -3.59601210569371        0.16773511925677
C           -4.74408974062385       -3.66092759484516       -0.09350863990072
C           -5.47051803655649       -2.48896575583357       -0.18711990738594
C           -4.87672221000327       -1.24095171729942       -0.05388010117630
H           -7.02877295928080        0.94490802883299       -1.60944410577847
H           -7.00337648164228       -0.81447364357637       -1.69649668474687
H           -5.62623492142996        0.11622462829839       -2.28778365820750
H           -6.33236136586404       -0.11416575562876        1.95012809413343
H           -7.42532923034816       -0.95674812577767        0.85210302806995
H           -7.45733090403083        0.79984161504599        0.94490542663061
H           -6.62869870110679        2.53750015861442       -0.08602140381342
H           -5.39919229148328        4.63072925404260        0.15342460052648
H           -2.92966496742153        4.57862433764728        0.39287741365781
H           -1.75773319152552        2.44411624582754        0.43373660263399
H           -1.22504609312938        0.72279164130027        2.29825771344089
H            1.22558871676831        0.72316165321659        2.29781721795712
H            1.71944279730047       -2.32830331675984        0.53069608473697
H            2.80549847095972       -4.49936931667399        0.27577720035212
H            5.23630540323742       -4.61496039023028       -0.20410561763453
H            6.53273632846745       -2.55477682284763       -0.36722278038268
H            5.62749510583456        0.11375076395253       -2.28776700834371
H            7.02968443499763        0.94317277787066       -1.60961421140239
H            7.00431438214409       -0.81629643322317       -1.69470786634684
H            6.33137650492140       -0.11180551156129        1.95077431893485
H            7.42504117231226       -0.95548314959285        0.85428235856350
H            7.45675660251088        0.80122647916782        0.94512543118918
H            6.62849068243053        2.53765612652219       -0.08879974305523
H            5.39864393601241        4.63100422972955        0.14785052390673
H            2.92909836749319        4.57887160845689        0.38701846099626
H            1.75742177807387        2.44420068814741        0.43021273736191
H           -1.71955298812885       -2.32863669358100        0.53021173585591
H           -2.80533789383458       -4.49952795134477        0.27258355286871
H           -5.23583545439229       -4.61479085502744       -0.20895246922007
H           -6.53233048422639       -2.55452635274967       -0.37059970490989

          :  Hamiltonian                  GFN2-xTB          :
         :: gradient norm              0.000064266024 Eh/a0 ::
         :: HOMO-LUMO gap              0.931749084697 eV    ::
         :: SCC energy              -109.232967484179 Eh    ::
         :: -> dispersion             -0.105148502930 Eh    ::
         :: repulsion energy           1.832158286522 Eh    ::

    * Orbital Energies and Occupations

         #    Occupation            Energy/Eh            Energy/eV
      -------------------------------------------------------------
         1        2.0000           -0.7663931             -20.8546
       ...           ...                  ...                  ...
        88        2.0000           -0.4122171             -11.2170
        89        2.0000           -0.4090364             -11.1304
        90        2.0000           -0.4069899             -11.0748
        91        2.0000           -0.4044600             -11.0059
        92        2.0000           -0.4017849             -10.9331
        93        2.0000           -0.4017129             -10.9312
        94        2.0000           -0.3995356             -10.8719
        95        2.0000           -0.3964506             -10.7880
        96        2.0000           -0.3963570             -10.7854
        97        2.0000           -0.3911448             -10.6436
        98        2.0000           -0.3909779             -10.6390
        99        2.0000           -0.3481285              -9.4731
       100        2.0000           -0.3450686              -9.3898 (HOMO)
       101                         -0.3108274              -8.4580 (LUMO)
       102                         -0.2304071              -6.2697
       103                         -0.2300113              -6.2589
       104                         -0.2226957              -6.0599
       105                         -0.2225602              -6.0562
       106                         -0.2189835              -5.9588
       107                         -0.2178495              -5.9280
       108                         -0.2176792              -5.9234
       109                         -0.2165460              -5.8925
       110                         -0.2161251              -5.8811
       111                         -0.1899245              -5.1681
       ...                                ...                  ...
       199                          0.7216307              19.6366
      -------------------------------------------------------------
                  HL-Gap            0.0342412 Eh            0.9317 eV

     #   Z          covCN         q      C6AA      α(0)
     1   6 C        3.761    -0.103    22.522     6.765
     2   6 C        3.909     0.022    20.150     6.380
     3   6 C        3.761    -0.104    22.530     6.766
     4   6 C        2.980    -0.011    28.293     8.725
     5   6 C        2.928    -0.036    28.889     8.815
     6   6 C        2.917    -0.044    29.089     8.844
     7   6 C        2.920    -0.033    28.816     8.803
     8   6 C        2.924    -0.058    29.441     8.898
     9   6 C        2.926     0.059    26.671     8.469
    10   7 N        2.753    -0.059    22.380     7.026
    11   6 C        2.917     0.055    26.765     8.484
    12   6 C        2.920    -0.046    29.153     8.854
    13   6 C        2.920    -0.046    29.153     8.854
    14   6 C        2.917     0.055    26.765     8.484
    15   7 N        2.753    -0.059    22.380     7.026
    16   6 C        2.932     0.062    26.609     8.460
    17   6 C        2.925    -0.052    29.292     8.876
    18   6 C        2.920    -0.032    28.806     8.801
    19   6 C        2.918    -0.043    29.067     8.841
    20   6 C        2.928    -0.035    28.883     8.814
    21   6 C        2.980    -0.010    28.271     8.722
    22   6 C        3.909     0.022    20.150     6.380
    23   6 C        3.761    -0.103    22.522     6.765
    24   6 C        3.761    -0.104    22.530     6.766
    25   6 C        2.980    -0.011    28.293     8.725
    26   6 C        2.928    -0.036    28.889     8.815
    27   6 C        2.917    -0.044    29.089     8.844
    28   6 C        2.920    -0.033    28.816     8.803
    29   6 C        2.924    -0.058    29.441     8.898
    30   6 C        2.926     0.059    26.671     8.469
    31   6 C        3.351     0.067    23.847     7.692
    32   7 N        1.853    -0.267    27.791     7.813
    33  16 S        2.683     0.355   127.408    18.998
    34   7 N        1.853    -0.267    27.792     7.813
    35   6 C        3.351     0.067    23.847     7.692
    36   6 C        2.932     0.062    26.609     8.460
    37   6 C        2.925    -0.052    29.292     8.876
    38   6 C        2.920    -0.032    28.806     8.801
    39   6 C        2.918    -0.043    29.067     8.841
    40   6 C        2.928    -0.035    28.883     8.814
    41   6 C        2.980    -0.010    28.271     8.722
    42   1 H        0.925     0.039     2.459     2.452
    43   1 H        0.925     0.040     2.452     2.449
    44   1 H        0.925     0.035     2.520     2.482
    45   1 H        0.925     0.032     2.564     2.504
    46   1 H        0.925     0.040     2.451     2.448
    47   1 H        0.925     0.040     2.452     2.449
    48   1 H        0.926     0.031     2.568     2.506
    49   1 H        0.926     0.027     2.627     2.535
    50   1 H        0.926     0.028     2.615     2.529
    51   1 H        0.926     0.022     2.707     2.573
    52   1 H        0.926     0.053     2.280     2.361
    53   1 H        0.926     0.053     2.280     2.361
    54   1 H        0.926     0.018     2.757     2.596
    55   1 H        0.926     0.028     2.616     2.529
    56   1 H        0.926     0.027     2.622     2.532
    57   1 H        0.926     0.031     2.568     2.506
    58   1 H        0.925     0.035     2.520     2.482
    59   1 H        0.925     0.039     2.459     2.452
    60   1 H        0.925     0.040     2.452     2.449
    61   1 H        0.925     0.032     2.564     2.504
    62   1 H        0.925     0.040     2.451     2.448
    63   1 H        0.925     0.040     2.452     2.449
    64   1 H        0.926     0.031     2.568     2.506
    65   1 H        0.926     0.027     2.627     2.535
    66   1 H        0.926     0.028     2.615     2.529
    67   1 H        0.926     0.022     2.707     2.573
    68   1 H        0.926     0.018     2.757     2.596
    69   1 H        0.926     0.028     2.616     2.529
    70   1 H        0.926     0.027     2.622     2.532
    71   1 H        0.926     0.031     2.568     2.506

molecular dipole:
                 x           y           z       tot (Debye)
 q only:       -0.001      -0.057      -0.088
   full:       -0.001       0.048       0.143       0.384

 projected vibrational frequencies (cm⁻¹)
eigval :       -0.00     0.00     0.00     0.00     0.00     0.00
eigval :       11.58    13.63    15.37    19.78    29.93    46.57
eigval :       53.09    64.98    94.80    95.37   103.63   104.52
eigval :      113.90   129.25   129.47   156.83   167.81   169.66
eigval :      188.33   191.18   191.42   215.98   218.56   230.37
eigval :      232.51   237.71   262.22   290.27   305.92   306.89
eigval :      323.55   332.27   332.40   345.73   348.14   356.81
eigval :      375.43   379.85   395.07   410.50   412.21   418.18
eigval :      452.79   453.86   471.18   480.32   490.18   514.54
eigval :      514.78   522.06   523.04   542.73   547.54   547.86
eigval :      548.58   559.89   560.60   585.72   587.51   594.69
eigval :      626.35   634.00   653.58   656.39   682.64   683.50
eigval :      684.50   695.43   695.50   719.98   730.81   747.23
eigval :      776.07   776.95   777.75   778.96   824.79   825.47
eigval :      842.71   848.13   853.70   865.39   867.49   869.28
eigval :      870.31   873.66   901.60   910.09   912.71   912.83
eigval :      913.83   913.87   914.49   917.22   920.99   921.30
eigval :      921.34   922.59   938.71   938.93   957.69   957.70
eigval :     1014.90  1014.91  1041.64  1064.04  1077.66  1077.89
eigval :     1104.86  1109.37  1115.09  1115.24  1120.48  1120.77
eigval :     1141.37  1141.79  1160.69  1160.71  1170.90  1177.77
eigval :     1186.91  1187.21  1188.14  1189.21  1197.55  1209.73
eigval :     1242.51  1243.63  1249.84  1251.04  1266.73  1269.27
eigval :     1278.37  1287.57  1295.88  1295.91  1304.46  1324.16
eigval :     1324.25  1329.49  1334.72  1335.33  1337.33  1339.94
eigval :     1349.74  1379.83  1402.48  1402.48  1420.68  1420.69
eigval :     1436.43  1436.63  1441.21  1442.05  1478.23  1479.68
eigval :     1489.59  1489.67  1489.95  1490.53  1490.94  1495.24
eigval :     1496.62  1500.49  1500.60  1504.92  1505.09  1534.64
eigval :     1563.55  1576.43  1576.69  1591.32  1591.53  1593.08
eigval :     1593.60  1601.76  1602.84  3027.68  3027.71  3030.96
eigval :     3030.97  3039.25  3039.26  3042.87  3042.92  3048.07
eigval :     3048.08  3053.20  3053.35  3076.62  3077.01  3078.47
eigval :     3078.69  3081.62  3081.85  3083.77  3083.94  3089.33
eigval :     3090.21  3090.69  3095.02  3095.41  3097.14  3097.48
eigval :     3100.53  3101.81  3102.69

   temp. (K)  partition function   enthalpy   heat capacity  entropy
                                   cal/mol     cal/K/mol   cal/K/mol   J/K/mol
 298.15  VIB  0.116E+16            19999.384    127.616    122.876
         ROT  0.443E+08              888.752      2.981     37.969
         INT  0.516E+23            20888.136    130.597    160.845
         TR   0.125E+29             1481.254      4.968     44.783
         TOT                       22369.3900   135.5650   205.6285   860.3495

       T/K    H(0)-H(T)+PV         H(T)/Eh          T*S/Eh         G(T)/Eh
   ------------------------------------------------------------------------
    298.15    0.356479E-01    0.593369E+00    0.977007E-01    0.495668E+00
   ------------------------------------------------------------------------

         :::::::::::::::::::::::::::::::::::::::::::::::::::::
         ::                  THERMODYNAMIC                  ::
         :::::::::::::::::::::::::::::::::::::::::::::::::::::
         :: total free energy        -106.905141284262 Eh   ::
         ::.................................................::
         :: total energy             -107.400809197686 Eh   ::
         :: zero point energy           0.557720742639 Eh   ::
         :: G(RRHO) w/o ZPVE           -0.062052829214 Eh   ::
         :: G(RRHO) contrib.            0.495667913424 Eh   ::
         :::::::::::::::::::::::::::::::::::::::::::::::::::::

           -------------------------------------------------
          | TOTAL ENERGY             -107.400809197686 Eh   |
          | TOTAL ENTHALPY           -106.807440563003 Eh   |
          | TOTAL FREE ENERGY        -106.905141284262 Eh   |
          | GRADIENT NORM               0.000064270695 Eh/α |
          | HOMO-LUMO GAP               0.931749657784 eV   |
           -------------------------------------------------

 * finished run on 2025/09/04 at 05:14:12.259
