   * xtb version 6.7.1 (edcfbbe) compiled by 'albert@albert-system' on 2024-07-22

   ID    Z sym.   atoms
    1    6 C      1-9, 11-14, 16-31, 33-46, 48-54
    2    7 N      10, 15, 32, 47
    3    1 H      55-92

          program call               : xtb data2507/toluene/α-2DMAC-DBP/α-2DMAC-DBP_toluene_T1_crest.xyz --gfn 2 --uhf 2 --gbsa toluene --ohess vtight --parallel 40 --molden --ceasefiles --namespace data2507/toluene/α-2DMAC-DBP/α-2DMAC-DBP_toluene_T1_finalOpt
      * Solvation model:               GBSA
        Solvent                        toluene
        Solvent mass                       9.2140E+01 g/mol
          :  Hamiltonian                  GFN2-xTB          :
 * total energy  :  -138.2606115 Eh     change       -0.2977629E-08 Eh
 * total energy  :  -138.2606988 Eh     change       -0.8726268E-04 Eh
 * total energy  :  -138.2607565 Eh     change       -0.5774960E-04 Eh
 * total energy  :  -138.2607848 Eh     change       -0.2823063E-04 Eh
 * total energy  :  -138.2608102 Eh     change       -0.2543726E-04 Eh
 * total energy  :  -138.2608496 Eh     change       -0.3938436E-04 Eh
 * total energy  :  -138.2608927 Eh     change       -0.4312709E-04 Eh
 * total energy  :  -138.2609175 Eh     change       -0.2472799E-04 Eh
 * total energy  :  -138.2609503 Eh     change       -0.3287056E-04 Eh
 * total energy  :  -138.2609890 Eh     change       -0.3866881E-04 Eh
 * total energy  :  -138.2612244 Eh     change       -0.3821909E-06 Eh
 * total energy  :  -138.2612247 Eh     change       -0.2871659E-06 Eh
 * total energy  :  -138.2612250 Eh     change       -0.2963373E-06 Eh
 * total energy  :  -138.2612254 Eh     change       -0.3813281E-06 Eh
 * total energy  :  -138.2612258 Eh     change       -0.4204699E-06 Eh
 * total energy  :  -138.2612262 Eh     change       -0.3559566E-06 Eh
 * total energy  :  -138.2612264 Eh     change       -0.2274741E-06 Eh
 * total energy  :  -138.2612266 Eh     change       -0.1859956E-06 Eh
 * total energy  :  -138.2612266 Eh     change       -0.5008360E-08 Eh
   *** GEOMETRY OPTIMIZATION CONVERGED AFTER 44 ITERATIONS ***

 final structure:
================
92
 xtb: 6.7.1 (edcfbbe)
C            6.81756983656287       -1.89974911886639        0.43303272289789
C            5.64939178966855       -1.01898267948321       -0.05081335674213
C            6.18249113189036        0.30343857541210       -0.63540777852841
C            4.89541134180217       -1.75005697387190       -1.14282734909664
C            5.56962294496870       -2.11865781887722       -2.30018611417332
C            4.93148752313630       -2.73962032422125       -3.35723494151132
C            3.57114213530429       -2.98371445651633       -3.27527372521385
C            2.87874750641694       -2.63211276900897       -2.13676041003308
C            3.52649976931781       -2.03480702247728       -1.04873562329949
N            2.81302950574069       -1.73571254277625        0.10492957024466
C            1.39765053560419       -1.77038048695205        0.07921271935164
C            0.69269040070641       -2.96966829479396        0.04139217800359
C           -0.68817834945961       -2.97094119635909       -0.03300710889113
C           -1.39528414262224       -1.77300889879328       -0.07467595936708
N           -2.81072268960382       -1.74116336003781       -0.09899844593481
C           -3.41543635820996       -1.10365027482559       -1.16990765349875
C           -2.67417431780593       -0.87781577053718       -2.33717834489841
C           -3.22670185311871       -0.22498497089629       -3.41642025292330
C           -4.54294876520222        0.20312847860147       -3.36014924144800
C           -5.29457722471651       -0.06405763744047       -2.23098124979886
C           -4.76234593465193       -0.72265304940032       -1.13019372891443
C           -5.64867839824914       -1.03103965402262        0.05780647832033
C           -6.81605460412033       -1.91482613185047       -0.42244477103651
C           -6.18305770707823        0.29185991593146        0.64018010866779
C           -4.89205275523323       -1.75836505965750        1.15047940254263
C           -5.56451659015177       -2.12670232132914        2.30893473521220
C           -4.92404100322666       -2.74406915132288        3.36666955283475
C           -3.56304511548815       -2.98434111250870        3.28436141294285
C           -2.87233792774875       -2.63286915843937        2.14478176344764
C           -3.52245584454782       -2.03965922356434        1.05592410442965
C           -0.71533435463582       -0.53911502840950       -0.05384530599672
N           -1.36629207357613        0.61983783284991       -0.13332915752857
C           -0.70550799904355        1.77788191988621       -0.07954066394510
C           -1.41143903768455        3.01720262846025       -0.18395383233364
C           -2.80206921260812        2.99978790928580       -0.37728472374285
C           -3.51072078940920        4.16775011231798       -0.49065764179578
C           -2.83914901558022        5.38896707629330       -0.41314347879846
C           -1.47754136412571        5.42476871430957       -0.22715808118402
C           -0.71962725865735        4.24968153395379       -0.10764656861476
C            0.71270152399261        4.25118020790923        0.08681404372130
C            1.46887294104516        5.42786760307156        0.20150482897731
C            2.83057473354849        5.39484904680710        0.38732728976133
C            3.50399512373614        4.17496471281229        0.46962286648138
C            2.79701622460911        3.00549500031474        0.36139449213686
C            1.40634137197617        3.02006406091939        0.16818438082705
C            0.70222878108738        1.77927373665079        0.06905850589180
N            1.36476306068233        0.62251346693952        0.12792925839448
C            0.71559904820040       -0.53775515602593        0.05331324019777
C            3.41505262514860       -1.09381296335368        1.17475605648461
C            2.67200663158658       -0.86674167225391        2.34064544005854
C            3.22182456638481       -0.20990566895448        3.41883562078461
C            4.53714559159997        0.22109084146358        3.36291411312457
C            5.29060901243789       -0.04716258464955        2.23522620661850
C            4.76105654305355       -0.70959812490454        1.13544221380012
H            6.43262563172731       -2.82975728904773        0.84774096553941
H            7.48705678145172       -2.14003311478923       -0.38751905681515
H            7.39087115341033       -1.39169942183540        1.20284740813433
H            6.86110529631319        0.11448004958494       -1.46217448570217
H            5.35351775486819        0.90636723757900       -1.00246168249331
H            6.71482908121791        0.87344375987289        0.12055543293803
H            6.62467249076084       -1.91026923850031       -2.38711713128635
H            5.48669946278399       -3.01558790200086       -4.24070245578976
H            3.04554085070040       -3.44629595691903       -4.09743223414617
H            1.81680260337287       -2.81358730641576       -2.09053576360313
H            1.23738383886717       -3.90095553281421        0.07717424324549
H           -1.23130713203059       -3.90326209637397       -0.06557291839392
H           -1.65297405364999       -1.22383818146423       -2.39080194745595
H           -2.63096464526663       -0.05245691038669       -4.30055766816211
H           -4.98435315104487        0.72695173937793       -4.19427652958276
H           -6.32581422319588        0.25331633348573       -2.21154136044396
H           -6.43028131432386       -2.84623966138886       -0.83321782336270
H           -7.38978129837597       -1.41057607806928       -1.19442937042948
H           -7.48542915521817       -2.15221129854323        0.39903675176084
H           -5.35440620814648        0.89751801893216        1.00348312761013
H           -6.71849715122760        0.85868122311218       -0.11598897607879
H           -6.85915899398000        0.10368143681209        1.46918039602661
H           -6.62006831679676       -1.92102780320345        2.39617029278444
H           -5.47795329454657       -3.02007896845464        4.25093563468214
H           -3.03558365054096       -3.44380185080224        4.10707370970019
H           -1.80988995762926       -2.81127345211177        2.09840577175669
H           -3.28745523780903        2.03745350104150       -0.44124533325853
H           -4.57979476971891        4.14603855786945       -0.64206160068742
H           -3.39277755404291        6.31240207689688       -0.50192560331392
H           -0.99011717969942        6.38556409991089       -0.17711956192519
H            0.98003203307918        6.38773617529159        0.14762703622051
H            3.38286188101223        6.31945356572011        0.47222453043014
H            4.57313437719704        4.15546254146616        0.62088025308167
H            3.28380422440569        2.04414840875671        0.42928529464683
H            1.65157539631187       -1.21506457899499        2.39405463482939
H            2.62472190016481       -0.03654299429549        4.30188974325488
H            4.97644224665487        0.74799792749818        4.19620976590279
H            6.32118279989147        0.27238046928907        2.21618906757780

          :  Hamiltonian                  GFN2-xTB          :
         :: gradient norm              0.000039302055 Eh/a0 ::
         :: HOMO-LUMO gap              1.060423492965 eV    ::
         :: SCC energy              -140.758095918276 Eh    ::
         :: -> dispersion             -0.142458028444 Eh    ::
         :: -> Gsolv                  -0.053661868215 Eh    ::
         :: repulsion energy           2.496869313178 Eh    ::

    * Orbital Energies and Occupations

         #    Occupation            Energy/Eh            Energy/eV
      -------------------------------------------------------------
         1        2.0000           -0.6752851             -18.3754
       ...           ...                  ...                  ...
       118        2.0000           -0.4090879             -11.1318
       119        2.0000           -0.4076874             -11.0937
       120        2.0000           -0.4047729             -11.0144
       121        2.0000           -0.4045935             -11.0095
       122        2.0000           -0.3992812             -10.8650
       123        2.0000           -0.3990665             -10.8592
       124        2.0000           -0.3932526             -10.7009
       125        2.0000           -0.3874723             -10.5437
       126        2.0000           -0.3817680             -10.3884
       127        1.9998           -0.3591857              -9.7739
       128        1.9977           -0.3566398              -9.7047
       129        1.0025           -0.3451722              -9.3926
       130        1.0000           -0.3003757              -8.1736 (HOMO)
       131                         -0.2614059              -7.1132 (LUMO)
       132                         -0.2479755              -6.7478
       133                         -0.2322093              -6.3187
       134                         -0.2319786              -6.3125
       135                         -0.2265831              -6.1656
       136                         -0.2261118              -6.1528
       137                         -0.2254572              -6.1350
       138                         -0.2251843              -6.1276
       139                         -0.2234323              -6.0799
       140                         -0.2140407              -5.8243
       141                         -0.2012264              -5.4756
       ...                                ...                  ...
       254                          0.7126454              19.3921
      -------------------------------------------------------------
                  HL-Gap            0.0389698 Eh            1.0604 eV

     #   Z          covCN         q      C6AA      α(0)
     1   6 C        3.761    -0.107    22.593     6.776
     2   6 C        3.909     0.022    20.142     6.379
     3   6 C        3.761    -0.104    22.533     6.767
     4   6 C        2.979    -0.008    28.211     8.713
     5   6 C        2.927    -0.036    28.903     8.817
     6   6 C        2.917    -0.040    28.994     8.830
     7   6 C        2.919    -0.033    28.821     8.804
     8   6 C        2.924    -0.055    29.372     8.888
     9   6 C        2.926     0.061    26.634     8.463
    10   7 N        2.754    -0.046    22.126     6.986
    11   6 C        2.929     0.028    27.377     8.581
    12   6 C        2.914    -0.060    29.483     8.904
    13   6 C        2.914    -0.060    29.483     8.904
    14   6 C        2.929     0.028    27.377     8.581
    15   7 N        2.754    -0.046    22.125     6.986
    16   6 C        2.933     0.070    26.439     8.433
    17   6 C        2.925    -0.044    29.102     8.847
    18   6 C        2.918    -0.033    28.811     8.802
    19   6 C        2.918    -0.038    28.942     8.822
    20   6 C        2.927    -0.036    28.900     8.816
    21   6 C        2.979    -0.007    28.182     8.708
    22   6 C        3.909     0.022    20.142     6.379
    23   6 C        3.761    -0.107    22.593     6.776
    24   6 C        3.761    -0.104    22.533     6.767
    25   6 C        2.979    -0.008    28.211     8.713
    26   6 C        2.927    -0.036    28.903     8.817
    27   6 C        2.917    -0.040    28.994     8.830
    28   6 C        2.919    -0.033    28.821     8.804
    29   6 C        2.924    -0.055    29.372     8.888
    30   6 C        2.926     0.061    26.635     8.464
    31   6 C        2.946     0.087    26.059     8.373
    32   7 N        1.849    -0.271    27.894     7.828
    33   6 C        2.945     0.080    26.218     8.398
    34   6 C        2.988    -0.012    28.301     8.727
    35   6 C        2.923    -0.031    28.768     8.796
    36   6 C        2.916    -0.034    28.845     8.807
    37   6 C        2.917    -0.034    28.840     8.806
    38   6 C        2.920    -0.036    28.906     8.817
    39   6 C        2.976    -0.004    28.121     8.698
    40   6 C        2.976    -0.004    28.121     8.698
    41   6 C        2.920    -0.036    28.906     8.817
    42   6 C        2.917    -0.034    28.840     8.806
    43   6 C        2.916    -0.034    28.845     8.807
    44   6 C        2.923    -0.031    28.768     8.796
    45   6 C        2.988    -0.012    28.301     8.727
    46   6 C        2.945     0.080    26.217     8.398
    47   7 N        1.849    -0.271    27.895     7.828
    48   6 C        2.946     0.087    26.059     8.373
    49   6 C        2.933     0.070    26.439     8.433
    50   6 C        2.925    -0.044    29.103     8.847
    51   6 C        2.918    -0.033    28.811     8.802
    52   6 C        2.918    -0.038    28.942     8.822
    53   6 C        2.927    -0.036    28.900     8.816
    54   6 C        2.979    -0.007    28.182     8.708
    55   1 H        0.925     0.034     2.532     2.488
    56   1 H        0.925     0.048     2.342     2.393
    57   1 H        0.925     0.048     2.347     2.396
    58   1 H        0.925     0.047     2.356     2.400
    59   1 H        0.925     0.032     2.560     2.502
    60   1 H        0.925     0.047     2.354     2.399
    61   1 H        0.926     0.043     2.411     2.428
    62   1 H        0.926     0.036     2.501     2.473
    63   1 H        0.926     0.034     2.528     2.486
    64   1 H        0.926     0.029     2.596     2.520
    65   1 H        0.926     0.044     2.401     2.423
    66   1 H        0.926     0.044     2.401     2.423
    67   1 H        0.926     0.021     2.711     2.575
    68   1 H        0.926     0.032     2.563     2.503
    69   1 H        0.926     0.037     2.490     2.468
    70   1 H        0.926     0.044     2.401     2.423
    71   1 H        0.925     0.034     2.532     2.488
    72   1 H        0.925     0.048     2.347     2.396
    73   1 H        0.925     0.048     2.342     2.393
    74   1 H        0.925     0.032     2.561     2.502
    75   1 H        0.925     0.047     2.354     2.399
    76   1 H        0.925     0.047     2.356     2.400
    77   1 H        0.926     0.043     2.411     2.428
    78   1 H        0.926     0.036     2.501     2.473
    79   1 H        0.926     0.034     2.528     2.486
    80   1 H        0.926     0.029     2.596     2.520
    81   1 H        0.926     0.039     2.464     2.455
    82   1 H        0.926     0.035     2.515     2.480
    83   1 H        0.926     0.035     2.523     2.484
    84   1 H        0.926     0.036     2.501     2.473
    85   1 H        0.926     0.036     2.501     2.473
    86   1 H        0.926     0.035     2.523     2.484
    87   1 H        0.926     0.035     2.515     2.480
    88   1 H        0.926     0.039     2.464     2.455
    89   1 H        0.926     0.021     2.711     2.575
    90   1 H        0.926     0.032     2.563     2.503
    91   1 H        0.926     0.037     2.490     2.468
    92   1 H        0.926     0.044     2.401     2.423

molecular dipole:
                 x           y           z       tot (Debye)
 q only:       -0.001      -0.614       0.003
   full:       -0.001      -0.588       0.002       1.494

 projected vibrational frequencies (cm⁻¹)
eigval :       -0.00    -0.00     0.00     0.00     0.00     0.00
eigval :       14.38    17.32    21.54    22.37    24.58    27.18
eigval :       43.08    48.33    65.83    67.82    90.34    92.22
eigval :       94.98    98.32   103.93   106.34   114.40   115.54
eigval :      144.64   145.48   156.94   158.49   170.09   184.25
eigval :      198.75   208.77   209.29   221.85   222.76   228.09
eigval :      234.73   238.27   264.19   271.11   292.77   303.91
eigval :      305.23   312.60   329.76   330.62   336.92   342.69
eigval :      349.47   356.22   376.42   378.95   388.39   389.56
eigval :      390.82   401.83   405.04   408.39   415.49   416.41
eigval :      419.41   420.63   455.33   456.85   465.91   509.65
eigval :      510.96   511.47   513.85   523.20   524.54   533.28
eigval :      535.37   538.21   545.58   547.17   553.83   563.64
eigval :      567.61   583.27   584.88   585.70   597.80   611.57
eigval :      612.13   631.15   642.95   651.52   662.51   674.21
eigval :      677.63   687.05   688.04   695.57   697.35   700.83
eigval :      701.27   720.04   722.73   729.42   765.45   772.38
eigval :      774.36   774.64   777.14   777.83   779.83   821.14
eigval :      825.14   827.60   843.39   848.13   866.51   867.97
eigval :      869.36   869.41   872.60   875.95   902.39   907.87
eigval :      909.45   910.75   913.43   914.05   915.07   916.26
eigval :      916.99   917.46   920.88   921.23   922.90   923.03
eigval :      924.28   925.12   937.82   938.01   959.01   959.44
eigval :     1002.42  1013.35  1013.86  1033.63  1039.21  1074.92
eigval :     1075.68  1076.03  1081.91  1098.23  1098.35  1108.65
eigval :     1109.85  1114.98  1116.01  1117.38  1137.81  1137.96
eigval :     1150.52  1151.16  1154.11  1154.14  1169.31  1173.62
eigval :     1178.79  1180.48  1180.75  1181.65  1184.43  1186.13
eigval :     1194.45  1203.80  1224.61  1234.38  1238.59  1243.65
eigval :     1244.92  1249.60  1254.99  1257.49  1262.75  1263.18
eigval :     1269.84  1284.85  1292.71  1293.18  1293.56  1294.24
eigval :     1311.02  1313.29  1326.21  1326.86  1327.56  1331.31
eigval :     1334.13  1334.97  1340.10  1353.59  1359.98  1389.36
eigval :     1398.58  1398.80  1404.36  1415.41  1416.85  1417.58
eigval :     1426.84  1427.08  1428.25  1431.95  1432.18  1450.36
eigval :     1462.51  1463.06  1467.17  1476.13  1480.75  1483.72
eigval :     1484.82  1485.22  1486.88  1486.99  1495.66  1495.78
eigval :     1501.07  1501.25  1514.71  1519.19  1533.89  1550.46
eigval :     1563.21  1563.27  1576.58  1577.76  1582.52  1583.97
eigval :     1584.03  1592.73  1593.74  1594.13  3023.53  3023.61
eigval :     3025.62  3025.68  3043.59  3043.62  3046.36  3046.41
eigval :     3051.21  3051.25  3055.83  3055.97  3071.65  3072.17
eigval :     3075.48  3075.50  3078.49  3078.56  3080.82  3081.82
eigval :     3082.94  3082.98  3086.28  3086.32  3087.87  3090.51
eigval :     3090.62  3093.27  3095.09  3096.00  3096.62  3097.02
eigval :     3097.06  3097.67  3099.25  3104.09  3107.24  3107.69

   temp. (K)  partition function   enthalpy   heat capacity  entropy
                                   cal/mol     cal/K/mol   cal/K/mol   J/K/mol
 298.15  VIB  0.354E+19            25702.290    166.611    156.313
         ROT  0.404E+08              888.752      2.981     37.787
         INT  0.143E+27            26591.043    169.592    194.100
         TR   0.177E+29             1481.254      4.968     45.476
         TOT                       28072.2966   174.5600   239.5755  1002.3838

       T/K    H(0)-H(T)+PV         H(T)/Eh          T*S/Eh         G(T)/Eh
   ------------------------------------------------------------------------
    298.15    0.447361E-01    0.767316E+00    0.113830E+00    0.653486E+00
   ------------------------------------------------------------------------

         :::::::::::::::::::::::::::::::::::::::::::::::::::::
         ::                  THERMODYNAMIC                  ::
         :::::::::::::::::::::::::::::::::::::::::::::::::::::
         :: total free energy        -137.607741056353 Eh   ::
         ::.................................................::
         :: total energy             -138.261226606381 Eh   ::
         :: zero point energy           0.722579538098 Eh   ::
         :: G(RRHO) w/o ZPVE           -0.069093988069 Eh   ::
         :: G(RRHO) contrib.            0.653485550029 Eh   ::
         :::::::::::::::::::::::::::::::::::::::::::::::::::::

           -------------------------------------------------
          | TOTAL ENERGY             -138.261226606381 Eh   |
          | TOTAL ENTHALPY           -137.493911016000 Eh   |
          | TOTAL FREE ENERGY        -137.607741056353 Eh   |
          | GRADIENT NORM               0.000038300926 Eh/α |
          | HOMO-LUMO GAP               1.060422337217 eV   |
           -------------------------------------------------

 * finished run on 2025/08/24 at 08:09:13.024
