   * xtb version 6.7.1 (edcfbbe) compiled by 'albert@albert-system' on 2024-07-22

   ID    Z sym.   atoms
    1    6 C      1-9, 11-14, 16-31, 33-46, 48-54
    2    7 N      10, 15, 32, 47
    3    1 H      55-92

          program call               : xtb data2507/toluene/α-2DMAC-DBP/α-2DMAC-DBP_toluene_S0_crest.xyz --gfn 2 --gbsa toluene --ohess vtight --parallel 40 --molden --ceasefiles --namespace data2507/toluene/α-2DMAC-DBP/α-2DMAC-DBP_toluene_S0_finalOpt
      * Solvation model:               GBSA
        Solvent                        toluene
        Solvent mass                       9.2140E+01 g/mol
          :  Hamiltonian                  GFN2-xTB          :
 * total energy  :  -138.3024317 Eh     change       -0.3484161E-08 Eh
 * total energy  :  -138.3024951 Eh     change       -0.6342872E-04 Eh
 * total energy  :  -138.3025350 Eh     change       -0.3984596E-04 Eh
 * total energy  :  -138.3025613 Eh     change       -0.2630645E-04 Eh
 * total energy  :  -138.3025835 Eh     change       -0.2219515E-04 Eh
 * total energy  :  -138.3026270 Eh     change       -0.4351828E-04 Eh
 * total energy  :  -138.3026551 Eh     change       -0.2807480E-04 Eh
 * total energy  :  -138.3026897 Eh     change       -0.3461954E-04 Eh
 * total energy  :  -138.3027194 Eh     change       -0.2976676E-04 Eh
 * total energy  :  -138.3027435 Eh     change       -0.2406172E-04 Eh
 * total energy  :  -138.3029264 Eh     change       -0.3305179E-06 Eh
 * total energy  :  -138.3029267 Eh     change       -0.2974857E-06 Eh
 * total energy  :  -138.3029270 Eh     change       -0.3265954E-06 Eh
 * total energy  :  -138.3029274 Eh     change       -0.4009039E-06 Eh
 * total energy  :  -138.3029279 Eh     change       -0.4559712E-06 Eh
 * total energy  :  -138.3029283 Eh     change       -0.4332357E-06 Eh
 * total energy  :  -138.3029287 Eh     change       -0.3428916E-06 Eh
 * total energy  :  -138.3029289 Eh     change       -0.2470596E-06 Eh
 * total energy  :  -138.3029289 Eh     change       -0.1176574E-08 Eh
   *** GEOMETRY OPTIMIZATION CONVERGED AFTER 44 ITERATIONS ***

 final structure:
================
92
 xtb: 6.7.1 (edcfbbe)
C            6.83242152654997       -1.94494341248431        0.46127504959669
C            5.67178376148109       -1.05246853353799       -0.01781792608454
C            6.21381035560454        0.27452142360241       -0.58151353651123
C            4.92089716448186       -1.76820015294568       -1.12494064475801
C            5.60595636086267       -2.13557428397983       -2.27607926230238
C            4.97742146271694       -2.74461226784172       -3.34600532117690
C            3.61582638180449       -2.97761286492187       -3.28147101588718
C            2.91193374373714       -2.62429324887939       -2.14892475311518
C            3.54922630599311       -2.03675920941954       -1.05209192132973
N            2.82190074366593       -1.71581216552244        0.09000317421546
C            1.41016483224117       -1.73949712765163        0.05190549110159
C            0.69553818528482       -2.91233338102905        0.03695369721434
C           -0.70619517206337       -2.91009891248125       -0.01651142379904
C           -1.41691003961328       -1.73497466418500       -0.04018857622841
N           -2.82847071124109       -1.70691615736092       -0.07846448615736
C           -3.43018559436632       -1.10535246467943       -1.17771335072109
C           -2.68174003292123       -0.90677356564128       -2.34179042894698
C           -3.23088188843586       -0.29035278504790       -3.44579825592798
C           -4.55133309290599        0.12247109919502       -3.41552130632795
C           -5.30971631361688       -0.12425370207316       -2.28658382590123
C           -4.77990079125976       -0.74533180866190       -1.16253551975872
C           -5.67646516980693       -1.03468589708166        0.02520272466677
C           -6.83974651679340       -1.92551059599130       -0.45056246904943
C           -6.21450308865381        0.29639766268752        0.58300646611108
C           -4.92822842271016       -1.74805768955466        1.13563059941180
C           -5.61505402210397       -2.10865914313002        2.28786118663901
C           -4.98893033685626       -2.71497811984694        3.36072511749525
C           -3.62789942708262       -2.95177253908706        3.29814143730869
C           -2.92229136314393       -2.60516880738612        2.16459158513449
C           -3.55726893820618       -2.02082126258664        1.06471362125542
C           -0.71220154612480       -0.49938449188127       -0.02348931423801
N           -1.39163664002379        0.65329090574085       -0.06502652110108
C           -0.70957879114823        1.78235865331079       -0.05387546927979
C           -1.42136782326367        3.03516677305336       -0.15356833815127
C           -2.80914486934536        3.02127915131615       -0.32327958689889
C           -3.51264953257078        4.19746869311735       -0.44089964010821
C           -2.82922638705788        5.40786748807123       -0.39315272040840
C           -1.46058924617337        5.43447103055915       -0.22952287003147
C           -0.71643404029572        4.25505923486286       -0.10501979449407
C            0.73124390247735        4.25318393730884        0.06655979422179
C            1.47967033512248        5.43088294402569        0.18113557897499
C            2.84831878993920        5.40070814907008        0.34406706444771
C            3.52743345662077        4.18829109651106        0.40135341856577
C            2.81956700145278        3.01369363791530        0.29439575023748
C            1.43176400444269        3.03119283287825        0.12523020981337
C            0.71540614760739        1.78018926736344        0.03637193872311
N            1.39336459906878        0.64880645326550        0.05739264119020
C            0.70974787474313       -0.50170148889860        0.02547182959211
C            3.42557212650021       -1.11041907370270        1.18601038570502
C            2.67771222072568       -0.90305508125199        2.34892301102783
C            3.22914722206644       -0.28340878448293        3.44999371357597
C            4.55121020065649        0.12404989906277        3.41786832841630
C            5.30861811315525       -0.13063716112122        2.29003205126179
C            4.77651404320412       -0.75505943295530        1.16893700168021
H            6.43966387181717       -2.87593153931613        0.86676757273294
H            7.50360826976863       -2.18379792362369       -0.35852523551784
H            7.40797663165404       -1.44869529060659        1.23727043531783
H            6.90591794375544        0.09333870241039       -1.39918456894165
H            5.39037463471688        0.87952986516372       -0.95735666814283
H            6.73325115778810        0.83794927928637        0.18860814763810
H            6.66402094934585       -1.93576130887546       -2.34835581463041
H            5.54199502071226       -3.02066388199306       -4.22369952902961
H            3.09543206003653       -3.43322622778543       -4.11124803167911
H            1.84743894603819       -2.79837109412476       -2.12061953505249
H            1.22119718191652       -3.85555387527707        0.06379458019512
H           -1.23502429390269       -3.85170989049513       -0.03657670986858
H           -1.65440599806573       -1.23989733281276       -2.37809678824504
H           -2.62736320625773       -0.13802097326130       -4.32889720892789
H           -4.99101707569018        0.61627365671322       -4.26887162319380
H           -6.34532029478673        0.18011722378422       -2.28544350876030
H           -6.44974962876189       -2.85941246751108       -0.85199900070929
H           -7.41342260997482       -1.43072107025890       -1.22887900600698
H           -7.51202191492644       -2.15880914339432        0.36994424583760
H           -5.38926625718514        0.90068359296089        0.95605240535082
H           -6.73236506715937        0.85786375118310       -0.18960527504101
H           -6.90707974563883        0.12090202361690        1.40152102495010
H           -6.67259279139289       -1.90555666189378        2.35860218476840
H           -5.55484613236944       -2.98592991663739        4.23914415782485
H           -3.10929772492380       -3.40512317641386        4.13027645864658
H           -1.85822238742844       -2.78202460463095        2.13795877963046
H           -3.30105054584104        2.06193429818503       -0.36730665833264
H           -4.58372777332360        4.18135225752808       -0.57407443567705
H           -3.37270892174800        6.33641028739921       -0.48790733542969
H           -0.96567886940214        6.39165903593122       -0.20574400100637
H            0.98819830258600        6.38962338611731        0.14978999380485
H            3.39522365644589        6.32803245472003        0.43070888093984
H            4.59855606401635        4.16945069698477        0.53380623868052
H            3.30799306552579        2.05296488110159        0.34634865048294
H            1.64900159644602       -1.23176866648060        2.38660554058174
H            2.62614242952354       -0.12437951741394        4.33226522908774
H            4.99281102972036        0.62011528940244        4.26891822936513
H            6.34527380513699        0.17012430739023        2.28741210946634

          :  Hamiltonian                  GFN2-xTB          :
         :: gradient norm              0.000026594736 Eh/a0 ::
         :: HOMO-LUMO gap              0.950188204732 eV    ::
         :: SCC energy              -140.801309989896 Eh    ::
         :: -> dispersion             -0.141837064545 Eh    ::
         :: -> Gsolv                  -0.053442707000 Eh    ::
         :: repulsion energy           2.498381066179 Eh    ::

    * Orbital Energies and Occupations

         #    Occupation            Energy/Eh            Energy/eV
      -------------------------------------------------------------
         1        2.0000           -0.6864209             -18.6785
       ...           ...                  ...                  ...
       117        2.0000           -0.4086759             -11.1206
       118        2.0000           -0.4049638             -11.0196
       119        2.0000           -0.4042097             -10.9991
       120        2.0000           -0.4033149             -10.9748
       121        2.0000           -0.3997902             -10.8788
       122        2.0000           -0.3994046             -10.8684
       123        2.0000           -0.3986787             -10.8486
       124        2.0000           -0.3942882             -10.7291
       125        2.0000           -0.3939402             -10.7197
       126        2.0000           -0.3937877             -10.7155
       127        2.0000           -0.3635155              -9.8918
       128        2.0000           -0.3512935              -9.5592
       129        2.0000           -0.3455916              -9.4040 (HOMO)
       130                         -0.3106728              -8.4538 (LUMO)
       131                         -0.2732211              -7.4347
       132                         -0.2582769              -7.0281
       133                         -0.2363096              -6.4303
       134                         -0.2267990              -6.1715
       135                         -0.2255152              -6.1366
       136                         -0.2254811              -6.1357
       137                         -0.2209674              -6.0128
       138                         -0.2208450              -6.0095
       139                         -0.2200422              -5.9877
       140                         -0.2196500              -5.9770
       ...                                ...                  ...
       254                          0.7067313              19.2311
      -------------------------------------------------------------
                  HL-Gap            0.0349188 Eh            0.9502 eV

     #   Z          covCN         q      C6AA      α(0)
     1   6 C        3.761    -0.106    22.571     6.773
     2   6 C        3.909     0.021    20.164     6.383
     3   6 C        3.761    -0.104    22.528     6.766
     4   6 C        2.979    -0.012    28.314     8.728
     5   6 C        2.928    -0.038    28.936     8.822
     6   6 C        2.917    -0.046    29.135     8.851
     7   6 C        2.920    -0.035    28.877     8.812
     8   6 C        2.924    -0.061    29.515     8.909
     9   6 C        2.925     0.060    26.652     8.466
    10   7 N        2.753    -0.067    22.545     7.052
    11   6 C        2.926     0.055    26.765     8.484
    12   6 C        2.917    -0.051    29.259     8.870
    13   6 C        2.917    -0.051    29.260     8.870
    14   6 C        2.926     0.055    26.765     8.484
    15   7 N        2.753    -0.067    22.544     7.052
    16   6 C        2.932     0.068    26.484     8.440
    17   6 C        2.925    -0.052    29.299     8.877
    18   6 C        2.919    -0.036    28.885     8.813
    19   6 C        2.917    -0.045    29.118     8.849
    20   6 C        2.928    -0.038    28.940     8.822
    21   6 C        2.980    -0.012    28.307     8.727
    22   6 C        3.909     0.021    20.164     6.382
    23   6 C        3.761    -0.106    22.571     6.773
    24   6 C        3.761    -0.104    22.528     6.766
    25   6 C        2.979    -0.012    28.313     8.728
    26   6 C        2.928    -0.038    28.936     8.822
    27   6 C        2.917    -0.046    29.135     8.851
    28   6 C        2.920    -0.035    28.877     8.812
    29   6 C        2.924    -0.061    29.515     8.909
    30   6 C        2.925     0.060    26.653     8.466
    31   6 C        2.967     0.082    26.164     8.390
    32   7 N        1.849    -0.260    27.621     7.789
    33   6 C        2.961     0.089    26.023     8.367
    34   6 C        2.988    -0.008    28.199     8.711
    35   6 C        2.924    -0.026    28.653     8.778
    36   6 C        2.916    -0.028    28.688     8.783
    37   6 C        2.918    -0.025    28.635     8.775
    38   6 C        2.922    -0.034    28.838     8.806
    39   6 C        2.975     0.005    27.899     8.664
    40   6 C        2.975     0.005    27.899     8.664
    41   6 C        2.922    -0.034    28.838     8.806
    42   6 C        2.918    -0.025    28.635     8.775
    43   6 C        2.916    -0.028    28.688     8.783
    44   6 C        2.924    -0.026    28.653     8.778
    45   6 C        2.988    -0.008    28.199     8.711
    46   6 C        2.961     0.089    26.022     8.367
    47   7 N        1.849    -0.260    27.622     7.789
    48   6 C        2.967     0.082    26.164     8.390
    49   6 C        2.932     0.068    26.484     8.440
    50   6 C        2.925    -0.052    29.301     8.877
    51   6 C        2.919    -0.036    28.886     8.813
    52   6 C        2.917    -0.045    29.119     8.849
    53   6 C        2.928    -0.038    28.940     8.822
    54   6 C        2.980    -0.012    28.308     8.727
    55   1 H        0.925     0.031     2.575     2.509
    56   1 H        0.925     0.044     2.392     2.419
    57   1 H        0.925     0.045     2.388     2.417
    58   1 H        0.925     0.044     2.402     2.424
    59   1 H        0.925     0.031     2.574     2.509
    60   1 H        0.925     0.044     2.391     2.418
    61   1 H        0.926     0.037     2.482     2.464
    62   1 H        0.926     0.030     2.591     2.517
    63   1 H        0.926     0.028     2.615     2.529
    64   1 H        0.926     0.018     2.760     2.598
    65   1 H        0.926     0.056     2.242     2.341
    66   1 H        0.926     0.056     2.241     2.341
    67   1 H        0.926     0.009     2.912     2.669
    68   1 H        0.926     0.025     2.662     2.551
    69   1 H        0.926     0.030     2.586     2.515
    70   1 H        0.926     0.038     2.475     2.460
    71   1 H        0.925     0.031     2.575     2.509
    72   1 H        0.925     0.045     2.388     2.417
    73   1 H        0.925     0.044     2.392     2.418
    74   1 H        0.925     0.031     2.574     2.509
    75   1 H        0.925     0.044     2.391     2.418
    76   1 H        0.925     0.044     2.402     2.424
    77   1 H        0.926     0.038     2.482     2.464
    78   1 H        0.926     0.030     2.591     2.517
    79   1 H        0.926     0.028     2.615     2.529
    80   1 H        0.926     0.018     2.759     2.597
    81   1 H        0.926     0.052     2.293     2.368
    82   1 H        0.926     0.046     2.376     2.410
    83   1 H        0.926     0.047     2.362     2.403
    84   1 H        0.926     0.048     2.343     2.394
    85   1 H        0.926     0.048     2.343     2.394
    86   1 H        0.926     0.047     2.362     2.403
    87   1 H        0.926     0.046     2.376     2.410
    88   1 H        0.926     0.052     2.293     2.368
    89   1 H        0.926     0.009     2.912     2.669
    90   1 H        0.926     0.025     2.662     2.551
    91   1 H        0.926     0.030     2.587     2.515
    92   1 H        0.926     0.038     2.476     2.460

molecular dipole:
                 x           y           z       tot (Debye)
 q only:       -0.001       1.212      -0.005
   full:       -0.001       1.122      -0.005       2.852

 projected vibrational frequencies (cm⁻¹)
eigval :       -0.00    -0.00    -0.00    -0.00     0.00     0.00
eigval :       13.40    15.68    15.93    20.56    22.21    23.00
eigval :       40.22    45.40    63.96    67.19    82.73    90.74
eigval :       90.99    97.19   104.69   107.66   114.13   114.98
eigval :      144.61   145.20   155.77   157.35   160.98   198.21
eigval :      202.51   208.31   209.27   222.79   223.54   228.70
eigval :      233.21   237.73   267.57   268.02   285.25   302.42
eigval :      305.30   307.69   329.49   333.01   333.04   344.40
eigval :      348.93   354.50   375.96   378.52   387.47   391.55
eigval :      392.48   399.26   401.08   404.52   411.94   412.53
eigval :      416.87   421.54   453.69   456.22   468.45   498.01
eigval :      504.70   514.11   515.72   515.90   525.60   538.95
eigval :      539.65   539.96   548.41   548.74   557.28   568.99
eigval :      570.93   584.89   585.66   587.40   603.16   616.31
eigval :      616.59   649.72   653.61   668.17   680.51   680.75
eigval :      683.83   685.15   686.39   696.18   696.28   702.99
eigval :      720.86   724.84   739.06   769.59   769.94   771.59
eigval :      774.96   776.46   777.35   777.73   790.54   824.23
eigval :      824.59   844.89   847.84   854.39   864.65   868.01
eigval :      868.37   871.55   873.22   882.13   909.62   911.54
eigval :      912.00   913.93   914.51   915.31   917.44   919.17
eigval :      920.15   920.47   921.34   921.79   926.69   927.82
eigval :      930.92   931.92   938.47   938.50   958.10   958.34
eigval :     1009.79  1013.71  1014.03  1039.00  1057.26  1073.10
eigval :     1076.34  1076.63  1084.50  1102.28  1107.45  1111.10
eigval :     1113.68  1114.38  1118.64  1118.85  1139.28  1139.50
eigval :     1146.49  1150.40  1159.07  1159.10  1167.86  1176.03
eigval :     1178.43  1180.48  1183.14  1184.27  1185.69  1186.55
eigval :     1193.34  1207.87  1233.82  1238.59  1241.73  1246.61
eigval :     1249.35  1249.81  1257.73  1265.13  1267.79  1276.18
eigval :     1280.92  1287.65  1292.53  1293.46  1293.96  1319.75
eigval :     1320.85  1322.18  1326.47  1327.84  1330.22  1334.05
eigval :     1334.19  1337.18  1349.59  1362.53  1383.01  1399.13
eigval :     1399.37  1417.62  1417.83  1425.11  1426.31  1429.03
eigval :     1434.55  1435.10  1436.95  1437.04  1458.22  1474.97
eigval :     1475.61  1475.97  1486.46  1486.50  1487.97  1488.77
eigval :     1488.99  1491.55  1495.70  1497.16  1497.19  1503.36
eigval :     1503.53  1505.59  1532.67  1553.26  1566.40  1572.28
eigval :     1573.81  1577.21  1583.78  1589.42  1589.52  1590.61
eigval :     1590.94  1596.38  1599.98  1600.77  3022.18  3022.24
eigval :     3024.81  3024.84  3039.93  3040.08  3043.43  3043.48
eigval :     3048.00  3048.11  3053.87  3053.92  3066.82  3067.05
eigval :     3073.83  3074.08  3075.93  3076.01  3078.91  3079.48
eigval :     3081.87  3081.88  3082.00  3082.02  3085.96  3090.01
eigval :     3090.57  3092.70  3092.78  3093.64  3093.82  3096.02
eigval :     3099.58  3099.78  3103.39  3105.02  3105.30  3113.16

   temp. (K)  partition function   enthalpy   heat capacity  entropy
                                   cal/mol     cal/K/mol   cal/K/mol   J/K/mol
 298.15  VIB  0.997E+19            25690.317    165.612    156.998
         ROT  0.408E+08              888.752      2.981     37.808
         INT  0.407E+27            26579.069    168.593    194.806
         TR   0.177E+29             1481.254      4.968     45.476
         TOT                       28060.3228   173.5608   240.2820  1005.3401

       T/K    H(0)-H(T)+PV         H(T)/Eh          T*S/Eh         G(T)/Eh
   ------------------------------------------------------------------------
    298.15    0.447170E-01    0.769243E+00    0.114166E+00    0.655078E+00
   ------------------------------------------------------------------------

         :::::::::::::::::::::::::::::::::::::::::::::::::::::
         ::                  THERMODYNAMIC                  ::
         :::::::::::::::::::::::::::::::::::::::::::::::::::::
         :: total free energy        -137.647851210173 Eh   ::
         ::.................................................::
         :: total energy             -138.302928922816 Eh   ::
         :: zero point energy           0.724526492095 Eh   ::
         :: G(RRHO) w/o ZPVE           -0.069448779452 Eh   ::
         :: G(RRHO) contrib.            0.655077712643 Eh   ::
         :::::::::::::::::::::::::::::::::::::::::::::::::::::

           -------------------------------------------------
          | TOTAL ENERGY             -138.302928922816 Eh   |
          | TOTAL ENTHALPY           -137.533685459941 Eh   |
          | TOTAL FREE ENERGY        -137.647851210173 Eh   |
          | GRADIENT NORM               0.000026596574 Eh/α |
          | HOMO-LUMO GAP               0.950188161795 eV   |
           -------------------------------------------------

 * finished run on 2025/08/24 at 08:02:10.858
