   * xtb version 6.7.1 (edcfbbe) compiled by 'albert@albert-system' on 2024-07-22

   ID    Z sym.   atoms
    1    6 C      1-9, 11-14, 16-31, 33-46, 48-54
    2    7 N      10, 15, 32, 47
    3    1 H      55-92

          program call               : xtb data2507/toluene/α-2DMAC-DBP/α-2DMAC-DBP.xyz --gfn 2 --gbsa toluene --ohess vtight --parallel 40 --molden --ceasefiles --namespace data2507/toluene/α-2DMAC-DBP/α-2DMAC-DBP_toluene_S0_preOpt
      * Solvation model:               GBSA
        Solvent                        toluene
        Solvent mass                       9.2140E+01 g/mol
          :  Hamiltonian                  GFN2-xTB          :
 * total energy  :  -138.2643920 Eh     change       -0.5259494E-08 Eh
 * total energy  :  -138.2905645 Eh     change       -0.2617250E-01 Eh
 * total energy  :  -138.2990551 Eh     change       -0.8490647E-02 Eh
 * total energy  :  -138.3003241 Eh     change       -0.1268946E-02 Eh
 * total energy  :  -138.3009130 Eh     change       -0.5889697E-03 Eh
 * total energy  :  -138.3011544 Eh     change       -0.2414212E-03 Eh
 * total energy  :  -138.3012644 Eh     change       -0.1100010E-03 Eh
 * total energy  :  -138.3013256 Eh     change       -0.6116630E-04 Eh
 * total energy  :  -138.3013685 Eh     change       -0.4290383E-04 Eh
 * total energy  :  -138.3013866 Eh     change       -0.1804769E-04 Eh
 * total energy  :  -138.3015924 Eh     change       -0.2577287E-05 Eh
 * total energy  :  -138.3015949 Eh     change       -0.2561387E-05 Eh
 * total energy  :  -138.3015970 Eh     change       -0.2087556E-05 Eh
 * total energy  :  -138.3015985 Eh     change       -0.1471757E-05 Eh
 * total energy  :  -138.3015996 Eh     change       -0.1073679E-05 Eh
 * total energy  :  -138.3016005 Eh     change       -0.8954889E-06 Eh
 * total energy  :  -138.3016014 Eh     change       -0.9058800E-06 Eh
 * total energy  :  -138.3016024 Eh     change       -0.1016120E-05 Eh
 * total energy  :  -138.3016024 Eh     change       -0.5729021E-08 Eh
   *** GEOMETRY OPTIMIZATION CONVERGED AFTER 44 ITERATIONS ***

 final structure:
================
92
 xtb: 6.7.1 (edcfbbe)
C            6.60454839184759       -2.66569882359805        0.00103616043566
C            5.74509102831412       -1.38698720179129       -0.00326927968159
C            6.64999686781805       -0.14086307164100       -0.00859131196487
C            4.89359020002254       -1.38097732903851       -1.25976804673934
C            5.50801324864251       -1.33949905142527       -2.50397053470314
C            4.78455498951927       -1.33687359912847       -3.68286327798656
C            3.40315242095457       -1.37819398655552       -3.62851675904134
C            2.76742805940168       -1.42697768544237       -2.40527502851064
C            3.49631183806269       -1.43084592824861       -1.21305980987156
N            2.82813680467781       -1.50526676288558       -0.00119472007727
C            1.40944434791673       -1.50532123732087       -0.00041114706764
C            0.70274111474819       -2.68017493179075       -0.00055566734118
C           -0.70127187444097       -2.68055146841677        0.00019264729399
C           -1.40861528094874       -1.50608260263629        0.00026514097777
N           -2.82730621686964       -1.50686066024168        0.00109180022512
C           -3.49697060082182       -1.42488808161364       -1.20943410931873
C           -2.76946637037120       -1.41342259932811       -2.40242755279484
C           -3.40662169405170       -1.35667688604897       -3.62457717366979
C           -4.78809666570862       -1.31526329326947       -3.67703526293659
C           -5.51021597875212       -1.32624481112510       -2.49737063049391
C           -4.89433138959900       -1.37558491862948       -1.25417317469706
C           -5.74436062385309       -1.39115915086584        0.00325750978024
C           -6.60272202308970       -2.67060179782946       -0.00053376281962
C           -6.65034442796186       -0.14581515166371        0.00815089181579
C           -4.89280599621390       -1.38393778031734        1.25971644957817
C           -5.50720715658528       -1.34254931317547        2.50393274402173
C           -4.78369276015347       -1.33881401205889        3.68278866246994
C           -3.40225598264843       -1.37892264876126        3.62839056408371
C           -2.76654821127301       -1.42763655304049        2.40513777990337
C           -3.49548588246654       -1.43257993032718        1.21295950194756
C           -0.71196165887950       -0.26821321253591       -0.00045185600448
N           -1.39658323998130        0.88296918556861       -0.00286145479738
C           -0.71567614661165        2.01289067882288       -0.00253894723525
C           -1.43406807446204        3.26660448535103       -0.00858260242792
C           -2.83228235472181        3.25423580101934       -0.01870888163959
C           -3.54546346765208        4.43042540706840       -0.02675230066125
C           -2.86192481378128        5.64147208268537       -0.02525797511528
C           -1.48366140250024        5.66765430290064       -0.01495315781611
C           -0.72986386162329        4.48791153402068       -0.00577710913587
C            0.72748128354590        4.48830072372083        0.00599469443807
C            1.48065073761404        5.66844467727148        0.01518396539095
C            2.85892802176452        5.64299624101925        0.02550426817909
C            3.54311158083193        4.43231364958377        0.02699222235035
C            2.83055561510219        3.25574549080894        0.01894096337723
C            1.43233540328781        3.26736920190449        0.00880313677544
C            0.71461264151884        2.01327276853827        0.00272914090739
N            1.39612298778104        0.88371479273428        0.00298772358986
C            0.71211500333807       -0.26783207755464        0.00047137877339
C            3.49768070521473       -1.42230737902980        1.20933316722814
C            2.77012087238657       -1.41126385056967        2.40229612650561
C            3.40717174250341       -1.35356741425619        3.62445599011209
C            4.78860081227835       -1.31073161243486        3.67695528970064
C            5.51077791141110       -1.32137367867275        2.49732367795509
C            4.89499236257338       -1.37169453027570        1.25411593767423
H            5.96293130825621       -3.54531963904017        0.00477391612276
H            7.23794943465873       -2.70726505118296       -0.88088283671853
H            7.23909043809344       -2.70057766525550        0.88241981166394
H            7.28806481304669       -0.12804050796763       -0.88737729224006
H            6.03993563362271        0.76028108134923       -0.01358775458762
H            7.28662333494389       -0.11938815956267        0.87106876259611
H            6.58537232895928       -1.31147450436807       -2.56245535078634
H            5.29538801850132       -1.30421521901719       -4.63336121254066
H            2.81657439286579       -1.37512609493282       -4.53577009152778
H            1.68844591311547       -1.46209843416541       -2.36886589823764
H            1.23500429700714       -3.61975671470247       -0.00119146981392
H           -1.23303433620399       -3.62041793292701        0.00067319478253
H           -1.69045249040733       -1.44907753773432       -2.36748216275396
H           -2.82111014272437       -1.34763315922500       -4.53247931905719
H           -5.30003415229077       -1.27642733987925       -4.62670454276453
H           -6.58766642212141       -1.29856972749068       -2.55446039308690
H           -5.96034165803554       -3.54966139753512       -0.00403063129813
H           -7.23731334515429       -2.70633360610322       -0.88184844274068
H           -7.23600666565207       -2.71241938595564        0.88145704882695
H           -7.28834321233479       -0.13317441676749        0.88699214385641
H           -6.04105000418438        0.75584788361710        0.01271537302195
H           -7.28706792356610       -0.12524939288113       -0.87146246825496
H           -6.58458760719677       -1.31545350475170        2.56245913237037
H           -5.29450809793520       -1.30623007648409        4.63329854955296
H           -2.81563843528650       -1.37499535330478        4.53561521252492
H           -1.68753816184060       -1.46186638676051        2.36869090721874
H           -3.32587471882633        2.29532207583526       -0.02038163811849
H           -4.62480919758143        4.41434133990505       -0.03458548051759
H           -3.41310293586511        6.57019221355431       -0.03221312227358
H           -0.98981083769236        6.62548558708741       -0.01470795262053
H            0.98629064636780        6.62601315074949        0.01488071522135
H            3.40961303309345        6.57200901597365        0.03242443227131
H            4.62246552608006        4.41680230887847        0.03487145573826
H            3.32465462176723        2.29709381050391        0.02066790839794
H            1.69114457921588       -1.44802070769727        2.36732338672243
H            2.82161510904258       -1.34486358215208        4.53233267114194
H            5.30046088915871       -1.27112323247104        4.62663472373107
H            6.58820019004950       -1.29267473660176        2.55445071323535

          :  Hamiltonian                  GFN2-xTB          :
         :: gradient norm              0.000060425719 Eh/a0 ::
         :: HOMO-LUMO gap              0.883722340707 eV    ::
         :: SCC energy              -140.801293775078 Eh    ::
         :: -> dispersion             -0.138261397087 Eh    ::
         :: -> Gsolv                  -0.054857203194 Eh    ::
         :: repulsion energy           2.499691384369 Eh    ::

    * Orbital Energies and Occupations

         #    Occupation            Energy/Eh            Energy/eV
      -------------------------------------------------------------
         1        2.0000           -0.6905505             -18.7908
       ...           ...                  ...                  ...
       117        2.0000           -0.4089343             -11.1277
       118        2.0000           -0.4055300             -11.0350
       119        2.0000           -0.4047625             -11.0141
       120        2.0000           -0.4045209             -11.0076
       121        2.0000           -0.4019180             -10.9367
       122        2.0000           -0.3995690             -10.8728
       123        2.0000           -0.3994802             -10.8704
       124        2.0000           -0.3962600             -10.7828
       125        2.0000           -0.3941547             -10.7255
       126        2.0000           -0.3941301             -10.7248
       127        2.0000           -0.3657894              -9.9536
       128        2.0000           -0.3486169              -9.4863
       129        2.0000           -0.3473053              -9.4507 (HOMO)
       130                         -0.3148291              -8.5669 (LUMO)
       131                         -0.2765822              -7.5262
       132                         -0.2603847              -7.0854
       133                         -0.2389261              -6.5015
       134                         -0.2301808              -6.2635
       135                         -0.2254608              -6.1351
       136                         -0.2254372              -6.1345
       137                         -0.2208120              -6.0086
       138                         -0.2207946              -6.0081
       139                         -0.2199640              -5.9855
       140                         -0.2197459              -5.9796
       ...                                ...                  ...
       254                          0.7027579              19.1230
      -------------------------------------------------------------
                  HL-Gap            0.0324762 Eh            0.8837 eV

     #   Z          covCN         q      C6AA      α(0)
     1   6 C        3.761    -0.105    22.550     6.769
     2   6 C        3.908     0.021    20.167     6.383
     3   6 C        3.760    -0.105    22.553     6.770
     4   6 C        2.979    -0.013    28.338     8.732
     5   6 C        2.928    -0.038    28.934     8.821
     6   6 C        2.917    -0.047    29.155     8.854
     7   6 C        2.919    -0.035    28.879     8.812
     8   6 C        2.924    -0.058    29.431     8.897
     9   6 C        2.929     0.063    26.588     8.456
    10   7 N        2.754    -0.069    22.583     7.058
    11   6 C        2.925     0.061    26.633     8.463
    12   6 C        2.918    -0.046    29.154     8.854
    13   6 C        2.918    -0.046    29.154     8.854
    14   6 C        2.925     0.061    26.633     8.463
    15   7 N        2.754    -0.069    22.583     7.058
    16   6 C        2.929     0.063    26.586     8.456
    17   6 C        2.924    -0.057    29.429     8.896
    18   6 C        2.919    -0.035    28.879     8.812
    19   6 C        2.917    -0.047    29.155     8.854
    20   6 C        2.928    -0.038    28.934     8.821
    21   6 C        2.979    -0.013    28.338     8.732
    22   6 C        3.908     0.021    20.167     6.383
    23   6 C        3.761    -0.105    22.550     6.769
    24   6 C        3.760    -0.105    22.553     6.770
    25   6 C        2.979    -0.013    28.338     8.732
    26   6 C        2.928    -0.038    28.934     8.821
    27   6 C        2.917    -0.047    29.155     8.854
    28   6 C        2.919    -0.035    28.879     8.812
    29   6 C        2.924    -0.058    29.431     8.897
    30   6 C        2.929     0.063    26.588     8.456
    31   6 C        2.967     0.082    26.159     8.389
    32   7 N        1.848    -0.257    27.530     7.776
    33   6 C        2.961     0.090    25.998     8.363
    34   6 C        2.988    -0.007    28.188     8.709
    35   6 C        2.924    -0.025    28.631     8.775
    36   6 C        2.916    -0.027    28.674     8.781
    37   6 C        2.918    -0.024    28.609     8.771
    38   6 C        2.922    -0.033    28.824     8.804
    39   6 C        2.975     0.006    27.872     8.660
    40   6 C        2.975     0.006    27.872     8.660
    41   6 C        2.922    -0.033    28.824     8.804
    42   6 C        2.918    -0.024    28.609     8.771
    43   6 C        2.916    -0.027    28.674     8.781
    44   6 C        2.924    -0.025    28.631     8.775
    45   6 C        2.988    -0.007    28.188     8.709
    46   6 C        2.961     0.090    25.998     8.363
    47   7 N        1.848    -0.257    27.531     7.776
    48   6 C        2.967     0.082    26.159     8.389
    49   6 C        2.929     0.063    26.586     8.456
    50   6 C        2.924    -0.057    29.429     8.896
    51   6 C        2.919    -0.035    28.879     8.812
    52   6 C        2.917    -0.047    29.155     8.854
    53   6 C        2.928    -0.038    28.934     8.821
    54   6 C        2.979    -0.013    28.338     8.732
    55   1 H        0.925     0.030     2.584     2.514
    56   1 H        0.925     0.044     2.397     2.421
    57   1 H        0.925     0.044     2.396     2.421
    58   1 H        0.925     0.044     2.396     2.420
    59   1 H        0.925     0.031     2.573     2.508
    60   1 H        0.925     0.044     2.395     2.420
    61   1 H        0.926     0.037     2.485     2.465
    62   1 H        0.926     0.029     2.597     2.520
    63   1 H        0.926     0.026     2.647     2.544
    64   1 H        0.926     0.007     2.932     2.678
    65   1 H        0.926     0.059     2.205     2.322
    66   1 H        0.926     0.059     2.205     2.322
    67   1 H        0.926     0.007     2.933     2.678
    68   1 H        0.926     0.026     2.648     2.545
    69   1 H        0.926     0.029     2.597     2.520
    70   1 H        0.926     0.037     2.485     2.465
    71   1 H        0.925     0.030     2.584     2.514
    72   1 H        0.925     0.044     2.396     2.421
    73   1 H        0.925     0.044     2.397     2.421
    74   1 H        0.925     0.044     2.396     2.420
    75   1 H        0.925     0.031     2.573     2.508
    76   1 H        0.925     0.044     2.395     2.420
    77   1 H        0.926     0.037     2.485     2.465
    78   1 H        0.926     0.029     2.597     2.520
    79   1 H        0.926     0.026     2.647     2.544
    80   1 H        0.926     0.007     2.932     2.678
    81   1 H        0.926     0.052     2.294     2.368
    82   1 H        0.926     0.046     2.372     2.409
    83   1 H        0.926     0.048     2.342     2.393
    84   1 H        0.926     0.050     2.319     2.382
    85   1 H        0.926     0.050     2.319     2.382
    86   1 H        0.926     0.048     2.342     2.393
    87   1 H        0.926     0.046     2.372     2.409
    88   1 H        0.926     0.052     2.294     2.368
    89   1 H        0.926     0.007     2.933     2.678
    90   1 H        0.926     0.026     2.648     2.545
    91   1 H        0.926     0.029     2.597     2.520
    92   1 H        0.926     0.037     2.485     2.465

molecular dipole:
                 x           y           z       tot (Debye)
 q only:       -0.000       1.184      -0.000
   full:       -0.000       1.112      -0.000       2.828

 projected vibrational frequencies (cm⁻¹)
eigval :       -0.00    -0.00    -0.00    -0.00    -0.00     0.00
eigval :      -14.20    -7.53     6.19    13.51    17.15    17.39
eigval :       39.29    43.34    49.60    58.54    75.09    75.67
eigval :       91.19    95.47    97.26   100.08   110.41   114.46
eigval :      115.81   116.11   138.94   151.32   154.33   190.65
eigval :      191.61   193.72   196.23   218.69   218.93   226.41
eigval :      226.79   234.91   257.29   262.56   284.85   301.18
eigval :      301.99   305.68   326.99   332.33   332.88   344.69
eigval :      347.02   349.84   377.10   380.55   384.75   387.84
eigval :      388.66   395.54   401.31   402.41   404.98   412.31
eigval :      415.27   416.78   447.98   448.73   468.29   489.85
eigval :      506.67   509.91   514.41   514.47   523.35   536.28
eigval :      538.46   543.62   546.35   547.05   547.12   569.12
eigval :      571.35   584.58   585.82   586.81   602.94   615.46
eigval :      617.34   654.24   655.78   668.21   677.26   681.16
eigval :      681.78   682.48   682.60   693.67   693.75   701.54
eigval :      721.02   724.73   740.17   767.26   767.96   771.42
eigval :      774.25   775.07   776.72   776.98   788.46   821.80
eigval :      823.21   842.42   846.07   856.52   861.94   862.51
eigval :      864.83   865.25   868.04   879.19   909.73   910.83
eigval :      911.01   912.02   912.20   916.16   917.12   918.43
eigval :      918.44   919.37   919.73   919.78   920.67   926.41
eigval :      927.45   928.41   938.85   938.98   958.06   958.29
eigval :     1009.57  1012.39  1012.42  1037.88  1056.89  1073.31
eigval :     1076.01  1076.06  1083.59  1101.63  1107.95  1110.40
eigval :     1112.81  1113.38  1118.20  1118.47  1138.31  1138.62
eigval :     1145.65  1149.65  1158.75  1158.80  1167.11  1174.52
eigval :     1177.88  1179.99  1184.21  1184.35  1184.78  1186.11
eigval :     1191.82  1208.08  1232.67  1238.22  1241.30  1245.40
eigval :     1247.40  1249.00  1254.55  1266.12  1267.56  1278.95
eigval :     1281.70  1290.16  1292.18  1292.28  1293.88  1321.36
eigval :     1325.05  1325.12  1326.68  1331.16  1334.01  1337.50
eigval :     1338.09  1338.88  1350.52  1360.44  1382.55  1399.66
eigval :     1399.80  1418.46  1418.58  1424.79  1424.87  1433.49
eigval :     1435.93  1437.04  1439.83  1440.51  1457.96  1475.94
eigval :     1477.36  1478.18  1485.61  1485.68  1485.79  1485.84
eigval :     1488.63  1494.12  1495.85  1496.10  1497.93  1501.75
eigval :     1502.00  1503.18  1536.54  1553.37  1566.48  1574.31
eigval :     1574.31  1580.79  1583.74  1589.73  1589.82  1590.58
eigval :     1590.97  1596.41  1600.46  1601.62  3023.22  3023.28
eigval :     3028.74  3028.76  3039.03  3039.04  3043.14  3043.17
eigval :     3046.63  3046.64  3054.05  3054.07  3068.29  3068.58
eigval :     3069.15  3069.17  3077.55  3077.73  3078.79  3078.84
eigval :     3079.74  3080.20  3083.47  3083.55  3084.28  3084.32
eigval :     3089.18  3090.44  3091.05  3093.79  3093.88  3095.08
eigval :     3095.29  3098.85  3106.25  3111.08  3111.17  3115.73

   temp. (K)  partition function   enthalpy   heat capacity  entropy
                                   cal/mol     cal/K/mol   cal/K/mol   J/K/mol
 298.15  VIB  0.554E+21            26061.499    165.461    162.624
         ROT  0.427E+08              888.752      2.981     37.896
         INT  0.237E+29            26950.251    168.441    200.520
         TR   0.177E+29             1481.254      4.968     45.476
         TOT                       28431.5048   173.4096   245.9956  1029.2458

       T/K    H(0)-H(T)+PV         H(T)/Eh          T*S/Eh         G(T)/Eh
   ------------------------------------------------------------------------
    298.15    0.453085E-01    0.768885E+00    0.116880E+00    0.652004E+00
   ------------------------------------------------------------------------

         :::::::::::::::::::::::::::::::::::::::::::::::::::::
         ::                  THERMODYNAMIC                  ::
         :::::::::::::::::::::::::::::::::::::::::::::::::::::
         :: total free energy        -137.649597905395 Eh   ::
         ::.................................................::
         :: total energy             -138.301602389407 Eh   ::
         :: zero point energy           0.723576466845 Eh   ::
         :: G(RRHO) w/o ZPVE           -0.071571982833 Eh   ::
         :: G(RRHO) contrib.            0.652004484012 Eh   ::
         :::::::::::::::::::::::::::::::::::::::::::::::::::::

           -------------------------------------------------
          | TOTAL ENERGY             -138.301602389407 Eh   |
          | TOTAL ENTHALPY           -137.532717435606 Eh   |
          | TOTAL FREE ENERGY        -137.649597905395 Eh   |
          | GRADIENT NORM               0.000060425701 Eh/α |
          | HOMO-LUMO GAP               0.883722237681 eV   |
           -------------------------------------------------

 * finished run on 2025/08/24 at 07:56:11.294
