   * xtb version 6.7.1 (edcfbbe) compiled by 'albert@albert-system' on 2024-07-22

   ID    Z sym.   atoms
    1    6 C      1-9, 11-14, 16-31, 33-46, 48-54
    2    7 N      10, 15, 32, 47
    3    1 H      55-92

          program call               : xtb data2507/toluene/α-2DMAC-DBP/α-2DMAC-DBP_toluene_S0_finalOpt.xtbopt.xyz --gfn 2 --uhf 2 --gbsa toluene --ohess vtight --parallel 40 --molden --ceasefiles --namespace data2507/toluene/α-2DMAC-DBP/α-2DMAC-DBP_toluene_T1_preOpt
      * Solvation model:               GBSA
        Solvent                        toluene
        Solvent mass                       9.2140E+01 g/mol
          :  Hamiltonian                  GFN2-xTB          :
 * total energy  :  -138.2577249 Eh     change       -0.2173786E-07 Eh
 * total energy  :  -138.2602891 Eh     change       -0.2564132E-02 Eh
 * total energy  :  -138.2609891 Eh     change       -0.7000054E-03 Eh
 * total energy  :  -138.2610823 Eh     change       -0.9323196E-04 Eh
 * total energy  :  -138.2611414 Eh     change       -0.5907200E-04 Eh
 * total energy  :  -138.2611592 Eh     change       -0.1779841E-04 Eh
 * total energy  :  -138.2611767 Eh     change       -0.1755348E-04 Eh
 * total energy  :  -138.2611962 Eh     change       -0.1944623E-04 Eh
 * total energy  :  -138.2612048 Eh     change       -0.8636119E-05 Eh
 * total energy  :  -138.2612115 Eh     change       -0.6657008E-05 Eh
 * total energy  :  -138.2612219 Eh     change       -0.1979751E-05 Eh
 * total energy  :  -138.2612234 Eh     change       -0.1566567E-05 Eh
 * total energy  :  -138.2612243 Eh     change       -0.8815502E-06 Eh
 * total energy  :  -138.2612250 Eh     change       -0.6945532E-06 Eh
 * total energy  :  -138.2612254 Eh     change       -0.4336313E-06 Eh
 * total energy  :  -138.2612258 Eh     change       -0.3517589E-06 Eh
 * total energy  :  -138.2612262 Eh     change       -0.3686860E-06 Eh
 * total energy  :  -138.2612265 Eh     change       -0.2905805E-06 Eh
 * total energy  :  -138.2612265 Eh     change       -0.6467985E-08 Eh
   *** GEOMETRY OPTIMIZATION CONVERGED AFTER 22 ITERATIONS ***

 final structure:
================
92
 xtb: 6.7.1 (edcfbbe)
C            6.80311032779785       -1.96359808120869        0.46690490367250
C            5.65412552573933       -1.05906423562229       -0.01910240786132
C            6.21418058186620        0.25797325521942       -0.59041209543571
C            4.89622979139067       -1.77007129982429       -1.12154493160861
C            5.57140329191778       -2.13815296164411       -2.27846833992671
C            4.93065064977498       -2.74322273392245       -3.34314969216829
C            3.56716362001346       -2.97194591675396       -3.26914669114458
C            2.87372790182679       -2.62064204493324       -2.13119829643440
C            3.52358663351529       -2.03884717958999       -1.03602392637303
N            2.80821430853827       -1.73924446257170        0.11605478826840
C            1.39276597078064       -1.76868135771370        0.08543965907279
C            0.68518806522503       -2.96640044418986        0.04739863904147
C           -0.69539442916345       -2.96450821151013       -0.03065958630208
C           -1.39923692614587       -1.76484973016510       -0.07667670808807
N           -2.81458753070406       -1.73102129638481       -0.10686838540264
C           -3.41552239408959       -1.10367600241236       -1.18572156274938
C           -2.66750821202276       -0.87858274595074       -2.34879265280167
C           -3.21765978235939       -0.23761479825383       -3.43634327904843
C           -4.53831984973114        0.17814460147248       -3.39320493943271
C           -5.29581801715285       -0.08773201797863       -2.26765794873335
C           -4.76570945499806       -0.73309646300753       -1.15806329783811
C           -5.65803787110431       -1.03990635747222        0.02594232387086
C           -6.81043027492748       -1.94306069562140       -0.45454462569540
C           -6.21313677593572        0.28225249383951        0.59022064296917
C           -4.90210472534874       -1.74748261367435        1.13192499753595
C           -5.57805533320733       -2.10677507104706        2.29115266569963
C           -4.93896278018518       -2.70820586178863        3.35887844877560
C           -3.57628940968946       -2.94195696948108        3.28561007771475
C           -2.88213765891714       -2.59941034604486        2.14544096869585
C           -3.53044858574275       -2.02156170785792        1.04726412437960
C           -0.71668762780673       -0.53253936380938       -0.05533741908570
N           -1.36480399317115        0.62780211673557       -0.13738107915768
C           -0.70138236886816        1.78432650661981       -0.08376152597793
C           -1.40455554059671        3.02514455719301       -0.18897446140115
C           -2.79537679441293        3.01060796228732       -0.38123147933591
C           -3.50171319876544        4.18004201079158       -0.49389823614346
C           -2.82756069499109        5.39984733355393       -0.41652359656065
C           -1.46569074150676        5.43282028052167       -0.23193071116445
C           -0.71005495891803        4.25614362777537       -0.11362075423634
C            0.72254699682974        4.25459617869723        0.07892456964731
C            1.48177632967042        5.42971289162071        0.18930779809688
C            2.84361710497344        5.39382752495611        0.37356608530312
C            3.51409318584552        4.17251400440228        0.45874012996801
C            2.80410447963078        3.00450424325246        0.35449497426257
C            1.41326914638549        3.02199394475620        0.16257532677120
C            0.70622157463048        1.78265450883414        0.06629059156608
N            1.36597994529533        0.62447114723810        0.12860183054380
C            0.71416388475607       -0.53439029077095        0.05524669624846
C            3.41074549362535       -1.10790020969739        1.19168224333322
C            2.66281881755386       -0.87332896438590        2.35291427506694
C            3.21472503944636       -0.22835185532488        3.43720880930124
C            4.53700581171202        0.18205338304095        3.39262161993216
C            5.29416251390954       -0.09287786543930        2.26902109479989
C            4.76230619489164       -0.74247646459836        1.16273311955124
H            6.39899633388380       -2.89048371826730        0.87027086816846
H            7.47519556844708       -2.20823637065475       -0.35025345825570
H            7.37828348784987       -1.47197701301790        1.24594006752858
H            6.89566420565152        0.06325695353837       -1.41344693110589
H            5.39822912703491        0.87725278666548       -0.95942360737174
H            6.75045185138904        0.81377106055288        0.17327364629806
H            6.62943738435756       -1.94260710956534       -2.35869016823587
H            5.48653516285085       -3.01902556564261       -4.22624347316436
H            3.03992985114375       -3.42219603752964       -4.09707281679002
H            1.80955970239908       -2.79025433967081       -2.09067246831768
H            1.22795764882162       -3.89872032028209        0.08521785134705
H           -1.24102555337157       -3.89537809640550       -0.06229294426276
H           -1.64284099157336       -1.21542665033633       -2.39275809976231
H           -2.61667398405748       -0.06529402521792       -4.31696613693583
H           -4.97833651685028        0.69141270923321       -4.23458738861600
H           -6.33012753957664        0.21993937857129       -2.25843830487828
H           -6.40969023646939       -2.87332556101066       -0.85347538975333
H           -7.38459512542119       -1.45353632298963       -1.23565037953929
H           -7.48267520365984       -2.18129071488501        0.36437612098504
H           -5.39484957815594        0.90058780305896        0.95562494771265
H           -6.74757262744561        0.83580498943159       -0.17637273719125
H           -6.89514306341307        0.09453030983943        1.41444915228059
H           -6.63536516929417       -1.90710068553826        2.37071625130037
H           -5.49542924634132       -2.97732195930335        4.24366943107730
H           -3.05027474926505       -3.38941050217172        4.11582324785477
H           -1.81857225993279       -2.77288402379439        2.10548733917293
H           -3.28273082491121        2.04921510832107       -0.44444899335793
H           -4.57095822844623        4.16061554013668       -0.64445519881832
H           -3.37944782933194        6.32442399925222       -0.50420510209603
H           -0.97634041861692        6.39261552647902       -0.18160008763981
H            0.99533170169580        6.39063851877852        0.13274770207131
H            3.39837141071193        6.31727965629667        0.45478042275412
H            4.58335572651987        4.15085699652123        0.60886505112059
H            3.28852420440084        2.04207135355027        0.42410503121899
H            1.63677862879622       -1.20582514681434        2.39804454438651
H            2.61382709072835       -0.04872800113068        4.31643336250469
H            4.97845281791091        0.69839474678613        4.23137106297426
H            6.32960290871531        0.21093925286941        2.25874450087692

          :  Hamiltonian                  GFN2-xTB          :
         :: gradient norm              0.000049946915 Eh/a0 ::
         :: HOMO-LUMO gap              1.061023510045 eV    ::
         :: SCC energy              -140.758245332839 Eh    ::
         :: -> dispersion             -0.142246980764 Eh    ::
         :: -> Gsolv                  -0.053749280510 Eh    ::
         :: repulsion energy           2.497018868440 Eh    ::

    * Orbital Energies and Occupations

         #    Occupation            Energy/Eh            Energy/eV
      -------------------------------------------------------------
         1        2.0000           -0.6753569             -18.3774
       ...           ...                  ...                  ...
       118        2.0000           -0.4091501             -11.1335
       119        2.0000           -0.4078318             -11.0977
       120        2.0000           -0.4048071             -11.0154
       121        2.0000           -0.4046477             -11.0110
       122        2.0000           -0.3993153             -10.8659
       123        2.0000           -0.3991140             -10.8604
       124        2.0000           -0.3932862             -10.7019
       125        2.0000           -0.3875400             -10.5455
       126        2.0000           -0.3818070             -10.3895
       127        1.9998           -0.3591833              -9.7739
       128        1.9974           -0.3565898              -9.7033
       129        1.0027           -0.3453215              -9.3967
       130        1.0000           -0.3004678              -8.1761 (HOMO)
       131                         -0.2614759              -7.1151 (LUMO)
       132                         -0.2480314              -6.7493
       133                         -0.2322098              -6.3188
       134                         -0.2319972              -6.3130
       135                         -0.2266041              -6.1662
       136                         -0.2261345              -6.1534
       137                         -0.2254389              -6.1345
       138                         -0.2251976              -6.1279
       139                         -0.2234854              -6.0813
       140                         -0.2141000              -5.8260
       141                         -0.2012017              -5.4750
       ...                                ...                  ...
       254                          0.7125529              19.3896
      -------------------------------------------------------------
                  HL-Gap            0.0389919 Eh            1.0610 eV

     #   Z          covCN         q      C6AA      α(0)
     1   6 C        3.761    -0.107    22.592     6.776
     2   6 C        3.909     0.022    20.142     6.379
     3   6 C        3.761    -0.104    22.535     6.767
     4   6 C        2.979    -0.008    28.211     8.713
     5   6 C        2.927    -0.036    28.902     8.816
     6   6 C        2.917    -0.040    28.994     8.830
     7   6 C        2.919    -0.033    28.820     8.803
     8   6 C        2.924    -0.055    29.370     8.887
     9   6 C        2.927     0.061    26.633     8.463
    10   7 N        2.754    -0.046    22.122     6.985
    11   6 C        2.929     0.028    27.376     8.581
    12   6 C        2.914    -0.060    29.480     8.903
    13   6 C        2.914    -0.060    29.480     8.903
    14   6 C        2.929     0.028    27.376     8.581
    15   7 N        2.754    -0.046    22.121     6.985
    16   6 C        2.933     0.070    26.443     8.433
    17   6 C        2.925    -0.045    29.106     8.847
    18   6 C        2.918    -0.033    28.811     8.802
    19   6 C        2.917    -0.038    28.944     8.822
    20   6 C        2.927    -0.036    28.900     8.816
    21   6 C        2.979    -0.007    28.183     8.708
    22   6 C        3.909     0.022    20.142     6.379
    23   6 C        3.761    -0.107    22.592     6.776
    24   6 C        3.761    -0.104    22.535     6.767
    25   6 C        2.979    -0.008    28.211     8.712
    26   6 C        2.927    -0.036    28.902     8.816
    27   6 C        2.917    -0.040    28.993     8.830
    28   6 C        2.919    -0.033    28.820     8.803
    29   6 C        2.924    -0.055    29.370     8.887
    30   6 C        2.927     0.061    26.634     8.463
    31   6 C        2.946     0.087    26.059     8.372
    32   7 N        1.849    -0.271    27.892     7.827
    33   6 C        2.945     0.080    26.217     8.398
    34   6 C        2.988    -0.012    28.300     8.726
    35   6 C        2.923    -0.031    28.767     8.796
    36   6 C        2.916    -0.034    28.844     8.807
    37   6 C        2.917    -0.034    28.839     8.806
    38   6 C        2.920    -0.036    28.906     8.817
    39   6 C        2.976    -0.004    28.120     8.698
    40   6 C        2.976    -0.004    28.120     8.698
    41   6 C        2.920    -0.036    28.906     8.817
    42   6 C        2.917    -0.034    28.839     8.806
    43   6 C        2.916    -0.034    28.845     8.807
    44   6 C        2.923    -0.031    28.767     8.796
    45   6 C        2.988    -0.012    28.300     8.726
    46   6 C        2.945     0.080    26.217     8.398
    47   7 N        1.849    -0.271    27.893     7.827
    48   6 C        2.946     0.087    26.059     8.372
    49   6 C        2.933     0.070    26.443     8.433
    50   6 C        2.925    -0.045    29.107     8.848
    51   6 C        2.918    -0.033    28.811     8.802
    52   6 C        2.917    -0.038    28.945     8.822
    53   6 C        2.927    -0.036    28.900     8.816
    54   6 C        2.979    -0.007    28.184     8.708
    55   1 H        0.925     0.034     2.533     2.489
    56   1 H        0.925     0.048     2.342     2.393
    57   1 H        0.925     0.048     2.347     2.396
    58   1 H        0.925     0.047     2.355     2.400
    59   1 H        0.925     0.032     2.560     2.502
    60   1 H        0.925     0.047     2.354     2.399
    61   1 H        0.926     0.043     2.411     2.428
    62   1 H        0.926     0.036     2.500     2.473
    63   1 H        0.926     0.034     2.528     2.486
    64   1 H        0.926     0.029     2.601     2.522
    65   1 H        0.926     0.044     2.402     2.423
    66   1 H        0.926     0.044     2.402     2.423
    67   1 H        0.926     0.021     2.712     2.575
    68   1 H        0.926     0.032     2.563     2.503
    69   1 H        0.926     0.037     2.490     2.468
    70   1 H        0.926     0.044     2.401     2.423
    71   1 H        0.925     0.034     2.533     2.489
    72   1 H        0.925     0.048     2.347     2.396
    73   1 H        0.925     0.048     2.342     2.393
    74   1 H        0.925     0.032     2.560     2.502
    75   1 H        0.925     0.047     2.354     2.399
    76   1 H        0.925     0.047     2.355     2.400
    77   1 H        0.926     0.043     2.410     2.428
    78   1 H        0.926     0.036     2.500     2.473
    79   1 H        0.926     0.034     2.528     2.486
    80   1 H        0.926     0.029     2.601     2.522
    81   1 H        0.926     0.039     2.466     2.456
    82   1 H        0.926     0.035     2.515     2.480
    83   1 H        0.926     0.035     2.522     2.483
    84   1 H        0.926     0.036     2.500     2.472
    85   1 H        0.926     0.036     2.500     2.472
    86   1 H        0.926     0.035     2.522     2.483
    87   1 H        0.926     0.035     2.515     2.480
    88   1 H        0.926     0.039     2.466     2.456
    89   1 H        0.926     0.021     2.712     2.575
    90   1 H        0.926     0.032     2.563     2.503
    91   1 H        0.926     0.037     2.491     2.468
    92   1 H        0.926     0.044     2.401     2.423

molecular dipole:
                 x           y           z       tot (Debye)
 q only:       -0.003      -0.626       0.003
   full:       -0.003      -0.599       0.003       1.524

 projected vibrational frequencies (cm⁻¹)
eigval :       -0.00    -0.00    -0.00     0.00     0.00     0.00
eigval :       15.75    19.20    21.50    23.13    24.08    28.43
eigval :       44.16    49.53    67.25    68.18    91.36    93.00
eigval :       96.34    99.07   104.12   106.44   114.29   115.42
eigval :      145.89   146.76   156.20   157.92   170.45   184.69
eigval :      198.85   208.74   209.82   222.29   223.82   228.01
eigval :      234.20   237.88   266.14   270.84   292.78   303.75
eigval :      305.05   312.95   329.70   330.61   337.26   342.76
eigval :      349.10   355.57   376.62   379.25   389.05   389.47
eigval :      390.92   401.95   405.24   409.06   415.88   416.31
eigval :      419.48   420.31   455.03   456.75   466.02   509.53
eigval :      511.02   511.59   513.41   523.30   525.43   533.78
eigval :      535.43   538.32   545.61   547.25   553.75   563.87
eigval :      567.62   583.32   584.96   585.75   597.88   611.61
eigval :      612.01   631.30   643.14   651.45   662.30   674.10
eigval :      678.04   686.89   687.90   695.63   696.94   700.60
eigval :      700.96   720.09   722.80   729.48   765.40   772.17
eigval :      774.46   774.99   776.25   778.74   779.72   820.85
eigval :      825.42   827.54   843.49   848.18   866.56   868.53
eigval :      869.06   869.18   873.06   876.02   901.56   907.92
eigval :      909.57   910.84   913.55   914.48   916.11   916.96
eigval :      917.19   917.53   921.82   921.98   922.57   922.83
eigval :      924.09   925.75   937.91   938.13   959.41   959.58
eigval :     1002.46  1014.11  1014.51  1034.11  1039.09  1074.99
eigval :     1075.90  1076.16  1081.82  1098.31  1098.43  1108.74
eigval :     1109.79  1114.67  1115.56  1116.83  1137.73  1138.12
eigval :     1150.39  1151.12  1154.26  1154.29  1169.06  1173.36
eigval :     1178.70  1180.40  1181.04  1181.96  1183.00  1185.01
eigval :     1193.50  1203.79  1224.55  1234.38  1238.50  1243.39
eigval :     1244.76  1249.39  1254.93  1257.58  1262.63  1263.06
eigval :     1269.91  1284.85  1292.84  1293.27  1294.07  1294.24
eigval :     1311.08  1313.37  1325.86  1326.97  1327.01  1331.50
eigval :     1334.14  1335.10  1340.16  1353.71  1360.12  1389.32
eigval :     1398.83  1398.89  1403.74  1415.70  1417.08  1417.68
eigval :     1426.63  1427.06  1428.26  1431.42  1432.06  1450.58
eigval :     1462.49  1462.81  1467.14  1476.99  1480.67  1483.74
eigval :     1484.85  1484.98  1486.98  1487.28  1495.49  1495.72
eigval :     1501.41  1501.56  1514.70  1519.66  1533.78  1550.57
eigval :     1563.13  1563.32  1576.56  1577.77  1582.72  1583.86
eigval :     1583.97  1592.87  1593.67  1594.05  3023.78  3023.83
eigval :     3025.88  3025.96  3043.85  3043.91  3046.07  3046.35
eigval :     3051.44  3051.48  3055.56  3055.81  3071.62  3072.13
eigval :     3075.62  3075.71  3078.47  3078.65  3080.79  3081.75
eigval :     3083.28  3083.45  3086.22  3086.31  3088.08  3090.57
eigval :     3090.72  3093.46  3095.35  3096.21  3096.76  3097.07
eigval :     3097.10  3097.84  3099.46  3104.19  3106.81  3107.27

   temp. (K)  partition function   enthalpy   heat capacity  entropy
                                   cal/mol     cal/K/mol   cal/K/mol   J/K/mol
 298.15  VIB  0.248E+19            25679.009    166.692    155.948
         ROT  0.405E+08              888.752      2.981     37.792
         INT  0.101E+27            26567.761    169.673    193.740
         TR   0.177E+29             1481.254      4.968     45.476
         TOT                       28049.0151   174.6412   239.2161  1000.8803

       T/K    H(0)-H(T)+PV         H(T)/Eh          T*S/Eh         G(T)/Eh
   ------------------------------------------------------------------------
    298.15    0.446990E-01    0.767340E+00    0.113659E+00    0.653680E+00
   ------------------------------------------------------------------------

         :::::::::::::::::::::::::::::::::::::::::::::::::::::
         ::                  THERMODYNAMIC                  ::
         :::::::::::::::::::::::::::::::::::::::::::::::::::::
         :: total free energy        -137.607546211522 Eh   ::
         ::.................................................::
         :: total energy             -138.261226464712 Eh   ::
         :: zero point energy           0.722640600673 Eh   ::
         :: G(RRHO) w/o ZPVE           -0.068960347482 Eh   ::
         :: G(RRHO) contrib.            0.653680253191 Eh   ::
         :::::::::::::::::::::::::::::::::::::::::::::::::::::

           -------------------------------------------------
          | TOTAL ENERGY             -138.261226464712 Eh   |
          | TOTAL ENTHALPY           -137.493886913197 Eh   |
          | TOTAL FREE ENERGY        -137.607546211522 Eh   |
          | GRADIENT NORM               0.000049988709 Eh/α |
          | HOMO-LUMO GAP               1.061024157121 eV   |
           -------------------------------------------------

 * finished run on 2025/08/24 at 08:02:19.366
