   * xtb version 6.7.1 (edcfbbe) compiled by 'albert@albert-system' on 2024-07-22

   ID    Z sym.   atoms
    1    6 C      1-33, 35-43, 45-54
    2    7 N      34, 44
    3    1 H      55-104

          program call               : xtb data2507/gas/TBTAC/TBTAC.xyz --gfn 2 --ohess vtight --parallel 40 --molden --ceasefiles --namespace data2507/gas/TBTAC/TBTAC_gas_S0_preOpt
          :  Hamiltonian                  GFN2-xTB          :
 * total energy  :  -142.7173777 Eh     change       -0.4078601E-08 Eh
 * total energy  :  -142.7369808 Eh     change       -0.1960309E-01 Eh
 * total energy  :  -142.7453201 Eh     change       -0.8339378E-02 Eh
 * total energy  :  -142.7490321 Eh     change       -0.3711986E-02 Eh
 * total energy  :  -142.7510529 Eh     change       -0.2020801E-02 Eh
 * total energy  :  -142.7517797 Eh     change       -0.7268223E-03 Eh
 * total energy  :  -142.7521867 Eh     change       -0.4069371E-03 Eh
 * total energy  :  -142.7526197 Eh     change       -0.4329720E-03 Eh
 * total energy  :  -142.7530290 Eh     change       -0.4093064E-03 Eh
 * total energy  :  -142.7533667 Eh     change       -0.3376954E-03 Eh
 * total energy  :  -142.7551559 Eh     change       -0.1010922E-05 Eh
 * total energy  :  -142.7551569 Eh     change       -0.9898995E-06 Eh
 * total energy  :  -142.7551578 Eh     change       -0.8773914E-06 Eh
 * total energy  :  -142.7551584 Eh     change       -0.6287757E-06 Eh
 * total energy  :  -142.7551589 Eh     change       -0.4943121E-06 Eh
 * total energy  :  -142.7551594 Eh     change       -0.4677768E-06 Eh
 * total energy  :  -142.7551598 Eh     change       -0.4308956E-06 Eh
 * total energy  :  -142.7551602 Eh     change       -0.3599190E-06 Eh
 * total energy  :  -142.7551602 Eh     change       -0.7698418E-08 Eh
   *** GEOMETRY OPTIMIZATION CONVERGED AFTER 68 ITERATIONS ***

 final structure:
================
104
 xtb: 6.7.1 (edcfbbe)
C            1.08654818464063       -3.43364808122189        1.82947840912988
C            1.33275299030646       -3.94015233569131        0.44118135177771
C            2.25448469088471       -4.96045806300427        0.24106702960341
C            2.50406424619793       -5.46782485352848       -1.01924223166632
C            1.83073760407552       -4.95028519245830       -2.11203745266039
C            0.91210758658567       -3.93625088701147       -1.92694717243110
C            0.64776375330024       -3.42875294494245       -0.65888676047784
C           -0.34297020508515       -2.32893918987044       -0.54184063134992
C            0.11571709948904       -1.00304203622617       -0.52191044792837
C            1.57225667864442       -0.75462541646172       -0.44966838529824
C            2.41592916631791       -1.06541626621676       -1.50553113547562
C            3.77436233455603       -0.81548065005911       -1.42682479512131
C            4.33948353870866       -0.24921928993789       -0.29191364175417
C            5.82132160784390        0.06915297254774       -0.17093583067195
C            6.40545855870617       -0.69434076715842        1.02571175155924
C            5.98475529687158        1.58077682249536        0.04394620837390
C            6.61494834993287       -0.32443111417553       -1.41960483311268
C            3.48689405089339        0.04602569714511        0.76891131479219
C            2.13225573972388       -0.20032977100764        0.69584987399729
C           -0.78850720914318        0.04550545328559       -0.46231262489389
C           -0.22805758148296        1.39246177098589       -0.23157807692968
C            0.71012113587663        1.95276559585738       -1.08956354078328
C            1.27693367219684        3.18425446626045       -0.81641205224301
C            0.93577738618249        3.89841870148965        0.32517249448212
C            1.53605272355060        5.25321009365486        0.66645708277611
C            2.23086618707487        5.16282973954147        2.03231676726015
C            0.41237091335195        6.29815078284249        0.72131888948956
C            2.57150472629902        5.71727324883966       -0.36154714046272
C           -0.00370863960818        3.32801528639905        1.18199141148831
C           -0.57343722609422        2.10056097328062        0.91597737328609
C           -2.18169900395843       -0.20448581217684       -0.50693847478960
C           -2.63883614511580       -1.54779484454572       -0.39770334719366
C           -4.05338046005994       -1.77092257971603       -0.28777187688175
N           -4.59430410412770       -3.04464088762774       -0.26392144152569
C           -4.89860988009333       -0.70367859393666       -0.12149575202137
C           -4.47644305371336        0.63050782053524       -0.26268863196703
C           -5.38390235962014        1.74005345820088       -0.15237573898032
C           -6.67902768652499        1.59143004814746        0.37332505185773
C           -7.54016491570485        2.65226107519176        0.48418243392245
C           -7.14175838328202        3.92143034589717        0.06390946391921
C           -5.88196598262260        4.10448142519752       -0.44269715711727
C           -4.97450345407155        3.03663470580515       -0.55618863485376
C           -3.65614342725113        3.20481823531974       -1.08899410203431
N           -3.26780333121944        4.40651609118150       -1.66331280649728
C           -2.78759645189519        2.14688720065571       -1.09491694960854
C           -3.13513786280962        0.86973701528405       -0.60930614433440
C           -1.69260510466633       -2.60041709262629       -0.39295682726197
C           -2.02674260213207       -4.02213261614561       -0.12975608702895
C           -1.94042441683635       -4.96292317680057       -1.15115243099393
C           -2.14111311887841       -6.30711999533684       -0.89728039089483
C           -2.42365173501467       -6.72512500568932        0.39066028840731
C           -2.52254239460611       -5.79349903787869        1.40884444905866
C           -2.33045265056588       -4.44029909889218        1.17071895789381
C           -2.49192626158293       -3.44935364519240        2.28254401955435
H            0.42076087808555       -4.11587898554088        2.35853875837490
H            2.02177351031607       -3.37568305965234        2.38312148438522
H            0.62878639278313       -2.44878712968450        1.81295197141775
H            2.78517941790627       -5.35980271371421        1.09419664450211
H            3.22509451886349       -6.26152708244831       -1.15047975204088
H            2.02295950630818       -5.33370061227345       -3.10358157691647
H            0.38978802905004       -3.52002963903126       -2.77796043557604
H            2.00685933044952       -1.49095289441759       -2.41002723255924
H            4.38549849015494       -1.06881446610143       -2.27793582007339
H            7.47099083182299       -0.49284837710196        1.11617323819885
H            5.92435389808206       -0.40306466524660        1.95523649757678
H            6.26586603347176       -1.76499278653568        0.89062935134506
H            5.48808512320382        1.90654319452633        0.95381983041614
H            5.55312443967033        2.12641881966088       -0.79287019038450
H            7.03918562938279        1.83901107512444        0.11869974057873
H            6.26070952906116        0.21509526083606       -2.29495264592535
H            7.66501200805181       -0.07725390832045       -1.27522678973882
H            6.54359618954765       -1.39344640630172       -1.60640515595159
H            3.87954380177724        0.48298625860563        1.67511517213828
H            1.49786164604290        0.04678554058047        1.53537674921280
H            0.98858288108564        1.42751768520176       -1.99168732966300
H            1.99723898135323        3.57583042828538       -1.51625130432033
H            1.52711629614471        4.90964629212312        2.82022318511744
H            3.00472910172978        4.39831209366736        2.00719154819750
H            2.69359159064571        6.11534961966755        2.28257576276723
H           -0.07749600123619        6.37430818532288       -0.24780261051897
H           -0.33711350341173        6.03448561375068        1.46265028030366
H            0.81869915724818        7.27427281519160        0.97825960980664
H            2.12463993252611        5.83098857399717       -1.34669698145336
H            2.97210574745992        6.68385222001111       -0.06203725968236
H            3.39931509837317        5.01471172949983       -0.42465323995812
H           -0.29955301920564        3.84571046171746        2.08257165510746
H           -1.29672001316805        1.68050866255674        1.60059173227589
H           -5.59088304009009       -3.07647958317718       -0.41192966485660
H           -4.08130716132264       -3.76936702311615       -0.73721099244912
H           -5.94567633417025       -0.91932114432953        0.02933579479389
H           -7.00420716897385        0.62461066749906        0.72434451681981
H           -8.52683511979346        2.50934570028493        0.90054914980048
H           -7.82347206471461        4.75564241312940        0.14467088511522
H           -5.58980895004045        5.09463435327680       -0.76137046138287
H           -3.69491559086023        5.23931638910539       -1.29202182328901
H           -2.27107161212543        4.49514491011261       -1.79106539521751
H           -1.81538544945674        2.29980161453938       -1.53252643427080
H           -1.72518520246509       -4.63257815175416       -2.15674509347212
H           -2.06950713092506       -7.02434952168969       -1.70149179202845
H           -2.57006636113451       -7.77417884967738        0.60189559490672
H           -2.75069026355724       -6.12324064255125        2.41289495969198
H           -3.49916716178342       -3.03371515542519        2.25255381742578
H           -2.34755408150851       -3.92585254342561        3.24964529869617
H           -1.79248233506722       -2.62353701725226        2.18176767746626

          :  Hamiltonian                  GFN2-xTB          :
         :: gradient norm              0.000061627372 Eh/a0 ::
         :: HOMO-LUMO gap              2.077804749918 eV    ::
         :: SCC energy              -145.364789756403 Eh    ::
         :: -> dispersion             -0.154185576276 Eh    ::
         :: repulsion energy           2.609629577890 Eh    ::

    * Orbital Energies and Occupations

         #    Occupation            Energy/Eh            Energy/eV
      -------------------------------------------------------------
         1        2.0000           -0.6464561             -17.5910
       ...           ...                  ...                  ...
       122        2.0000           -0.3947233             -10.7410
       123        2.0000           -0.3928243             -10.6893
       124        2.0000           -0.3920692             -10.6687
       125        2.0000           -0.3917518             -10.6601
       126        2.0000           -0.3894024             -10.5962
       127        2.0000           -0.3859281             -10.5016
       128        2.0000           -0.3828792             -10.4187
       129        2.0000           -0.3815204             -10.3817
       130        2.0000           -0.3802860             -10.3481
       131        2.0000           -0.3727077             -10.1419
       132        2.0000           -0.3687170             -10.0333
       133        2.0000           -0.3601969              -9.8015
       134        2.0000           -0.3253905              -8.8543 (HOMO)
       135                         -0.2490326              -6.7765 (LUMO)
       136                         -0.2366183              -6.4387
       137                         -0.2287528              -6.2247
       138                         -0.2175318              -5.9193
       139                         -0.2156839              -5.8691
       140                         -0.2147221              -5.8429
       141                         -0.2122317              -5.7751
       142                         -0.2106270              -5.7315
       143                         -0.2082020              -5.6655
       144                         -0.2065823              -5.6214
       145                         -0.2031712              -5.5286
       ...                                ...                  ...
       266                          0.7295739              19.8527
      -------------------------------------------------------------
                  HL-Gap            0.0763579 Eh            2.0778 eV

     #   Z          covCN         q      C6AA      α(0)
     1   6 C        3.758    -0.103    22.525     6.766
     2   6 C        2.969     0.013    27.732     8.638
     3   6 C        2.927    -0.041    29.008     8.833
     4   6 C        2.919    -0.034    28.853     8.808
     5   6 C        2.919    -0.036    28.895     8.815
     6   6 C        2.928    -0.031    28.779     8.798
     7   6 C        2.981     0.005    27.902     8.665
     8   6 C        2.989    -0.003    28.084     8.693
     9   6 C        2.986    -0.005    28.151     8.703
    10   6 C        2.978     0.011    27.762     8.643
    11   6 C        2.924    -0.035    28.877     8.812
    12   6 C        2.925    -0.041    29.015     8.834
    13   6 C        2.974     0.005    27.901     8.664
    14   6 C        3.903     0.025    20.093     6.372
    15   6 C        3.762    -0.104    22.540     6.768
    16   6 C        3.762    -0.103    22.510     6.763
    17   6 C        3.761    -0.106    22.580     6.774
    18   6 C        2.927    -0.036    28.903     8.817
    19   6 C        2.925    -0.033    28.833     8.806
    20   6 C        2.978    -0.005    28.143     8.702
    21   6 C        2.980     0.016    27.640     8.624
    22   6 C        2.923    -0.037    28.910     8.817
    23   6 C        2.924    -0.042    29.045     8.838
    24   6 C        2.973     0.003    27.961     8.674
    25   6 C        3.903     0.025    20.094     6.372
    26   6 C        3.762    -0.104    22.533     6.767
    27   6 C        3.761    -0.103    22.515     6.764
    28   6 C        3.761    -0.106    22.572     6.773
    29   6 C        2.926    -0.037    28.929     8.821
    30   6 C        2.924    -0.034    28.848     8.808
    31   6 C        2.981    -0.005    28.134     8.701
    32   6 C        2.980    -0.015    28.391     8.740
    33   6 C        2.891     0.070    26.433     8.429
    34   7 N        2.643    -0.288    27.419     7.777
    35   6 C        2.926    -0.077    29.911     8.969
    36   6 C        2.981    -0.005    28.153     8.704
    37   6 C        2.982     0.003    27.942     8.671
    38   6 C        2.921    -0.035    28.881     8.813
    39   6 C        2.917    -0.035    28.877     8.812
    40   6 C        2.916    -0.035    28.876     8.812
    41   6 C        2.920    -0.036    28.895     8.815
    42   6 C        2.986    -0.007    28.185     8.709
    43   6 C        2.892     0.066    26.522     8.443
    44   7 N        2.641    -0.285    27.349     7.767
    45   6 C        2.924    -0.075    29.865     8.962
    46   6 C        2.981    -0.003    28.100     8.695
    47   6 C        2.976    -0.004    28.112     8.697
    48   6 C        2.986     0.005    27.901     8.665
    49   6 C        2.924    -0.041    29.010     8.833
    50   6 C        2.918    -0.038    28.943     8.822
    51   6 C        2.918    -0.035    28.882     8.813
    52   6 C        2.925    -0.041    29.029     8.836
    53   6 C        2.969     0.017    27.635     8.623
    54   6 C        3.758    -0.108    22.608     6.779
    55   1 H        0.924     0.047     2.356     2.400
    56   1 H        0.925     0.040     2.455     2.450
    57   1 H        0.925     0.040     2.450     2.448
    58   1 H        0.926     0.027     2.631     2.536
    59   1 H        0.926     0.026     2.648     2.545
    60   1 H        0.926     0.026     2.648     2.545
    61   1 H        0.925     0.024     2.678     2.559
    62   1 H        0.926     0.026     2.641     2.541
    63   1 H        0.926     0.033     2.543     2.494
    64   1 H        0.925     0.036     2.510     2.477
    65   1 H        0.925     0.036     2.509     2.477
    66   1 H        0.925     0.033     2.540     2.492
    67   1 H        0.925     0.035     2.520     2.483
    68   1 H        0.925     0.032     2.559     2.502
    69   1 H        0.925     0.036     2.509     2.477
    70   1 H        0.925     0.035     2.515     2.480
    71   1 H        0.925     0.035     2.521     2.483
    72   1 H        0.925     0.036     2.508     2.477
    73   1 H        0.926     0.025     2.655     2.548
    74   1 H        0.926     0.022     2.709     2.574
    75   1 H        0.926     0.025     2.659     2.550
    76   1 H        0.926     0.031     2.568     2.506
    77   1 H        0.925     0.036     2.502     2.474
    78   1 H        0.925     0.033     2.539     2.492
    79   1 H        0.925     0.035     2.512     2.479
    80   1 H        0.925     0.029     2.607     2.525
    81   1 H        0.925     0.036     2.510     2.477
    82   1 H        0.925     0.036     2.504     2.474
    83   1 H        0.925     0.034     2.536     2.490
    84   1 H        0.925     0.035     2.519     2.482
    85   1 H        0.925     0.036     2.501     2.473
    86   1 H        0.926     0.025     2.654     2.548
    87   1 H        0.926     0.025     2.660     2.550
    88   1 H        0.860     0.154     1.375     1.837
    89   1 H        0.860     0.167     1.290     1.779
    90   1 H        0.926     0.021     2.721     2.579
    91   1 H        0.926     0.030     2.593     2.518
    92   1 H        0.926     0.024     2.680     2.560
    93   1 H        0.926     0.023     2.691     2.565
    94   1 H        0.926     0.022     2.705     2.572
    95   1 H        0.860     0.158     1.347     1.818
    96   1 H        0.860     0.155     1.366     1.831
    97   1 H        0.926     0.028     2.614     2.528
    98   1 H        0.926     0.026     2.640     2.541
    99   1 H        0.926     0.025     2.655     2.548
   100   1 H        0.926     0.026     2.644     2.543
   101   1 H        0.926     0.028     2.619     2.531
   102   1 H        0.925     0.055     2.256     2.349
   103   1 H        0.925     0.037     2.491     2.468
   104   1 H        0.925     0.044     2.398     2.422

molecular dipole:
                 x           y           z       tot (Debye)
 q only:        0.242       0.306       0.201
   full:        0.314       0.351       0.212       1.313

 projected vibrational frequencies (cm⁻¹)
eigval :       -0.00     0.00     0.00     0.00     0.00     0.00
eigval :        9.42    11.78    15.90    17.33    19.07    26.71
eigval :       29.20    31.30    39.41    43.20    47.57    62.61
eigval :       68.55    80.38    83.76    92.15    99.11   103.28
eigval :      108.18   117.80   121.13   128.63   137.20   143.23
eigval :      147.33   159.80   167.51   174.99   176.22   181.92
eigval :      187.36   190.28   193.29   216.81   219.63   221.80
eigval :      225.99   238.30   244.83   259.14   265.11   270.96
eigval :      276.73   286.32   304.29   314.05   314.59   315.12
eigval :      323.75   324.92   336.45   340.77   351.46   364.42
eigval :      365.46   372.29   379.05   381.21   381.85   383.80
eigval :      390.51   400.46   412.55   415.00   431.97   433.93
eigval :      437.45   446.27   454.98   462.00   465.36   469.38
eigval :      482.44   499.99   508.75   512.21   523.39   526.65
eigval :      531.85   541.94   544.58   550.77   556.45   561.56
eigval :      569.27   587.20   593.93   601.11   605.71   611.71
eigval :      618.93   629.05   641.28   649.27   660.90   673.66
eigval :      681.25   683.21   696.31   701.47   704.16   723.35
eigval :      730.65   735.43   739.73   760.15   768.34   772.24
eigval :      778.11   795.09   801.82   812.60   816.06   819.42
eigval :      822.93   829.69   854.09   858.39   866.88   872.29
eigval :      873.77   878.30   882.53   884.67   890.60   905.16
eigval :      908.51   913.43   915.71   917.53   921.12   922.63
eigval :      926.74   928.89   929.57   932.21   935.78   960.56
eigval :      960.60   962.58   962.88   963.12   963.78   999.90
eigval :     1002.52  1004.62  1008.02  1029.90  1031.53  1033.97
eigval :     1034.39  1035.26  1035.74  1036.08  1042.14  1060.77
eigval :     1077.76  1092.86  1098.66  1102.36  1112.45  1123.78
eigval :     1135.02  1145.50  1146.65  1153.99  1155.64  1163.59
eigval :     1182.20  1184.15  1188.79  1191.30  1194.44  1212.41
eigval :     1217.07  1223.47  1228.03  1228.48  1232.94  1234.60
eigval :     1234.95  1240.40  1249.76  1251.55  1265.09  1265.89
eigval :     1271.25  1280.64  1283.23  1285.47  1288.64  1292.63
eigval :     1305.02  1306.97  1314.10  1316.77  1319.47  1322.15
eigval :     1325.09  1368.50  1386.71  1390.35  1395.47  1396.62
eigval :     1399.41  1400.64  1402.36  1403.00  1405.10  1405.47
eigval :     1408.86  1409.62  1413.71  1428.86  1429.22  1431.69
eigval :     1438.29  1440.26  1471.84  1474.70  1477.47  1480.36
eigval :     1482.27  1490.48  1491.73  1492.34  1492.72  1493.48
eigval :     1495.01  1495.38  1495.98  1498.44  1499.73  1503.93
eigval :     1504.14  1505.52  1509.05  1511.06  1514.42  1514.64
eigval :     1520.35  1520.80  1525.14  1536.72  1543.74  1566.46
eigval :     1572.00  1578.00  1579.96  1586.37  1591.44  1600.69
eigval :     1603.80  1604.28  1606.28  1611.17  3000.70  3006.08
eigval :     3019.96  3020.21  3020.51  3021.45  3023.99  3025.92
eigval :     3026.61  3028.23  3028.80  3029.98  3030.12  3033.55
eigval :     3034.12  3035.42  3037.67  3037.85  3045.09  3045.39
eigval :     3045.50  3049.01  3049.64  3054.20  3058.50  3066.33
eigval :     3066.51  3067.06  3068.82  3069.90  3072.64  3075.25
eigval :     3075.53  3080.25  3080.64  3083.00  3083.06  3083.64
eigval :     3084.12  3084.97  3086.81  3092.77  3099.97  3109.78
eigval :     3110.23  3123.94  3450.39  3454.30  3499.95  3510.36

   temp. (K)  partition function   enthalpy   heat capacity  entropy
                                   cal/mol     cal/K/mol   cal/K/mol   J/K/mol
 298.15  VIB  0.273E+24            30199.097    185.985    187.559
         ROT  0.926E+08              888.752      2.981     39.434
         INT  0.253E+32            31087.850    188.966    226.993
         TR   0.180E+29             1481.254      4.968     45.510
         TOT                       32569.1037   193.9338   272.5031  1140.1530

       T/K    H(0)-H(T)+PV         H(T)/Eh          T*S/Eh         G(T)/Eh
   ------------------------------------------------------------------------
    298.15    0.519022E-01    0.907232E+00    0.129475E+00    0.777757E+00
   ------------------------------------------------------------------------

         :::::::::::::::::::::::::::::::::::::::::::::::::::::
         ::                  THERMODYNAMIC                  ::
         :::::::::::::::::::::::::::::::::::::::::::::::::::::
         :: total free energy        -141.977403443711 Eh   ::
         ::.................................................::
         :: total energy             -142.755160178513 Eh   ::
         :: zero point energy           0.855329583620 Eh   ::
         :: G(RRHO) w/o ZPVE           -0.077572848818 Eh   ::
         :: G(RRHO) contrib.            0.777756734802 Eh   ::
         :::::::::::::::::::::::::::::::::::::::::::::::::::::

           -------------------------------------------------
          | TOTAL ENERGY             -142.755160178513 Eh   |
          | TOTAL ENTHALPY           -141.847928424455 Eh   |
          | TOTAL FREE ENERGY        -141.977403443711 Eh   |
          | GRADIENT NORM               0.000061627829 Eh/α |
          | HOMO-LUMO GAP               2.077804899021 eV   |
           -------------------------------------------------

 * finished run on 2025/08/25 at 00:18:42.459
