   * xtb version 6.7.1 (edcfbbe) compiled by 'albert@albert-system' on 2024-07-22

   ID    Z sym.   atoms
    1    6 C      1-33, 35-43, 45-54
    2    7 N      34, 44
    3    1 H      55-104

          program call               : xtb data2507/gas/TBTAC/TBTAC_gas_S0_finalOpt.xtbopt.xyz --gfn 2 --spinpol --tblite --uhf 2 --ohess vtight --parallel 40 --molden --ceasefiles --namespace data2507/gas/TBTAC/TBTAC_gas_T1_preOpt
 * total energy  :  -142.6802232 Eh     change        0.1310337E-07 Eh
 * total energy  :  -142.6862283 Eh     change       -0.6005023E-02 Eh
 * total energy  :  -142.6882307 Eh     change       -0.2002378E-02 Eh
 * total energy  :  -142.6885060 Eh     change       -0.2753608E-03 Eh
 * total energy  :  -142.6887704 Eh     change       -0.2643993E-03 Eh
 * total energy  :  -142.6889009 Eh     change       -0.1305005E-03 Eh
 * total energy  :  -142.6890141 Eh     change       -0.1131531E-03 Eh
 * total energy  :  -142.6890844 Eh     change       -0.7031931E-04 Eh
 * total energy  :  -142.6891381 Eh     change       -0.5374043E-04 Eh
 * total energy  :  -142.6891851 Eh     change       -0.4701331E-04 Eh
 * total energy  :  -142.6897373 Eh     change       -0.3092238E-06 Eh
 * total energy  :  -142.6897376 Eh     change       -0.3039614E-06 Eh
 * total energy  :  -142.6897379 Eh     change       -0.3005377E-06 Eh
 * total energy  :  -142.6897382 Eh     change       -0.3357650E-06 Eh
 * total energy  :  -142.6897384 Eh     change       -0.2043064E-06 Eh
 * total energy  :  -142.6897386 Eh     change       -0.1667288E-06 Eh
 * total energy  :  -142.6897388 Eh     change       -0.2051017E-06 Eh
 * total energy  :  -142.6897390 Eh     change       -0.2369894E-06 Eh
 * total energy  :  -142.6897390 Eh     change       -0.1081028E-07 Eh
   *** GEOMETRY OPTIMIZATION CONVERGED AFTER 68 ITERATIONS ***

 final structure:
================
104
 xtb: 6.7.1 (edcfbbe)
C            1.95095077563451       -3.43768977278123        2.30405083403131
C            2.75348279650653       -3.33175590916627        1.04226107509532
C            3.99711932721495       -3.94617796840486        0.96873530956430
C            4.78519925329567       -3.84080371870338       -0.16137598758217
C            4.33977582110599       -3.09790574198989       -1.24119069165580
C            3.10358410595687       -2.48582118525324       -1.18383673304359
C            2.29462021774013       -2.60748079809497       -0.05774818528058
C            0.97705061677397       -1.92639919636745       -0.07234559344644
C            0.94707927387802       -0.53801938757897       -0.05995686098497
C            2.19757616937220        0.23797651157004       -0.07167762022839
C            2.43092113546896        1.17997513387609       -1.07065652220470
C            3.58155782687051        1.93830452863533       -1.07131884363415
C            4.55106994467059        1.79485267674546       -0.08115072198086
C            5.78423576750002        2.68360877901341       -0.10709021905762
C            5.33749130532884        4.14778166069088        0.01361631021339
C            6.53258489203127        2.47404454770833       -1.43078434747619
C            6.75408053663145        2.38344042047434        1.03901931841120
C            4.32223527884956        0.83989131285213        0.90121428572786
C            3.17000812805459        0.07565664862070        0.90751961259724
C           -0.30076635230225        0.13956901428431       -0.01785234225318
C           -0.27995824122346        1.61214244774180       -0.00300188393402
C           -0.92117723015340        2.33603204230787       -1.00298602694738
C           -0.84079082888308        3.71433350095353       -1.04845450425841
C           -0.11539477252077        4.42737372025411       -0.10061877989224
C            0.02659232698149        5.94075148195647       -0.12758215319297
C           -0.53047082429144        6.52369304032869        1.17890453538241
C           -0.72737837613770        6.58501919085850       -1.29397215743516
C            1.51431726143353        6.29460779216091       -0.26490720480643
C            0.51296645349494        3.69807862405746        0.90559675908583
C            0.43780190716620        2.32190550759229        0.95642038341640
C           -1.48733992864456       -0.58247800620231       -0.06806385579414
C           -1.45223648311836       -1.98833608661626       -0.31485502142359
C           -2.64108649263342       -2.59917072763566       -0.77939133656600
N           -2.69361545470678       -3.90505192692556       -1.19909687012998
C           -3.84652489963787       -1.85305192827648       -0.88275717327086
C           -3.95270908201751       -0.56131942990590       -0.44193420678368
C           -5.19572195919981        0.19310314201510       -0.46055016328064
C           -6.28930118399964       -0.21013453162230       -1.21949186051120
C           -7.47910229893379        0.50511565501041       -1.21922329848942
C           -7.58854633401795        1.65712361108750       -0.46005545655978
C           -6.51492057534901        2.09412069187844        0.28899615403889
C           -5.30277522342238        1.38146987089148        0.30939705074883
C           -4.17797558589214        1.80768364354612        1.07616983498620
N           -4.24148995060451        2.92373778539780        1.87771124519443
C           -2.94411446666232        1.15566573253930        0.93764134644014
C           -2.78053254014913        0.05424816721761        0.13075450989251
C           -0.20757413626459       -2.66910598686802       -0.18487188865785
C           -0.11569356929803       -4.13712434447231       -0.12258564580423
C            0.67672838273882       -4.82649958564116       -1.04324162523518
C            0.82370205090601       -6.19772948773436       -0.97454919829145
C            0.17980045991685       -6.90904756646515        0.02399869064108
C           -0.60680466455911       -6.23654960760059        0.94388056978012
C           -0.76550704306011       -4.86000587243417        0.89374302116879
C           -1.61539164709410       -4.17281405348538        1.91964970063137
H            2.60633814897493       -3.41568680309830        3.17331830585391
H            1.23469599700660       -2.62258386932650        2.37944875072015
H            1.40034056103186       -4.37794952438055        2.32167573804667
H            4.35283324194274       -4.51094425131697        1.81952610748610
H            5.74900450643089       -4.32776408341654       -0.19609320825265
H            4.95389626460080       -2.99565628123636       -2.12404080786593
H            2.74803471208612       -1.90386168545534       -2.02291832839043
H            1.70042959516423        1.31512527846940       -1.85543076764861
H            3.71789057205352        2.66098111151422       -1.86234550470080
H            6.20222652633465        4.80840583816914        0.00489648293342
H            4.68267965042822        4.43012614996485       -0.80602667399712
H            4.79672356175152        4.29782326413839        0.94592058493212
H            5.91362270624454        2.74075883453145       -2.28278623776546
H            6.82417543332683        1.43086578409808       -1.53456643190015
H            7.43030025351914        3.08870699790643       -1.45663541272475
H            6.28303834291006        2.55137458748105        2.00482982326916
H            7.10998525641112        1.35689636379161        0.98997941656509
H            7.61683035801901        3.04318249673723        0.96714018983831
H            5.03929952987477        0.67962721211607        1.69029235494724
H            3.01576287830418       -0.64083465576149        1.70091777261211
H           -1.48183759640761        1.80687587097044       -1.76090186217996
H           -1.34986322820617        4.22543919460631       -1.84951484236280
H            0.01008570633123        6.14717708758427        2.04296589549877
H           -0.44732222346451        7.60869350411298        1.17214138097733
H           -1.58018808316175        6.25816517707927        1.28905125079359
H           -0.34844856783659        6.22843895502804       -2.24891178353153
H           -1.79313201826851        6.37659501820336       -1.23343357781972
H           -0.59274594811686        7.66462903940505       -1.26140009675844
H            1.91625890858767        5.86776627193455       -1.18148479227013
H            1.64402509515743        7.37451038323995       -0.30001259940484
H            2.09253138236612        5.90773037170364        0.56951620816977
H            1.08397410796821        4.20711892051765        1.66826753798907
H            0.93588370692447        1.78819620210388        1.75335757818731
H           -3.47502222482129       -4.16169625443373       -1.77954925061761
H           -1.82319706375506       -4.38189144412855       -1.37256367495654
H           -4.70315297934590       -2.37300165504880       -1.28492952060468
H           -6.21838483406446       -1.09009734129998       -1.83978204114271
H           -8.31159956537711        0.16422465057106       -1.81646769905892
H           -8.51017880586425        2.22110523454159       -0.45844956875487
H           -6.61176059684250        3.01078204545044        0.85186884328328
H           -5.14048484626133        3.20608944029828        2.22892156854415
H           -3.46408755340120        3.06731609888117        2.50111569826191
H           -2.10675010215269        1.54849242973712        1.49351820438505
H            1.16782034070998       -4.27397888671860       -1.83051538407795
H            1.44103829923648       -6.70969584390144       -1.69791276421491
H            0.29240203257911       -7.98110782967235        0.08946634528626
H           -1.10064731544281       -6.79267688972298        1.72893499587482
H           -1.66190154798397       -4.76256978000507        2.83277898717109
H           -1.22643022916647       -3.18476867743850        2.15424539707679
H           -2.63125382835184       -4.04673825270897        1.54497425730217

 projected vibrational frequencies (cm⁻¹)
eigval :       -0.00    -0.00    -0.00    -0.00     0.00     0.00
eigval :       12.01    17.75    18.39    21.09    25.25    27.43
eigval :       30.80    34.44    42.15    46.34    56.76    67.62
eigval :       73.07    82.24    86.18    95.07    97.54   100.55
eigval :      108.22   121.24   131.96   136.34   139.01   143.06
eigval :      151.12   160.36   163.60   170.72   174.12   177.24
eigval :      181.18   188.10   196.30   208.01   218.50   220.17
eigval :      230.68   238.22   242.70   258.42   269.89   272.89
eigval :      284.74   289.43   295.06   312.90   313.19   314.23
eigval :      322.58   325.34   336.81   348.58   354.12   359.02
eigval :      363.06   369.61   377.28   380.85   381.75   385.55
eigval :      392.10   398.50   408.78   415.06   428.81   431.08
eigval :      437.92   443.08   449.15   456.26   464.76   467.39
eigval :      475.17   479.24   489.62   496.00   499.62   505.36
eigval :      518.44   519.93   526.41   532.09   541.04   547.91
eigval :      549.74   553.95   563.35   590.98   598.15   600.85
eigval :      602.52   608.47   616.08   635.65   651.94   661.48
eigval :      663.77   683.12   691.60   695.58   701.27   706.82
eigval :      715.70   727.04   734.94   752.48   755.96   771.18
eigval :      774.40   790.98   800.24   801.51   811.16   814.87
eigval :      818.25   826.31   834.36   846.21   852.37   870.58
eigval :      872.55   876.07   880.89   883.88   884.23   885.04
eigval :      902.26   910.46   912.21   915.84   916.24   917.03
eigval :      923.74   927.18   928.32   929.02   930.92   960.16
eigval :      960.28   961.79   962.38   962.54   963.94   988.22
eigval :      994.87  1003.70  1005.90  1007.44  1014.80  1031.51
eigval :     1033.43  1034.38  1034.73  1035.43  1035.75  1041.29
eigval :     1073.15  1088.70  1100.62  1102.14  1109.75  1114.16
eigval :     1134.64  1146.21  1147.01  1153.12  1156.16  1158.61
eigval :     1171.51  1181.83  1183.17  1183.70  1187.53  1209.82
eigval :     1216.68  1219.54  1227.86  1228.01  1230.16  1234.00
eigval :     1234.35  1234.68  1246.19  1248.78  1252.94  1263.52
eigval :     1266.81  1267.01  1279.62  1282.28  1284.53  1285.95
eigval :     1292.94  1301.47  1313.49  1315.22  1317.73  1319.12
eigval :     1322.54  1357.19  1361.62  1374.32  1381.08  1389.09
eigval :     1394.83  1397.87  1401.59  1403.54  1404.41  1405.41
eigval :     1405.78  1406.75  1409.28  1410.02  1421.55  1426.94
eigval :     1428.11  1431.71  1435.71  1443.77  1448.61  1469.35
eigval :     1472.97  1476.40  1482.60  1483.30  1483.89  1489.59
eigval :     1491.35  1492.02  1492.26  1493.05  1494.98  1496.75
eigval :     1498.35  1501.49  1503.69  1504.62  1508.22  1509.86
eigval :     1514.17  1514.34  1520.05  1521.35  1530.85  1537.28
eigval :     1540.92  1559.13  1560.61  1563.13  1571.53  1583.77
eigval :     1587.74  1601.78  1602.49  1604.66  3000.83  3004.95
eigval :     3018.54  3018.99  3019.69  3020.18  3020.62  3024.91
eigval :     3025.70  3026.96  3027.84  3029.44  3029.78  3030.27
eigval :     3033.40  3034.63  3034.82  3036.91  3037.50  3038.56
eigval :     3045.32  3046.94  3049.48  3050.06  3064.26  3064.39
eigval :     3067.09  3067.77  3068.92  3070.56  3070.81  3074.87
eigval :     3075.64  3076.02  3078.19  3082.09  3083.48  3084.32
eigval :     3085.29  3085.88  3087.24  3093.75  3095.64  3097.01
eigval :     3106.86  3108.46  3433.59  3460.76  3503.54  3519.02

   temp. (K)  partition function   enthalpy   heat capacity  entropy
                                   cal/mol     cal/K/mol   cal/K/mol   J/K/mol
 298.15  VIB  0.506E+23            30367.414    188.300    187.208
         ROT  0.939E+08              888.752      2.981     39.463
         INT  0.476E+31            31256.166    191.281    226.671
         TR   0.180E+29             1481.254      4.968     45.510
         TOT                       32737.4202   196.2493   272.1809  1138.8048

       T/K    H(0)-H(T)+PV         H(T)/Eh          T*S/Eh         G(T)/Eh
   ------------------------------------------------------------------------
    298.15    0.521704E-01    0.903917E+00    0.129322E+00    0.774595E+00
   ------------------------------------------------------------------------

         :::::::::::::::::::::::::::::::::::::::::::::::::::::
         ::                  THERMODYNAMIC                  ::
         :::::::::::::::::::::::::::::::::::::::::::::::::::::
         :: total free energy        -141.915144120492 Eh   ::
         ::.................................................::
         :: total energy             -142.689739033555 Eh   ::
         :: zero point energy           0.851746435837 Eh   ::
         :: G(RRHO) w/o ZPVE           -0.077151522773 Eh   ::
         :: G(RRHO) contrib.            0.774594913063 Eh   ::
         :::::::::::::::::::::::::::::::::::::::::::::::::::::

           -------------------------------------------------
          | TOTAL ENERGY             -142.689739033555 Eh   |
          | TOTAL ENTHALPY           -141.785822197768 Eh   |
          | TOTAL FREE ENERGY        -141.915144120492 Eh   |
          | GRADIENT NORM               0.000051750913 Eh/α |
           -------------------------------------------------

 * finished run on 2025/08/25 at 00:29:51.282
