   * xtb version 6.7.1 (edcfbbe) compiled by 'albert@albert-system' on 2024-07-22

   ID    Z sym.   atoms
    1    6 C      1-33, 35-43, 45-54
    2    7 N      34, 44
    3    1 H      55-104

          program call               : xtb data2507/gas/TBTAC/TBTAC_gas_S0_crest.xyz --gfn 2 --ohess vtight --parallel 40 --molden --ceasefiles --namespace data2507/gas/TBTAC/TBTAC_gas_S0_finalOpt
          :  Hamiltonian                  GFN2-xTB          :
 * total energy  :  -142.7573854 Eh     change       -0.1926878E-08 Eh
 * total energy  :  -142.7573866 Eh     change       -0.1149675E-05 Eh
 * total energy  :  -142.7573888 Eh     change       -0.2236320E-05 Eh
 * total energy  :  -142.7573914 Eh     change       -0.2536680E-05 Eh
 * total energy  :  -142.7573927 Eh     change       -0.1297218E-05 Eh
 * total energy  :  -142.7573941 Eh     change       -0.1410419E-05 Eh
 * total energy  :  -142.7573964 Eh     change       -0.2357284E-05 Eh
 * total energy  :  -142.7573993 Eh     change       -0.2901353E-05 Eh
 * total energy  :  -142.7574015 Eh     change       -0.2139708E-05 Eh
 * total energy  :  -142.7574031 Eh     change       -0.1634752E-05 Eh
 * total energy  :  -142.7574091 Eh     change       -0.1081602E-05 Eh
 * total energy  :  -142.7574102 Eh     change       -0.1101089E-05 Eh
 * total energy  :  -142.7574112 Eh     change       -0.1015020E-05 Eh
 * total energy  :  -142.7574120 Eh     change       -0.7853342E-06 Eh
 * total energy  :  -142.7574126 Eh     change       -0.6433621E-06 Eh
 * total energy  :  -142.7574131 Eh     change       -0.5163915E-06 Eh
 * total energy  :  -142.7574135 Eh     change       -0.3693442E-06 Eh
 * total energy  :  -142.7574138 Eh     change       -0.3084528E-06 Eh
 * total energy  :  -142.7574138 Eh     change       -0.1738010E-07 Eh
   *** GEOMETRY OPTIMIZATION CONVERGED AFTER 22 ITERATIONS ***

 final structure:
================
104
 xtb: 6.7.1 (edcfbbe)
C            1.91122305011055       -3.41313615768281        2.31350377115301
C            2.71898997307652       -3.28022946529395        1.05800650359910
C            3.97529742033064       -3.86901744130565        0.98672000193322
C            4.76494854673486       -3.74324105818366       -0.13989869375184
C            4.30791567423116       -3.00628539710009       -1.21896017884193
C            3.05980901006888       -2.41918715119513       -1.16338968287658
C            2.24980914371629       -2.56166743356424       -0.04060685667119
C            0.92190434827736       -1.90030103416518       -0.05553597398622
C            0.87963757730670       -0.49635238920915       -0.00504070719552
C            2.14681209914750        0.26435753028377       -0.00589622808891
C            2.44459668979127        1.13634487917403       -1.04687835584939
C            3.61107199437760        1.87146159660411       -1.03654656710567
C            4.52879191956706        1.76781240808909        0.00592485077396
C            5.78365946659513        2.62596869037117       -0.01483069357282
C            5.36898324062854        4.10438228327716       -0.01156610976854
C            6.58952488112862        2.31217702546245       -1.28293654144840
C            6.68825854020475        2.38068163777150        1.19583087472012
C            4.23357527378577        0.87900701495702        1.03123312676051
C            3.06510608619173        0.13885059232615        1.02649675900915
C           -0.33808385022754        0.16401928069420        0.03729469167701
C           -0.29660943032492        1.64020556495528        0.00855662346825
C           -0.87500454277822        2.33057416874513       -1.04974580742494
C           -0.76222312078284        3.70477075234542       -1.14700895932991
C           -0.06651551628337        4.44095567001984       -0.19588882366919
C            0.10226105550757        5.94977665187202       -0.27316192806418
C           -0.51051040230685        6.58884778071304        0.98101783129199
C           -0.58249018544195        6.55931572153818       -1.49927617635473
C            1.60052730641135        6.27664646902925       -0.34868460376996
C            0.50147678661200        3.74250455452867        0.86675550424331
C            0.39487733015774        2.37116528788162        0.96942377801093
C           -1.55017036712994       -0.56434648680898       -0.03052057057948
C           -1.49050678987250       -1.95289901012705       -0.32465424134433
C           -2.69452578277547       -2.58876082906777       -0.77826495636815
N           -2.70525163107911       -3.90632988848182       -1.20221188373652
C           -3.87206182620404       -1.88654027829885       -0.79991857297986
C           -3.99528521404560       -0.58330462364385       -0.27990675222899
C           -5.25825810233790        0.10028362966597       -0.19950850671509
C           -6.44553615992193       -0.44344820423689       -0.72141710347975
C           -7.63489664913100        0.23688812789717       -0.67694597407078
C           -7.69357690302016        1.50984271678980       -0.10888098966042
C           -6.56006548711444        2.06608362116145        0.42232943681455
C           -5.33266932277067        1.38070559166348        0.40562331341646
C           -4.15609832356724        1.92963149040706        1.00641889423698
N           -4.21147027034504        3.14552473754793        1.67374007423684
C           -2.95974016052658        1.28038264468777        0.87064120538295
C           -2.83042783032063        0.06570876955307        0.16548061910230
C           -0.24551730960896       -2.62465641327306       -0.22904433495670
C           -0.11729510583250       -4.09987740864530       -0.26107263819771
C            0.64166818103083       -4.70300868289497       -1.26085658082955
C            0.84777282016918       -6.06954474000108       -1.27216601726757
C            0.29797122158490       -6.85201568593587       -0.27224154052126
C           -0.46105869647682       -6.26103841973087        0.72190760888653
C           -0.68145902604118       -4.89073026802551        0.74779126507544
C           -1.52766743348901       -4.29514921381167        1.83183101941841
H            2.56042557934192       -3.38791590605116        3.18716538964491
H            1.17874251263011       -2.61301656500949        2.39291118769557
H            1.37909429664803       -4.36404044324578        2.31710042189330
H            4.33907649276348       -4.43005385569560        1.83645239294697
H            5.73866348710927       -4.20999296598812       -0.17291114823886
H            4.92252138192849       -2.88864859661460       -2.09942618478090
H            2.69694673102375       -1.84046259789259       -2.00157264548025
H            1.75127485971054        1.24052842082917       -1.86930639297235
H            3.80067916658832        2.54304012674513       -1.86070234517272
H            6.24989385005223        4.74314621250653       -0.01625594688531
H            4.76530860388350        4.34818118712581       -0.88122795940812
H            4.78484691764475        4.32698496657056        0.87905932011398
H            6.01943292721916        2.53487504581825       -2.18046683977404
H            6.85953106373054        1.25827425474049       -1.30338380506468
H            7.50247912044732        2.90398877607171       -1.30404837990794
H            6.17390165379139        2.61961444937313        2.12384229882758
H            7.02309207422586        1.34647509858316        1.22976367874091
H            7.56820248551338        3.01744150785533        1.12640737413178
H            4.91036726788825        0.75097629316865        1.86052032183140
H            2.85847320947384       -0.53119337238776        1.84840074668056
H           -1.41525765575434        1.78126781509271       -1.80772199734865
H           -1.22570010428909        4.19271095709517       -1.98885839470927
H           -0.01838166656354        6.23978288345124        1.88468852476047
H           -0.41248313261119        7.67167318807733        0.93717049778615
H           -1.56773534974865        6.33974217241713        1.04852021231437
H           -0.16389034148396        6.15976667692853       -2.42008869930113
H           -1.65334427343405        6.37041051934744       -1.48277103497425
H           -0.43059861152996        7.63706218401253       -1.50144357198517
H            2.04141739090627        5.80789745842251       -1.22605017732763
H            1.74869344258419        7.35232016053049       -0.41965262843027
H            2.13020882537195        5.91620235026945        0.52867500062288
H            1.04766407846617        4.27177870039575        1.63360201891301
H            0.84347618644605        1.85993144917828        1.80932855931023
H           -3.53121617577415       -4.17194115436778       -1.71550418011458
H           -1.84753055656422       -4.27308607988478       -1.58036727472482
H           -4.73883329025245       -2.39101865055538       -1.19883070258618
H           -6.43229068391855       -1.41722591958384       -1.18444184322573
H           -8.52813722354724       -0.20715537992523       -1.09219451405933
H           -8.62809397691392        2.05160137175433       -0.09244059974702
H           -6.60628256767502        3.06055632101663        0.84097833177299
H           -5.06110234049214        3.33566712110581        2.18107990286792
H           -3.37769462532196        3.36111871576811        2.19954576196725
H           -2.09797231647722        1.70064445415756        1.36270070119323
H            1.06467485582014       -4.08994527527252       -2.04340727578396
H            1.43976528737656       -6.51911161561855       -2.05550691353768
H            0.45944601679191       -7.91995906247810       -0.26620676207349
H           -0.88969053734587       -6.87550299670271        1.50148263530876
H           -1.49727459639195       -4.91403001629514        2.72616075307503
H           -1.20281013369467       -3.28887790537196        2.08338615971038
H           -2.56232241266617       -4.23355225882263        1.49548360937542

          :  Hamiltonian                  GFN2-xTB          :
         :: gradient norm              0.000044512935 Eh/a0 ::
         :: HOMO-LUMO gap              2.057267600093 eV    ::
         :: SCC energy              -145.366106826535 Eh    ::
         :: -> dispersion             -0.154738019721 Eh    ::
         :: repulsion energy           2.608692983591 Eh    ::

    * Orbital Energies and Occupations

         #    Occupation            Energy/Eh            Energy/eV
      -------------------------------------------------------------
         1        2.0000           -0.6464465             -17.5907
       ...           ...                  ...                  ...
       122        2.0000           -0.3948001             -10.7431
       123        2.0000           -0.3924118             -10.6781
       124        2.0000           -0.3912577             -10.6467
       125        2.0000           -0.3905231             -10.6267
       126        2.0000           -0.3885151             -10.5720
       127        2.0000           -0.3874418             -10.5428
       128        2.0000           -0.3821318             -10.3983
       129        2.0000           -0.3789452             -10.3116
       130        2.0000           -0.3768961             -10.2559
       131        2.0000           -0.3720729             -10.1246
       132        2.0000           -0.3669628              -9.9856
       133        2.0000           -0.3597621              -9.7896
       134        2.0000           -0.3270236              -8.8988 (HOMO)
       135                         -0.2514204              -6.8415 (LUMO)
       136                         -0.2382830              -6.4840
       137                         -0.2298896              -6.2556
       138                         -0.2161479              -5.8817
       139                         -0.2156558              -5.8683
       140                         -0.2126251              -5.7858
       141                         -0.2114744              -5.7545
       142                         -0.2094167              -5.6985
       143                         -0.2069425              -5.6312
       144                         -0.2054924              -5.5917
       145                         -0.2013291              -5.4784
       ...                                ...                  ...
       266                          0.7290952              19.8397
      -------------------------------------------------------------
                  HL-Gap            0.0756032 Eh            2.0573 eV

     #   Z          covCN         q      C6AA      α(0)
     1   6 C        3.758    -0.103    22.510     6.764
     2   6 C        2.969     0.013    27.729     8.637
     3   6 C        2.926    -0.041    29.016     8.834
     4   6 C        2.919    -0.034    28.852     8.808
     5   6 C        2.919    -0.035    28.883     8.813
     6   6 C        2.927    -0.032    28.806     8.802
     7   6 C        2.982     0.006    27.878     8.661
     8   6 C        2.986    -0.003    28.103     8.696
     9   6 C        2.986    -0.006    28.159     8.705
    10   6 C        2.978     0.011    27.762     8.643
    11   6 C        2.924    -0.034    28.845     8.808
    12   6 C        2.927    -0.036    28.894     8.815
    13   6 C        2.974     0.005    27.898     8.664
    14   6 C        3.903     0.025    20.092     6.372
    15   6 C        3.762    -0.103    22.519     6.765
    16   6 C        3.762    -0.104    22.541     6.768
    17   6 C        3.761    -0.106    22.576     6.773
    18   6 C        2.925    -0.041    29.020     8.834
    19   6 C        2.924    -0.036    28.885     8.814
    20   6 C        2.979    -0.005    28.135     8.701
    21   6 C        2.980     0.016    27.659     8.627
    22   6 C        2.925    -0.033    28.814     8.803
    23   6 C        2.924    -0.039    28.978     8.828
    24   6 C        2.974     0.005    27.907     8.665
    25   6 C        3.903     0.025    20.091     6.371
    26   6 C        3.762    -0.105    22.545     6.769
    27   6 C        3.761    -0.107    22.588     6.775
    28   6 C        3.762    -0.103    22.518     6.764
    29   6 C        2.927    -0.037    28.931     8.821
    30   6 C        2.923    -0.037    28.914     8.818
    31   6 C        2.982    -0.005    28.134     8.701
    32   6 C        2.982    -0.015    28.380     8.739
    33   6 C        2.891     0.071    26.421     8.427
    34   7 N        2.642    -0.287    27.404     7.775
    35   6 C        2.925    -0.077    29.921     8.970
    36   6 C        2.979    -0.006    28.157     8.704
    37   6 C        2.981     0.003    27.945     8.671
    38   6 C        2.921    -0.035    28.876     8.812
    39   6 C        2.917    -0.035    28.875     8.812
    40   6 C        2.916    -0.035    28.873     8.811
    41   6 C        2.921    -0.037    28.932     8.821
    42   6 C        2.987    -0.007    28.189     8.709
    43   6 C        2.893     0.066    26.523     8.444
    44   7 N        2.641    -0.285    27.366     7.769
    45   6 C        2.923    -0.074    29.849     8.959
    46   6 C        2.981    -0.003    28.093     8.694
    47   6 C        2.976    -0.005    28.134     8.701
    48   6 C        2.982     0.005    27.896     8.664
    49   6 C        2.924    -0.040    28.990     8.830
    50   6 C        2.918    -0.038    28.939     8.822
    51   6 C        2.918    -0.035    28.875     8.812
    52   6 C        2.925    -0.042    29.050     8.839
    53   6 C        2.968     0.018    27.609     8.619
    54   6 C        3.758    -0.108    22.613     6.780
    55   1 H        0.925     0.038     2.472     2.459
    56   1 H        0.925     0.038     2.473     2.459
    57   1 H        0.925     0.047     2.352     2.398
    58   1 H        0.925     0.027     2.633     2.538
    59   1 H        0.926     0.025     2.651     2.546
    60   1 H        0.926     0.025     2.656     2.549
    61   1 H        0.925     0.024     2.678     2.559
    62   1 H        0.926     0.023     2.687     2.563
    63   1 H        0.926     0.025     2.652     2.546
    64   1 H        0.925     0.035     2.511     2.478
    65   1 H        0.925     0.036     2.499     2.472
    66   1 H        0.925     0.032     2.560     2.502
    67   1 H        0.925     0.036     2.506     2.476
    68   1 H        0.925     0.033     2.540     2.492
    69   1 H        0.925     0.035     2.512     2.478
    70   1 H        0.925     0.035     2.522     2.483
    71   1 H        0.925     0.035     2.512     2.479
    72   1 H        0.925     0.035     2.523     2.484
    73   1 H        0.926     0.032     2.552     2.498
    74   1 H        0.926     0.026     2.648     2.545
    75   1 H        0.926     0.026     2.650     2.546
    76   1 H        0.926     0.034     2.524     2.485
    77   1 H        0.925     0.034     2.527     2.486
    78   1 H        0.925     0.035     2.512     2.478
    79   1 H        0.925     0.034     2.537     2.491
    80   1 H        0.925     0.035     2.516     2.481
    81   1 H        0.925     0.037     2.494     2.469
    82   1 H        0.925     0.034     2.526     2.485
    83   1 H        0.925     0.032     2.555     2.499
    84   1 H        0.925     0.035     2.514     2.480
    85   1 H        0.925     0.036     2.506     2.476
    86   1 H        0.926     0.024     2.680     2.560
    87   1 H        0.926     0.022     2.702     2.570
    88   1 H        0.860     0.153     1.378     1.839
    89   1 H        0.860     0.166     1.300     1.786
    90   1 H        0.926     0.019     2.745     2.591
    91   1 H        0.926     0.028     2.608     2.526
    92   1 H        0.926     0.023     2.683     2.562
    93   1 H        0.926     0.023     2.690     2.565
    94   1 H        0.926     0.027     2.636     2.539
    95   1 H        0.860     0.158     1.348     1.818
    96   1 H        0.860     0.155     1.370     1.833
    97   1 H        0.926     0.026     2.637     2.540
    98   1 H        0.926     0.026     2.651     2.546
    99   1 H        0.926     0.025     2.661     2.551
   100   1 H        0.926     0.026     2.646     2.544
   101   1 H        0.925     0.028     2.622     2.532
   102   1 H        0.925     0.038     2.482     2.464
   103   1 H        0.925     0.043     2.406     2.426
   104   1 H        0.925     0.055     2.253     2.347

molecular dipole:
                 x           y           z       tot (Debye)
 q only:       -0.055       0.246       0.394
   full:       -0.004       0.183       0.354       1.013

 projected vibrational frequencies (cm⁻¹)
eigval :       -0.00    -0.00    -0.00     0.00     0.00     0.00
eigval :       11.70    17.38    17.41    20.11    23.20    26.32
eigval :       30.64    34.25    41.52    45.78    55.93    67.73
eigval :       70.10    82.47    84.57    96.13    98.32   101.73
eigval :      109.41   126.41   130.96   135.77   139.48   143.57
eigval :      152.45   161.34   166.40   172.38   173.76   179.87
eigval :      182.24   191.58   200.30   208.93   218.43   220.62
eigval :      231.53   239.71   244.37   259.74   269.33   273.66
eigval :      281.29   285.79   295.97   313.86   314.46   315.49
eigval :      321.55   331.46   342.54   347.82   358.74   363.54
eigval :      368.71   373.76   378.90   379.77   382.47   385.56
eigval :      394.11   399.05   410.29   416.94   432.12   433.26
eigval :      438.70   445.66   452.22   457.25   462.34   476.12
eigval :      488.91   497.83   506.74   508.40   523.42   527.26
eigval :      533.88   536.62   547.61   549.40   557.94   566.12
eigval :      572.53   588.94   595.32   600.61   609.48   611.71
eigval :      613.70   625.47   649.49   654.59   665.68   669.57
eigval :      676.32   689.35   697.76   701.82   703.57   723.49
eigval :      730.96   737.19   737.85   761.12   769.65   773.59
eigval :      776.96   793.18   802.59   811.58   814.68   816.07
eigval :      820.24   829.62   853.45   857.95   864.74   871.93
eigval :      873.60   878.11   884.31   884.83   885.37   906.60
eigval :      908.27   916.05   916.17   916.66   917.53   921.75
eigval :      927.51   927.90   928.63   929.35   933.01   960.53
eigval :      960.66   961.64   962.74   963.08   964.46  1000.27
eigval :     1003.39  1005.17  1007.99  1030.38  1031.61  1033.11
eigval :     1034.76  1034.89  1035.83  1036.22  1044.87  1062.33
eigval :     1076.43  1092.83  1101.38  1102.93  1109.49  1123.32
eigval :     1135.78  1145.81  1146.77  1154.37  1155.92  1164.10
eigval :     1183.25  1184.03  1187.33  1191.06  1195.20  1213.07
eigval :     1216.76  1224.06  1228.29  1228.43  1232.70  1234.56
eigval :     1234.92  1239.26  1248.37  1252.09  1266.13  1266.69
eigval :     1271.81  1280.85  1283.73  1285.22  1290.17  1292.81
eigval :     1306.99  1307.51  1313.88  1316.20  1319.16  1322.14
eigval :     1331.32  1371.94  1385.43  1389.17  1394.93  1396.82
eigval :     1399.17  1401.13  1402.03  1404.16  1404.62  1406.02
eigval :     1408.97  1409.58  1413.13  1428.18  1429.38  1431.35
eigval :     1436.65  1439.49  1471.67  1475.94  1479.99  1482.12
eigval :     1482.29  1489.66  1491.41  1491.50  1492.30  1493.00
eigval :     1493.88  1495.83  1496.71  1498.40  1499.77  1503.72
eigval :     1504.18  1504.64  1509.06  1510.93  1514.41  1514.57
eigval :     1519.83  1521.19  1521.99  1535.73  1544.18  1566.93
eigval :     1571.68  1576.55  1580.36  1585.14  1593.57  1599.12
eigval :     1603.24  1604.22  1607.15  1610.65  3006.54  3009.29
eigval :     3020.00  3020.27  3021.38  3021.76  3022.48  3026.35
eigval :     3026.49  3028.42  3029.23  3030.15  3030.54  3030.90
eigval :     3034.31  3035.22  3035.85  3037.40  3037.97  3045.41
eigval :     3045.63  3047.54  3049.68  3050.88  3065.57  3066.87
eigval :     3067.36  3068.94  3070.68  3071.40  3074.58  3075.52
eigval :     3076.04  3076.95  3081.07  3083.16  3083.28  3083.59
eigval :     3084.93  3087.62  3088.00  3092.58  3104.07  3108.96
eigval :     3111.65  3116.02  3443.16  3451.77  3491.97  3505.93

   temp. (K)  partition function   enthalpy   heat capacity  entropy
                                   cal/mol     cal/K/mol   cal/K/mol   J/K/mol
 298.15  VIB  0.499E+23            30080.652    186.355    185.760
         ROT  0.936E+08              888.752      2.981     39.456
         INT  0.467E+31            30969.404    189.336    225.216
         TR   0.180E+29             1481.254      4.968     45.510
         TOT                       32450.6581   194.3040   270.7263  1132.7190

       T/K    H(0)-H(T)+PV         H(T)/Eh          T*S/Eh         G(T)/Eh
   ------------------------------------------------------------------------
    298.15    0.517134E-01    0.907270E+00    0.128631E+00    0.778639E+00
   ------------------------------------------------------------------------

         :::::::::::::::::::::::::::::::::::::::::::::::::::::
         ::                  THERMODYNAMIC                  ::
         :::::::::::::::::::::::::::::::::::::::::::::::::::::
         :: total free energy        -141.978774664111 Eh   ::
         ::.................................................::
         :: total energy             -142.757413842943 Eh   ::
         :: zero point energy           0.855556579670 Eh   ::
         :: G(RRHO) w/o ZPVE           -0.076917400838 Eh   ::
         :: G(RRHO) contrib.            0.778639178832 Eh   ::
         :::::::::::::::::::::::::::::::::::::::::::::::::::::

           -------------------------------------------------
          | TOTAL ENERGY             -142.757413842943 Eh   |
          | TOTAL ENTHALPY           -141.850143847945 Eh   |
          | TOTAL FREE ENERGY        -141.978774664111 Eh   |
          | GRADIENT NORM               0.000044501982 Eh/α |
          | HOMO-LUMO GAP               2.057267573827 eV   |
           -------------------------------------------------

 * finished run on 2025/08/25 at 00:29:33.673
