   * xtb version 6.7.1 (edcfbbe) compiled by 'albert@albert-system' on 2024-07-22

   ID    Z sym.   atoms
    1    6 C      1-33, 35-43, 45-54
    2    7 N      34, 44
    3    1 H      55-104

          program call               : xtb data2507/gas/TBTAC/TBTAC_gas_T1_crest.xyz --gfn 2 --spinpol --tblite --uhf 2 --ohess vtight --parallel 40 --molden --ceasefiles --namespace data2507/gas/TBTAC/TBTAC_gas_T1_finalOpt
 * total energy  :  -142.6900231 Eh     change        0.1116231E-06 Eh
 * total energy  :  -142.6900305 Eh     change       -0.7376294E-05 Eh
 * total energy  :  -142.6900335 Eh     change       -0.2950955E-05 Eh
 * total energy  :  -142.6900348 Eh     change       -0.1346123E-05 Eh
 * total energy  :  -142.6900374 Eh     change       -0.2610287E-05 Eh
 * total energy  :  -142.6900387 Eh     change       -0.1252642E-05 Eh
 * total energy  :  -142.6900399 Eh     change       -0.1214229E-05 Eh
 * total energy  :  -142.6900409 Eh     change       -0.9781128E-06 Eh
 * total energy  :  -142.6900416 Eh     change       -0.7436837E-06 Eh
 * total energy  :  -142.6900423 Eh     change       -0.6365978E-06 Eh
 * total energy  :  -142.6900447 Eh     change       -0.5553316E-06 Eh
 * total energy  :  -142.6900450 Eh     change       -0.3713197E-06 Eh
 * total energy  :  -142.6900454 Eh     change       -0.3406032E-06 Eh
 * total energy  :  -142.6900456 Eh     change       -0.1841157E-06 Eh
 * total energy  :  -142.6900457 Eh     change       -0.1262596E-06 Eh
 * total energy  :  -142.6900459 Eh     change       -0.1911200E-06 Eh
 * total energy  :  -142.6900460 Eh     change       -0.1323081E-06 Eh
 * total energy  :  -142.6900462 Eh     change       -0.2076590E-06 Eh
 * total energy  :  -142.6900463 Eh     change       -0.5193527E-07 Eh
   *** GEOMETRY OPTIMIZATION CONVERGED AFTER 22 ITERATIONS ***

 final structure:
================
104
 xtb: 6.7.1 (edcfbbe)
C            2.38995778628260       -3.14704216865528        2.27983290279067
C            3.16251246426777       -2.93739757367568        1.01236960224351
C            4.47485992647046       -3.38484399740132        0.92855022821650
C            5.23370968103634       -3.17753548968921       -0.20746858934572
C            4.68717293773602       -2.49846258107730       -1.28283947450740
C            3.38233133175995       -2.05228893814080       -1.21530041718892
C            2.60491504483895       -2.27871056685082       -0.08331289773609
C            1.20952617501712       -1.77567590678841       -0.08509000070688
C            0.99789865237991       -0.40252955675517       -0.06409657280362
C            2.13499400939340        0.53131091335292       -0.09155064459264
C            2.22455922754213        1.49806738047600       -1.09018656984578
C            3.26785964143200        2.39814061907621       -1.11050871622124
C            4.26829259073671        2.37803844346620       -0.14113566213671
C            5.37912004319423        3.41481753382040       -0.19083383230981
C            4.75532378031134        4.81163002498680       -0.05783424194847
C            6.11962386851780        3.29979842761147       -1.53049080796291
C            6.40303021436604        3.23911648818295        0.93384924466524
C            4.18293731723838        1.40099705467394        0.84248321226508
C            3.13882957251737        0.49495532482613        0.86854858330298
C           -0.32698323344575        0.10394302612053       -0.00160288392827
C           -0.50006630305546        1.56632613818536        0.03167260787306
C           -1.24344899937862        2.21220877878773       -0.95106896248046
C           -1.34780084937231        3.58970300362461       -0.97646068067758
C           -0.71252901205465        4.38024016517119       -0.02500276170051
C           -0.77025286486014        5.89967648168407       -0.03230091225529
C           -1.38186095002683        6.39155506853440        1.28735214589680
C           -1.61431975355906        6.45486995790130       -1.18284157074919
C            0.65730421030059        6.44522762309262       -0.17966141316120
C            0.01940229754520        3.72705618606346        0.96360278086501
C            0.12864515600993        2.35248252497011        0.99415086567706
C           -1.40851729566474       -0.76768265948344       -0.04537086133675
C           -1.19233767018942       -2.15435339263851       -0.30648294666933
C           -2.29565755926534       -2.91102190556485       -0.76735699702745
N           -2.18079055864660       -4.20959527272562       -1.19585167130717
C           -3.58766091221262       -2.32589097850886       -0.85981097592121
C           -3.85730440294629       -1.06202575588867       -0.40709211833240
C           -5.18790167350080       -0.47564531839566       -0.40871845374411
C           -6.22306928544814       -1.01039565471812       -1.16788086908641
C           -7.50188706529982       -0.47074578554305       -1.13920675901609
C           -7.76559797696835        0.62657851975826       -0.33823567726267
C           -6.75380836165582        1.19496233952342        0.40846515797874
C           -5.44657681681469        0.67541561711987        0.38345085747531
C           -4.37406339581015        1.25857524635021        1.12018545084312
N           -4.57481776964064        2.31818245839593        1.97481371524052
C           -3.07070496759252        0.75616132133812        0.98646720739764
C           -2.77237158808762       -0.30962906001899        0.17179894536154
C            0.13229234698000       -2.66639757030611       -0.19187815720480
C            0.41630449812201       -4.11024349998535       -0.13947937400297
C            1.28272197576390       -4.68513780279091       -1.07182479429080
C            1.60951399615834       -6.02544399556284       -1.01241268752145
C            1.07507081596291       -6.81953637870673       -0.01174769026745
C            0.21600454939254       -6.26058296591213        0.91920466697389
C           -0.12300379203462       -4.91661517577565        0.87850559922049
C           -1.04624074590027       -4.35190862068264        1.91560717251463
H            3.04428998072533       -3.04536946276236        3.14416968957421
H            1.57742861083906       -2.42881122072648        2.36400295343554
H            1.96212040724686       -4.14912793642757        2.29794072083491
H            4.90757700428705       -3.89880520092972        1.77584935380547
H            6.25232455405421       -3.53509631702678       -0.25022572498493
H            5.27598626831433       -2.31697334288149       -2.17018784260082
H            2.94775841027343       -1.52104094148153       -2.05083245047594
H            1.46733183500582        1.53913346744336       -1.86012494491647
H            3.29427264101498        3.13357067418242       -1.90114414623782
H            5.53033765085217        5.57516791123549       -0.08258957398111
H            4.05397424248927        5.00968602334808       -0.86359158035811
H            4.21906853816190        4.89326626212067        0.88550285192117
H            5.45411662011553        3.48567820918477       -2.36878832236630
H            6.53778146939559        2.30146914925173       -1.64219260238397
H            6.93218032373523        4.02242943421944       -1.57431874132698
H            5.93539033845550        3.34763950681223        1.90975464650498
H            6.88319938673008        2.26502855489388        0.87529606427944
H            7.17493156745424        4.00135479732208        0.84484687267016
H            4.93020646990001        1.33322858412249        1.61672821906518
H            3.09387072973445       -0.23642932122731        1.66200898190284
H           -1.73770500026850        1.62368060132091       -1.71147920177739
H           -1.92867953505679        4.03968035052360       -1.76558020453104
H           -0.79509049405836        6.06645000318093        2.14204098215101
H           -1.42587576603850        7.47872572848276        1.29887953732559
H           -2.39351779568930        6.00556893647125        1.39970671864007
H           -1.20180022887408        6.16335300337567       -2.14582143337738
H           -2.64355317788684        6.10879157299235       -1.11751140542656
H           -1.62164378351270        7.54223002679513       -1.13590466829682
H            1.28865403763375        6.13147309245237        0.64683955870519
H            1.10262828518295        6.08019687247444       -1.10279097661476
H            0.64495917873076        7.53299296074555       -0.20751327305266
H            0.52708910088263        4.29714928950927        1.72777789503304
H            0.70305096929181        1.87914316332838        1.77745276716392
H           -2.92762450501133       -4.56506523254030       -1.76948975318393
H           -1.25734919392679       -4.57020286858897       -1.37528564245307
H           -4.37219796329626       -2.94863655647989       -1.26302020800604
H           -6.03643531900266       -1.85776532666672       -1.80921670612151
H           -8.28511380072749       -0.90987556966130       -1.73882552020723
H           -8.76118050510047        1.04471303568122       -0.30008283989322
H           -6.98572920976615        2.05111847710967        1.02508969857839
H           -5.39035142911215        2.89015370995741        1.83439941555452
H           -3.74569895113599        2.81489955247514        2.25917085893681
H           -2.28728118273579        1.24915155533804        1.54083240514239
H            1.68895782137012       -4.06928228290425       -1.86046947828603
H            2.28152625017678       -6.44848382707680       -1.74446286313129
H            1.32859577167067       -7.86767338341481        0.04668823104683
H           -0.19261132822928       -6.88035817799106        1.70553805429091
H           -1.00781376417464       -4.94793189276990        2.82499369375076
H           -0.78766034155198       -3.32297573888140        2.15417172744113
H           -2.07308864960885       -4.35713984455974        1.54984487298029

 projected vibrational frequencies (cm⁻¹)
eigval :       -0.00    -0.00    -0.00    -0.00    -0.00     0.00
eigval :       11.97    17.36    18.44    21.18    25.12    26.99
eigval :       30.71    34.08    42.04    46.23    56.64    67.28
eigval :       72.44    81.98    85.72    95.02    96.38    99.24
eigval :      108.27   120.30   132.13   136.93   138.72   143.30
eigval :      150.76   160.09   163.44   170.57   173.81   177.15
eigval :      180.54   187.48   195.89   208.22   218.48   219.55
eigval :      230.35   238.22   242.02   257.81   269.61   273.86
eigval :      284.29   290.41   303.82   312.32   312.81   313.40
eigval :      321.75   325.01   333.31   342.45   354.64   358.96
eigval :      362.81   368.86   377.24   380.83   381.39   385.64
eigval :      391.44   401.20   408.40   414.85   429.12   431.06
eigval :      437.64   443.92   449.69   456.32   464.22   468.33
eigval :      471.93   484.54   495.93   497.87   505.36   513.27
eigval :      518.61   523.67   528.96   532.11   543.40   547.88
eigval :      550.54   553.95   564.88   591.24   597.91   601.00
eigval :      602.11   608.62   616.13   635.73   651.87   661.39
eigval :      663.91   683.26   691.73   695.43   701.33   706.82
eigval :      715.60   727.07   735.01   750.06   755.69   771.21
eigval :      774.43   791.11   800.25   801.67   811.25   815.03
eigval :      818.35   826.68   831.00   847.58   853.84   870.73
eigval :      872.83   875.97   881.00   883.91   884.25   884.80
eigval :      902.41   909.76   912.36   915.98   916.26   917.40
eigval :      923.82   927.20   928.45   929.21   931.03   959.78
eigval :      960.21   961.62   961.78   962.42   963.86   988.56
eigval :      995.40  1003.53  1005.98  1007.01  1015.49  1031.30
eigval :     1033.31  1034.10  1034.41  1035.15  1035.67  1041.64
eigval :     1073.41  1088.80  1100.67  1102.14  1110.46  1115.87
eigval :     1134.69  1145.90  1146.96  1153.04  1156.05  1158.57
eigval :     1172.03  1182.27  1183.40  1183.67  1187.70  1209.87
eigval :     1216.57  1219.73  1227.45  1227.92  1230.38  1234.04
eigval :     1234.34  1234.73  1246.69  1249.25  1254.02  1264.40
eigval :     1266.86  1267.10  1279.79  1282.76  1284.28  1285.95
eigval :     1292.79  1301.18  1313.26  1315.03  1317.42  1318.93
eigval :     1322.52  1358.23  1362.92  1374.44  1380.76  1389.05
eigval :     1394.96  1397.70  1401.73  1403.65  1405.16  1405.51
eigval :     1405.64  1406.91  1409.39  1410.26  1421.48  1426.98
eigval :     1428.22  1431.76  1436.04  1444.45  1449.48  1469.51
eigval :     1472.82  1477.20  1482.55  1483.39  1483.84  1489.92
eigval :     1491.35  1492.10  1492.25  1492.95  1494.96  1496.84
eigval :     1498.45  1501.31  1503.70  1504.67  1508.20  1509.63
eigval :     1514.07  1514.41  1519.96  1521.23  1531.61  1536.65
eigval :     1540.55  1559.59  1559.86  1563.08  1569.95  1583.70
eigval :     1587.97  1601.54  1601.95  1604.67  3001.18  3005.18
eigval :     3018.59  3019.00  3019.41  3019.83  3021.05  3023.06
eigval :     3025.77  3027.02  3027.81  3029.86  3029.95  3030.82
eigval :     3033.34  3033.41  3034.78  3036.98  3038.15  3039.11
eigval :     3045.91  3046.66  3049.66  3050.27  3064.38  3064.68
eigval :     3065.01  3066.86  3069.39  3070.09  3071.73  3074.68
eigval :     3074.88  3075.94  3077.53  3082.65  3084.22  3084.92
eigval :     3085.25  3085.54  3087.24  3093.67  3096.81  3097.66
eigval :     3105.74  3107.20  3434.14  3453.55  3504.70  3511.36

   temp. (K)  partition function   enthalpy   heat capacity  entropy
                                   cal/mol     cal/K/mol   cal/K/mol   J/K/mol
 298.15  VIB  0.557E+23            30364.190    188.193    187.279
         ROT  0.939E+08              888.752      2.981     39.463
         INT  0.523E+31            31252.942    191.174    226.742
         TR   0.180E+29             1481.254      4.968     45.510
         TOT                       32734.1962   196.1421   272.2520  1139.1022

       T/K    H(0)-H(T)+PV         H(T)/Eh          T*S/Eh         G(T)/Eh
   ------------------------------------------------------------------------
    298.15    0.521653E-01    0.903947E+00    0.129356E+00    0.774591E+00
   ------------------------------------------------------------------------

         :::::::::::::::::::::::::::::::::::::::::::::::::::::
         ::                  THERMODYNAMIC                  ::
         :::::::::::::::::::::::::::::::::::::::::::::::::::::
         :: total free energy        -141.915455194223 Eh   ::
         ::.................................................::
         :: total energy             -142.690046268227 Eh   ::
         :: zero point energy           0.851781504451 Eh   ::
         :: G(RRHO) w/o ZPVE           -0.077190430446 Eh   ::
         :: G(RRHO) contrib.            0.774591074005 Eh   ::
         :::::::::::::::::::::::::::::::::::::::::::::::::::::

           -------------------------------------------------
          | TOTAL ENERGY             -142.690046268227 Eh   |
          | TOTAL ENTHALPY           -141.786099501635 Eh   |
          | TOTAL FREE ENERGY        -141.915455194223 Eh   |
          | GRADIENT NORM               0.000069783180 Eh/α |
           -------------------------------------------------

 * finished run on 2025/08/25 at 00:37:32.697
