   * xtb version 6.7.1 (edcfbbe) compiled by 'albert@albert-system' on 2024-07-22

   ID    Z sym.   atoms
    1    6 C      1-4, 6-23, 25-40, 42-57, 59-76
    2    7 N      5, 24, 41, 58
    3    1 H      77-118

          program call               : xtb data2507/toluene/C-BPyIA/C-BPyIA_toluene_T1_crest.xyz --gfn 2 --uhf 2 --gbsa toluene --ohess vtight --parallel 40 --molden --ceasefiles --namespace data2507/toluene/C-BPyIA/C-BPyIA_toluene_T1_finalOpt
      * Solvation model:               GBSA
        Solvent                        toluene
        Solvent mass                       9.2140E+01 g/mol
          :  Hamiltonian                  GFN2-xTB          :
 * total energy  :  -187.4619956 Eh     change       -0.5228202E-08 Eh
 * total energy  :  -187.4620516 Eh     change       -0.5599460E-04 Eh
 * total energy  :  -187.4620773 Eh     change       -0.2574326E-04 Eh
 * total energy  :  -187.4620882 Eh     change       -0.1087612E-04 Eh
 * total energy  :  -187.4620995 Eh     change       -0.1131202E-04 Eh
 * total energy  :  -187.4621088 Eh     change       -0.9246693E-05 Eh
 * total energy  :  -187.4621166 Eh     change       -0.7879425E-05 Eh
 * total energy  :  -187.4621228 Eh     change       -0.6112046E-05 Eh
 * total energy  :  -187.4621271 Eh     change       -0.4387885E-05 Eh
 * total energy  :  -187.4621306 Eh     change       -0.3411471E-05 Eh
 * total energy  :  -187.4621718 Eh     change       -0.1356922E-05 Eh
 * total energy  :  -187.4621735 Eh     change       -0.1723996E-05 Eh
 * total energy  :  -187.4621759 Eh     change       -0.2403471E-05 Eh
 * total energy  :  -187.4621788 Eh     change       -0.2944570E-05 Eh
 * total energy  :  -187.4621795 Eh     change       -0.6682750E-06 Eh
 * total energy  :  -187.4621804 Eh     change       -0.8957387E-06 Eh
 * total energy  :  -187.4621808 Eh     change       -0.4064477E-06 Eh
 * total energy  :  -187.4621812 Eh     change       -0.4342310E-06 Eh
 * total energy  :  -187.4621813 Eh     change       -0.2526886E-07 Eh
   *** GEOMETRY OPTIMIZATION CONVERGED AFTER 48 ITERATIONS ***

 final structure:
================
118
 xtb: 6.7.1 (edcfbbe)
C            6.85429718682666       -4.40898160239496        1.78108676115444
C            6.58683134153608       -4.07056782054064        0.46471379300458
C            6.97916417967444       -2.83989869077368       -0.03184362470490
C            7.64139076591753       -1.94347675713316        0.79857525583079
N            8.01488583273488       -0.67534259877151        0.30074830488474
C            7.14258961212001        0.32054702256808       -0.08848465121871
C            5.70036728476916        0.24719953688012       -0.02520102509236
C            4.99911056127919       -0.50800932534684        0.92111217239557
C            3.62452089336516       -0.55261460017144        0.90322345793907
C            2.87898694346850        0.17438728149150       -0.03704298972890
C            1.42837199911740        0.10808263662625       -0.05195824774301
C            0.65202459421697        1.30793494077902       -0.02691711122678
C            1.24737356775528        2.56882070684523        0.10116319737734
C            0.49947108920826        3.73754132607542        0.02900393674955
C           -0.86432360325879        3.66747090047469       -0.17929297665596
C           -1.49093936010051        2.42859243325200       -0.23570231433273
C           -0.77160851849581        1.23553831547032       -0.09628686864509
C           -1.42435193027221       -0.03623260950929       -0.05776620782979
C           -2.87473404308036       -0.10549500507645       -0.05062031362365
C           -3.62853871875030        0.62293723810332        0.88187102923112
C           -5.00282499591280        0.56682057581141        0.89709866023914
C           -5.69585574788830       -0.20178397532007       -0.04454235099129
C           -7.13667702813218       -0.29737311763730       -0.10539149159411
N           -7.75599893225695       -1.36366097337839       -0.56618649826257
C           -9.08154416183659       -1.10049309605161       -0.47353534646168
C          -10.16734529476662       -1.95253950726402       -0.82870761918777
C           -9.98703917763274       -3.23938605425947       -1.32397557793670
C          -11.08290711537579       -4.02462212240087       -1.64174078386297
C          -12.36258594598814       -3.53476542969590       -1.47329907903732
C          -12.58099893624492       -2.24292251091893       -0.98337595897075
C          -13.89693775158662       -1.72145535184188       -0.81857998627610
C          -14.09515006979658       -0.46304975002208       -0.36550076168249
C          -12.99963611514719        0.38629073841343       -0.03038066411384
C          -13.21367805491876        1.69427200162376        0.41558561316871
C          -12.14770425722844        2.51560178894577        0.71635450976647
C          -10.84788130026607        2.05149248632665        0.60518799119175
C          -10.58592786380464        0.74651843168442        0.18791611259172
C          -11.67668706172545       -0.10486951553941       -0.16035134575624
C          -11.47150504604777       -1.42702393992901       -0.64843749177459
C           -9.28619393362141        0.18072087441564        0.04899231566669
N           -8.02696201777102        0.67965861125940        0.29089898571850
C           -7.67933886929853        1.95207201148157        0.79680468536833
C           -7.94619544703724        2.27029356465805        2.12537049247724
C           -7.58095091625465        3.51008327909345        2.61818756109516
C           -6.94799395033396        4.42836890154601        1.79505237445605
C           -6.68220649244922        4.10831122918758        0.47374925735431
C           -7.04681768203479        2.87229138804189       -0.03072650804166
C           -4.94890388124747       -0.94918908718388       -0.96601884746086
C           -3.57604864658501       -0.90729464150694       -0.96598002855393
C           -0.64797227055780       -1.23598178886559       -0.02274698382822
C           -1.24347589860122       -2.49615970871451        0.11140328384185
C           -0.49534570554906       -3.66522743475224        0.04774543534848
C            0.86892737569872       -3.59624388057810       -0.15762998964403
C            1.49563693496954       -2.35766439508742       -0.21859564336580
C            0.77581896752942       -1.16388668854699       -0.08736551636940
C            3.58865206200943        0.96671258756850       -0.95398088322984
C            4.96201982916608        0.99719999656336       -0.95114236269406
N            7.78055933773790        1.37674074531078       -0.54633767284338
C            9.10131544664618        1.08745132949230       -0.45902475898329
C           10.20247447977770        1.91944160198703       -0.81447834538592
C           10.04596087562001        3.21129485367430       -1.30483110268162
C           11.15600951114884        3.97582725128282       -1.62381254731274
C           12.42638772202869        3.46045309387087       -1.46113320999181
C           12.62096461521149        2.16306220229787       -0.97592872092362
C           13.92699716923084        1.61557793890350       -0.81667565103786
C           14.10204051284237        0.35189697502854       -0.36877636185494
C           12.99111988646881       -0.47752269062184       -0.03448131252076
C           13.18083130640746       -1.79153032197345        0.40463163195448
C           12.09987542035395       -2.59375886508538        0.70347527849062
C           10.80905370454035       -2.10396922610174        0.59793257198793
C           10.57153000548760       -0.79182717457640        0.18863272678081
C           11.67763983133049        0.03983803204173       -0.15866094866985
C           11.49672147954558        1.36778899922429       -0.64053219244723
C            9.28273943925553       -0.19987632057766        0.05693077534732
C            7.90992240760424       -2.28005447340385        2.12221507844189
C            7.51680679737342       -3.51445357398539        2.60710600566563
H            6.54624303608522       -5.36965323163236        2.16490052063909
H            6.07233228388245       -4.76624141000587       -0.18078190077006
H            6.77413694581126       -2.56388254320231       -1.05588592619715
H            5.52935876125807       -1.04178499816165        1.69422213107094
H            3.10234347323867       -1.12273903344123        1.65799412069168
H            2.31147086001845        2.63820142895415        0.26616880612992
H            0.99300394326737        4.69389997201774        0.12051768691529
H           -1.45072349225916        4.56852111239650       -0.28268157062297
H           -2.55737355279737        2.38853902612026       -0.39616278524611
H           -3.11282821147952        1.20162483136284        1.63456202137397
H           -5.53894178009121        1.10148834354668        1.66544714160736
H           -8.97977239239661       -3.60603532127134       -1.44912420825069
H          -10.93424416125869       -5.02444829138760       -2.02355809237486
H          -13.21627237621993       -4.14852248789476       -1.72395937742708
H          -14.73318658710748       -2.35775308031487       -1.07178810309927
H          -15.09453849060200       -0.06794126189687       -0.24891422594561
H          -14.22680952446908        2.05744855083206        0.51138880744261
H          -12.32140343782837        3.53106144876535        1.04213311848367
H          -10.03164051197774        2.71610290569323        0.83707615504958
H           -8.43730915847537        1.54433592293147        2.75760755120009
H           -7.78820442361904        3.75622042902166        3.64877698578067
H           -6.66183331514446        5.39336393404345        2.18488816163021
H           -6.19105370938310        4.82272332085594       -0.16947143659542
H           -6.84288402276934        2.61049823304617       -1.05870700970995
H           -5.48227765485388       -1.54995574275653       -1.68669173683555
H           -3.02303633487564       -1.46003010515352       -1.71139983351111
H           -2.30793545474204       -2.56484778991671        0.27424985248351
H           -0.98908581760718       -4.62105456813497        0.14350771390082
H            1.45560832975227       -4.49778456234265       -0.25487142304487
H            2.56250191052810       -2.31844382204568       -0.37634375078492
H            3.04203169808592        1.51947953977111       -1.70403060852131
H            5.50182498624481        1.58928524096924       -1.67423247982645
H            9.04574430232884        3.59817258948104       -1.42544499610733
H           11.02586279134617        4.97946340834433       -2.00229597823743
H           13.29111606090830        4.05818168935545       -1.71264903635396
H           14.77479997627933        2.23649686685819       -1.06969730662724
H           15.09389535868926       -0.06288806328953       -0.25632785094265
H           14.18694216766582       -2.17465845181474        0.49634482604570
H           12.25468791996077       -3.61409626122860        1.02342068484961
H            9.98060100518850       -2.75401732952970        0.82783079762481
H            8.42395247887603       -1.57248102476358        2.75706730045255
H            7.72543510384149       -3.77486844054820        3.63390561310500

          :  Hamiltonian                  GFN2-xTB          :
         :: gradient norm              0.000154216461 Eh/a0 ::
         :: HOMO-LUMO gap              0.448947176827 eV    ::
         :: SCC energy              -191.008883338495 Eh    ::
         :: -> dispersion             -0.185008466476 Eh    ::
         :: -> Gsolv                  -0.077448303891 Eh    ::
         :: repulsion energy           3.546702083630 Eh    ::

    * Orbital Energies and Occupations

         #    Occupation            Energy/Eh            Energy/eV
      -------------------------------------------------------------
         1        2.0000           -0.6888075             -18.7434
       ...           ...                  ...                  ...
       164        2.0000           -0.4037658             -10.9870
       165        2.0000           -0.3998536             -10.8806
       166        2.0000           -0.3957144             -10.7679
       167        2.0000           -0.3906688             -10.6306
       168        2.0000           -0.3894620             -10.5978
       169        2.0000           -0.3866312             -10.5208
       170        2.0000           -0.3858984             -10.5008
       171        2.0000           -0.3801746             -10.3451
       172        2.0000           -0.3801281             -10.3438
       173        1.9997           -0.3619286              -9.8486
       174        1.9985           -0.3602939              -9.8041
       175        1.0017           -0.3480627              -9.4713
       176        0.9998           -0.2901412              -7.8951 (HOMO)
       177        0.0001           -0.2736424              -7.4462 (LUMO)
       178        0.0001           -0.2731376              -7.4325
       179                         -0.2583715              -7.0306
       180                         -0.2556378              -6.9563
       181                         -0.2433878              -6.6229
       182                         -0.2433572              -6.6221
       183                         -0.2407290              -6.5506
       184                         -0.2406924              -6.5496
       185                         -0.2379952              -6.4762
       186                         -0.2375965              -6.4653
       187                         -0.2275009              -6.1906
       ...                                ...                  ...
       346                          0.7292685              19.8444
      -------------------------------------------------------------
                  HL-Gap            0.0164988 Eh            0.4490 eV

     #   Z          covCN         q      C6AA      α(0)
     1   6 C        2.919    -0.028    28.705     8.786
     2   6 C        2.920    -0.025    28.616     8.772
     3   6 C        2.921    -0.037    28.925     8.820
     4   6 C        2.912     0.067    26.498     8.441
     5   7 N        2.838    -0.055    22.300     7.014
     6   6 C        3.181     0.135    24.652     8.105
     7   6 C        2.972    -0.007    28.187     8.709
     8   6 C        2.918    -0.038    28.954     8.824
     9   6 C        2.922    -0.033    28.826     8.805
    10   6 C        2.972     0.016    27.644     8.624
    11   6 C        2.972    -0.011    28.279     8.723
    12   6 C        2.977     0.008    27.830     8.653
    13   6 C        2.921    -0.038    28.954     8.824
    14   6 C        2.914    -0.032    28.794     8.799
    15   6 C        2.914    -0.032    28.802     8.800
    16   6 C        2.921    -0.038    28.956     8.824
    17   6 C        2.977     0.008    27.836     8.654
    18   6 C        2.972    -0.011    28.279     8.723
    19   6 C        2.972     0.016    27.645     8.624
    20   6 C        2.922    -0.033    28.827     8.805
    21   6 C        2.918    -0.038    28.956     8.824
    22   6 C        2.972    -0.007    28.187     8.709
    23   6 C        3.181     0.135    24.657     8.106
    24   7 N        1.894    -0.318    29.105     7.998
    25   6 C        3.197     0.063    26.081     8.324
    26   6 C        2.978    -0.004    28.117     8.698
    27   6 C        2.919    -0.033    28.829     8.805
    28   6 C        2.914    -0.031    28.777     8.797
    29   6 C        2.921    -0.039    28.963     8.825
    30   6 C        2.983     0.010    27.781     8.646
    31   6 C        2.913    -0.036    28.904     8.816
    32   6 C        2.914    -0.038    28.942     8.822
    33   6 C        2.983     0.011    27.758     8.642
    34   6 C        2.920    -0.039    28.977     8.828
    35   6 C        2.913    -0.032    28.805     8.801
    36   6 C        2.917    -0.043    29.059     8.840
    37   6 C        2.972    -0.006    28.174     8.707
    38   6 C        2.994    -0.005    28.132     8.700
    39   6 C        2.994    -0.007    28.184     8.709
    40   6 C        3.070     0.024    27.398     8.583
    41   7 N        2.838    -0.055    22.300     7.014
    42   6 C        2.912     0.067    26.498     8.441
    43   6 C        2.921    -0.037    28.917     8.818
    44   6 C        2.920    -0.026    28.652     8.778
    45   6 C        2.919    -0.028    28.705     8.786
    46   6 C        2.920    -0.025    28.616     8.772
    47   6 C        2.921    -0.037    28.924     8.819
    48   6 C        2.925    -0.031    28.766     8.796
    49   6 C        2.920    -0.032    28.805     8.801
    50   6 C        2.977     0.008    27.830     8.653
    51   6 C        2.921    -0.038    28.954     8.824
    52   6 C        2.914    -0.032    28.794     8.799
    53   6 C        2.914    -0.032    28.802     8.800
    54   6 C        2.921    -0.038    28.956     8.824
    55   6 C        2.977     0.008    27.836     8.654
    56   6 C        2.920    -0.032    28.806     8.801
    57   6 C        2.925    -0.031    28.765     8.795
    58   7 N        1.894    -0.318    29.105     7.998
    59   6 C        3.198     0.063    26.079     8.324
    60   6 C        2.978    -0.004    28.117     8.698
    61   6 C        2.919    -0.033    28.829     8.805
    62   6 C        2.914    -0.031    28.777     8.797
    63   6 C        2.921    -0.039    28.963     8.825
    64   6 C        2.983     0.010    27.781     8.646
    65   6 C        2.913    -0.036    28.904     8.816
    66   6 C        2.914    -0.038    28.943     8.822
    67   6 C        2.983     0.011    27.758     8.642
    68   6 C        2.920    -0.039    28.978     8.828
    69   6 C        2.913    -0.032    28.805     8.801
    70   6 C        2.917    -0.043    29.059     8.840
    71   6 C        2.972    -0.006    28.173     8.707
    72   6 C        2.994    -0.005    28.132     8.700
    73   6 C        2.994    -0.007    28.185     8.709
    74   6 C        3.070     0.024    27.399     8.583
    75   6 C        2.921    -0.037    28.918     8.819
    76   6 C        2.920    -0.026    28.652     8.778
    77   1 H        0.926     0.048     2.344     2.394
    78   1 H        0.926     0.048     2.349     2.397
    79   1 H        0.926     0.038     2.474     2.459
    80   1 H        0.926     0.029     2.602     2.522
    81   1 H        0.926     0.038     2.472     2.459
    82   1 H        0.926     0.035     2.510     2.478
    83   1 H        0.926     0.031     2.572     2.508
    84   1 H        0.926     0.031     2.572     2.508
    85   1 H        0.926     0.034     2.529     2.487
    86   1 H        0.926     0.038     2.472     2.459
    87   1 H        0.926     0.029     2.601     2.522
    88   1 H        0.926     0.044     2.398     2.422
    89   1 H        0.926     0.034     2.526     2.485
    90   1 H        0.926     0.035     2.516     2.481
    91   1 H        0.926     0.036     2.507     2.476
    92   1 H        0.926     0.035     2.511     2.478
    93   1 H        0.926     0.035     2.523     2.484
    94   1 H        0.926     0.033     2.551     2.497
    95   1 H        0.926     0.030     2.587     2.515
    96   1 H        0.926     0.041     2.431     2.438
    97   1 H        0.926     0.048     2.351     2.398
    98   1 H        0.926     0.048     2.344     2.394
    99   1 H        0.926     0.048     2.348     2.396
   100   1 H        0.926     0.038     2.471     2.458
   101   1 H        0.926     0.046     2.368     2.406
   102   1 H        0.926     0.041     2.436     2.440
   103   1 H        0.926     0.035     2.510     2.478
   104   1 H        0.926     0.031     2.571     2.508
   105   1 H        0.926     0.031     2.571     2.508
   106   1 H        0.926     0.034     2.530     2.487
   107   1 H        0.926     0.041     2.435     2.440
   108   1 H        0.926     0.046     2.371     2.408
   109   1 H        0.926     0.044     2.399     2.422
   110   1 H        0.926     0.034     2.526     2.485
   111   1 H        0.926     0.035     2.516     2.481
   112   1 H        0.926     0.036     2.507     2.476
   113   1 H        0.926     0.035     2.511     2.478
   114   1 H        0.926     0.035     2.523     2.484
   115   1 H        0.926     0.033     2.551     2.497
   116   1 H        0.926     0.030     2.587     2.515
   117   1 H        0.926     0.041     2.431     2.438
   118   1 H        0.926     0.048     2.351     2.398

molecular dipole:
                 x           y           z       tot (Debye)
 q only:       -0.031       0.000       0.881
   full:       -0.037      -0.003       1.137       2.892

 projected vibrational frequencies (cm⁻¹)
eigval :       -0.00    -0.00    -0.00     0.00     0.00     0.00
eigval :        3.41     7.37     8.97    12.36    14.11    21.47
eigval :       26.85    30.36    32.42    39.53    42.13    45.36
eigval :       50.25    55.98    61.33    66.58    73.89    76.43
eigval :       80.14    83.70    90.17    93.30   123.32   124.24
eigval :      126.06   126.71   141.62   150.48   173.56   174.76
eigval :      178.75   186.06   200.97   206.64   209.36   212.64
eigval :      213.16   230.34   231.34   231.87   233.26   261.73
eigval :      265.97   276.89   279.77   282.01   290.85   303.74
eigval :      318.21   345.42   354.95   355.71   357.24   364.71
eigval :      373.91   376.00   376.49   378.22   382.57   385.43
eigval :      395.77   398.54   413.39   417.79   417.99   424.30
eigval :      424.47   426.39   440.26   440.95   446.01   452.84
eigval :      454.01   469.73   471.99   472.48   485.76   489.47
eigval :      489.78   496.97   505.92   517.39   520.70   525.11
eigval :      534.31   535.15   554.78   555.87   569.26   569.78
eigval :      577.93   579.84   581.54   582.96   585.17   591.09
eigval :      597.17   597.50   603.25   616.69   622.80   631.01
eigval :      631.81   639.48   643.42   657.82   661.06   663.16
eigval :      672.15   675.28   677.54   681.37   682.08   688.64
eigval :      691.53   697.35   698.16   701.71   703.88   706.69
eigval :      717.83   719.81   727.00   743.70   750.16   751.55
eigval :      752.08   761.83   763.09   763.68   775.38   776.64
eigval :      777.50   779.30   799.47   800.53   816.42   820.95
eigval :      837.91   839.28   848.41   856.72   862.43   873.25
eigval :      873.90   874.27   878.48   879.20   890.17   891.58
eigval :      892.08   892.27   893.32   895.36   896.76   900.54
eigval :      902.29   903.85   904.79   905.56   906.51   916.80
eigval :      918.14   924.09   924.51   925.38   927.05   927.85
eigval :      928.27   928.58   930.28   931.71   932.38   933.55
eigval :      934.40   936.20   937.03   945.62   955.02   955.82
eigval :      995.05   995.10   998.26  1002.23  1022.85  1024.78
eigval :     1076.75  1076.79  1093.81  1093.86  1102.69  1105.38
eigval :     1107.49  1109.91  1113.14  1113.32  1117.76  1119.67
eigval :     1120.50  1128.77  1136.40  1136.52  1138.70  1140.30
eigval :     1155.92  1156.75  1177.75  1177.80  1179.02  1179.21
eigval :     1179.83  1180.92  1181.31  1183.36  1183.91  1187.78
eigval :     1188.11  1193.71  1200.15  1200.35  1205.41  1211.16
eigval :     1221.00  1221.42  1230.78  1231.20  1232.19  1243.28
eigval :     1243.29  1253.82  1266.66  1270.13  1272.93  1273.15
eigval :     1290.62  1291.91  1297.55  1298.48  1298.81  1306.62
eigval :     1307.54  1309.54  1309.94  1313.90  1316.51  1318.26
eigval :     1321.46  1328.02  1328.50  1337.26  1349.74  1351.09
eigval :     1359.77  1364.90  1373.47  1373.96  1380.33  1384.76
eigval :     1385.18  1394.59  1394.80  1396.81  1397.13  1408.20
eigval :     1410.59  1412.12  1416.24  1418.15  1418.59  1431.38
eigval :     1431.63  1436.73  1441.44  1467.40  1467.52  1469.92
eigval :     1478.38  1478.44  1480.11  1481.11  1494.29  1494.81
eigval :     1499.23  1510.68  1511.28  1525.52  1527.72  1528.03
eigval :     1528.84  1532.73  1533.92  1543.67  1557.30  1557.42
eigval :     1563.32  1571.69  1574.32  1574.56  1580.62  1580.88
eigval :     1584.85  1585.12  1590.21  1590.40  1606.20  1606.50
eigval :     3063.37  3063.77  3067.40  3068.00  3070.24  3070.39
eigval :     3072.41  3072.52  3076.16  3076.33  3076.60  3076.71
eigval :     3078.25  3078.69  3078.87  3079.41  3079.69  3079.70
eigval :     3081.13  3081.23  3082.22  3082.25  3082.37  3082.55
eigval :     3087.87  3088.13  3092.76  3092.79  3093.61  3093.89
eigval :     3097.54  3097.75  3098.62  3098.82  3099.21  3099.57
eigval :     3101.97  3102.05  3102.11  3102.89  3118.84  3119.09

   temp. (K)  partition function   enthalpy   heat capacity  entropy
                                   cal/mol     cal/K/mol   cal/K/mol   J/K/mol
 298.15  VIB  0.203E+28            33901.275    217.318    211.497
         ROT  0.424E+09              888.752      2.981     42.459
         INT  0.859E+36            34790.027    220.299    253.956
         TR   0.289E+29             1481.254      4.968     46.448
         TOT                       36271.2811   225.2670   300.4045  1256.8925

       T/K    H(0)-H(T)+PV         H(T)/Eh          T*S/Eh         G(T)/Eh
   ------------------------------------------------------------------------
    298.15    0.578020E-01    0.950913E+00    0.142732E+00    0.808181E+00
   ------------------------------------------------------------------------

         :::::::::::::::::::::::::::::::::::::::::::::::::::::
         ::                  THERMODYNAMIC                  ::
         :::::::::::::::::::::::::::::::::::::::::::::::::::::
         :: total free energy        -186.654000282617 Eh   ::
         ::.................................................::
         :: total energy             -187.462181261172 Eh   ::
         :: zero point energy           0.893110894385 Eh   ::
         :: G(RRHO) w/o ZPVE           -0.084929915830 Eh   ::
         :: G(RRHO) contrib.            0.808180978555 Eh   ::
         :::::::::::::::::::::::::::::::::::::::::::::::::::::

           -------------------------------------------------
          | TOTAL ENERGY             -187.462181261172 Eh   |
          | TOTAL ENTHALPY           -186.511268401140 Eh   |
          | TOTAL FREE ENERGY        -186.654000282617 Eh   |
          | GRADIENT NORM               0.000154266590 Eh/α |
          | HOMO-LUMO GAP               0.448954200339 eV   |
           -------------------------------------------------

 * finished run on 2025/09/08 at 10:14:08.521
