   * xtb version 6.7.1 (edcfbbe) compiled by 'albert@albert-system' on 2024-07-22

   ID    Z sym.   atoms
    1    6 C      1-4, 6-23, 25-40, 42-57, 59-76
    2    7 N      5, 24, 41, 58
    3    1 H      77-118

          program call               : xtb data2507/toluene/C-BPyIA/C-BPyIA_toluene_S0_finalOpt.xtbopt.xyz --gfn 2 --uhf 2 --gbsa toluene --ohess vtight --parallel 40 --molden --ceasefiles --namespace data2507/toluene/C-BPyIA/C-BPyIA_toluene_T1_preOpt
      * Solvation model:               GBSA
        Solvent                        toluene
        Solvent mass                       9.2140E+01 g/mol
          :  Hamiltonian                  GFN2-xTB          :
 * total energy  :  -187.4525928 Eh     change       -0.6506781E-08 Eh
 * total energy  :  -187.4575444 Eh     change       -0.4951625E-02 Eh
 * total energy  :  -187.4592771 Eh     change       -0.1732637E-02 Eh
 * total energy  :  -187.4594947 Eh     change       -0.2176262E-03 Eh
 * total energy  :  -187.4599273 Eh     change       -0.4326544E-03 Eh
 * total energy  :  -187.4601946 Eh     change       -0.2672466E-03 Eh
 * total energy  :  -187.4604310 Eh     change       -0.2364254E-03 Eh
 * total energy  :  -187.4606957 Eh     change       -0.2646470E-03 Eh
 * total energy  :  -187.4608847 Eh     change       -0.1890304E-03 Eh
 * total energy  :  -187.4610159 Eh     change       -0.1312143E-03 Eh
 * total energy  :  -187.4620793 Eh     change       -0.4400373E-06 Eh
 * total energy  :  -187.4620798 Eh     change       -0.4911321E-06 Eh
 * total energy  :  -187.4620804 Eh     change       -0.6104010E-06 Eh
 * total energy  :  -187.4620811 Eh     change       -0.6556194E-06 Eh
 * total energy  :  -187.4620818 Eh     change       -0.7182909E-06 Eh
 * total energy  :  -187.4620826 Eh     change       -0.7400774E-06 Eh
 * total energy  :  -187.4620833 Eh     change       -0.7825554E-06 Eh
 * total energy  :  -187.4620842 Eh     change       -0.8635287E-06 Eh
 * total energy  :  -187.4620842 Eh     change       -0.4708085E-08 Eh
   *** GEOMETRY OPTIMIZATION CONVERGED AFTER 68 ITERATIONS ***

 final structure:
================
118
 xtb: 6.7.1 (edcfbbe)
C            6.87628194810122       -4.41372607462417        1.92587647102529
C            6.64404852581423       -4.13620374819037        0.58872594022185
C            7.02732743135636       -2.91910063608692        0.05308083391622
C            7.64511601395116       -1.97530351400660        0.86508347727808
N            8.01448239139572       -0.72315197590452        0.32481515825082
C            7.14290024706873        0.24931619034541       -0.12129453512812
C            5.70042712115740        0.17741996970667       -0.07610412759290
C            4.98312266939665       -0.56229033293377        0.87053186295700
C            3.60847849031268       -0.59702725912044        0.83795717122330
C            2.87870541021152        0.12720469108558       -0.11633349519030
C            1.42738637733843        0.07837206956682       -0.13942254253824
C            0.66663650094857        1.28808789012495       -0.12112694196502
C            1.27770935218173        2.54199385444578        0.00233995136497
C            0.54407523966745        3.71945988384687       -0.07138524386044
C           -0.82088948096970        3.66565295663781       -0.27747884453996
C           -1.46254288722397        2.43450277613289       -0.33138809960200
C           -0.75762336833834        1.23302817138672       -0.19023334302731
C           -1.42618208398904       -0.03041809768351       -0.14968792886583
C           -2.87712604267480       -0.07980177743300       -0.13543707385469
C           -3.61406411571876        0.65701194891162        0.80383891339432
C           -4.98853488121920        0.61635907848274        0.83231988344884
C           -5.69984278911088       -0.14208488116806       -0.10427454709529
C           -7.14108146193317       -0.22843056554969       -0.14977725381019
N           -7.76853105165431       -1.27455042032433       -0.64623871888334
C           -9.09189048361691       -1.01832051160414       -0.51864243218792
C          -10.18315073065764       -1.85692020976389       -0.88891281296264
C          -10.01045700479173       -3.11671717078127       -1.45169550747094
C          -11.11102210386628       -3.89137142422299       -1.77915471985798
C          -12.38780937542970       -3.41866643411453       -1.55062096164254
C          -12.59876347485896       -2.15414378115052       -0.99110356191257
C          -13.91199802849601       -1.65107301804928       -0.76091932339922
C          -14.10355621856627       -0.41801597995924       -0.24028669713259
C          -13.00328053779643        0.42228029061530        0.10191449723303
C          -13.21120145715645        1.70559701273484        0.61712897251362
C          -12.14136882210318        2.51978162921703        0.92362318833396
C          -10.84301751275477        2.07172525079969        0.74890793576203
C          -10.58628500874477        0.78947874414939        0.26341590299916
C          -11.68221614512929       -0.05218103342516       -0.09234990039022
C          -11.48428158485627       -1.34824374401944       -0.64859466012219
C           -9.28842824870873        0.23787336788100        0.06450386714395
N           -8.02572764813256        0.72886832023666        0.30408377759923
C           -7.67667441322493        1.98412284742022        0.85117613705272
C           -7.89789586165345        2.24194066099109        2.20114140586598
C           -7.53530224896055        3.46704920423556        2.73130163016982
C           -6.95132801561490        4.43062992476975        1.92382430057472
C           -6.73086458072364        4.17060400579403        0.58117477646977
C           -7.09249133081198        2.94943643682863        0.03963585201190
C           -4.96918982246116       -0.89381741079350       -1.03608510006690
C           -3.59617982590661       -0.86978701608303       -1.04735801599965
C           -0.66532334896984       -1.24000371294033       -0.11324451232260
C           -1.27666524660929       -2.49268167690938        0.02011223012557
C           -0.54224830266612       -3.67068101268392       -0.03617307780573
C            0.82419404078034       -3.61879092752864       -0.23265637696165
C            1.46596042983365       -2.38813907194522       -0.29417432360353
C            0.75943082378092       -1.18538129214361       -0.17214558362807
C            3.60385185392790        0.90177040861586       -1.03613939392682
C            4.97713409243902        0.92012170560941       -1.02018081145232
N            7.78326199048830        1.28973841241713       -0.61207537030700
C            9.10351454762937        1.01404027833717       -0.48868116212041
C           10.20556041543206        1.83952552306207       -0.85627897467353
C           10.04935643455037        3.10646364983243       -1.40779177247351
C           11.16000478503366        3.86720317253742       -1.73371669517368
C           12.43055045919021        3.37326146994665       -1.51539062532809
C           12.62489992948480        2.10104652366393       -0.96750283527357
C           13.93140099172513        1.57586421690057       -0.74862541503734
C           14.10663175786271        0.33569546599793       -0.23928513968419
C           12.99533588963637       -0.49025533511276        0.10222429197701
C           13.18609532656651       -1.78074937288444        0.60594600368664
C           12.10545749366612       -2.58088147279623        0.91148487266577
C           10.81325757957410       -2.11140734580378        0.74752274362290
C           10.57387425641844       -0.82140623315277        0.27395203906556
C           11.68073477997808        0.00612575072199       -0.08093813771524
C           11.49992705063519        1.30945379923572       -0.62591246107439
C            9.28356817013386       -0.24868982500038        0.08531484696998
C            7.87782280621799       -2.25052030741538        2.20959969244127
C            7.49381022315184       -3.47168183847155        2.73374535044068
H            6.57595779276671       -5.36418240066587        2.33997197372136
H            6.16441522661845       -4.86903770155828       -0.04234178089244
H            6.84940537328733       -2.68993855449089       -0.98745237163777
H            5.49999591163581       -1.09170011733337        1.65537755223538
H            3.07357257686839       -1.15539937603099        1.59264568019063
H            2.34285893935164        2.59859709498996        0.16545547470824
H            1.04919399218709        4.66998976158419        0.01762082331763
H           -1.39636277396017        4.57366736765076       -0.38133477171002
H           -2.52951928321934        2.40699044138626       -0.49088217524579
H           -3.08484707893836        1.22924796330921        1.55210088589347
H           -5.50978091625220        1.15542912614691        1.60743583889016
H           -9.00525302452409       -3.47102575623542       -1.62128141700355
H          -10.96836025006379       -4.86992561567428       -2.21458583528320
H          -13.24513165478510       -4.02483467249280       -1.80719188541131
H          -14.75192001071836       -2.28012507621328       -1.02001461655238
H          -15.10119233031737       -0.03671262929433       -0.07353483525116
H          -14.22299745487768        2.05569847647552        0.76259461880309
H          -12.31084687875623        3.51666772930692        1.30425284715939
H          -10.02404617996483        2.73060092132666        0.98715024942669
H           -8.35193674284945        1.48134649165102        2.82014568306574
H           -7.70684331837123        3.66681610365008        3.77833734115834
H           -6.66789433682399        5.38422142447332        2.34257168618589
H           -6.27746921277099        4.92024417389831       -0.04956173222993
H           -6.92339557243313        2.73371398248173       -1.00521531872856
H           -5.51629939414858       -1.48533139859216       -1.75397930841409
H           -3.05630899630656       -1.42735669588198       -1.79879839502192
H           -2.34278736125503       -2.54828609326025        0.17690900985418
H           -1.04788987597282       -4.62032644977599        0.05908335296675
H            1.40056213008675       -4.52772621242787       -0.32255360397476
H            2.53426494826770       -2.36182885459944       -0.44478298337118
H            3.06920179655220        1.45102224279803       -1.79732096480332
H            5.52946011295182        1.49874531184584       -1.74461446211596
H            9.04882097584309        3.47715922220354       -1.56984022868023
H           11.03026113900482        4.85140854931970       -2.16032857859555
H           13.29575856332472        3.96843858244680       -1.77121444803870
H           14.77958789260629        2.19397036322646       -1.00716948088153
H           15.09911528574375       -0.06244100855651       -0.08134679553902
H           14.19310966723905       -2.14755850119144        0.74312782938811
H           12.26156451298351       -3.58338706003970        1.28296101290201
H            9.98542742759995       -2.75967946618804        0.98433539032967
H            8.35763294558372       -1.50640361262610        2.82921263619703
H            7.67481983401383       -3.68503204514816        3.77651148126064

          :  Hamiltonian                  GFN2-xTB          :
         :: gradient norm              0.000056243333 Eh/a0 ::
         :: HOMO-LUMO gap              0.446058465007 eV    ::
         :: SCC energy              -191.009062331444 Eh    ::
         :: -> dispersion             -0.184817250423 Eh    ::
         :: -> Gsolv                  -0.077427317297 Eh    ::
         :: repulsion energy           3.546978122989 Eh    ::

    * Orbital Energies and Occupations

         #    Occupation            Energy/Eh            Energy/eV
      -------------------------------------------------------------
         1        2.0000           -0.6887174             -18.7410
       ...           ...                  ...                  ...
       164        2.0000           -0.4038436             -10.9891
       165        2.0000           -0.3998094             -10.8794
       166        2.0000           -0.3957046             -10.7677
       167        2.0000           -0.3906021             -10.6288
       168        2.0000           -0.3894577             -10.5977
       169        2.0000           -0.3865435             -10.5184
       170        2.0000           -0.3857592             -10.4970
       171        2.0000           -0.3800460             -10.3416
       172        2.0000           -0.3799919             -10.3401
       173        1.9997           -0.3618963              -9.8477
       174        1.9985           -0.3602128              -9.8019
       175        1.0017           -0.3479844              -9.4691
       176        0.9998           -0.2900288              -7.8921 (HOMO)
       177        0.0001           -0.2736363              -7.4460 (LUMO)
       178        0.0001           -0.2731070              -7.4316
       179                         -0.2586305              -7.0377
       180                         -0.2558615              -6.9623
       181                         -0.2434651              -6.6250
       182                         -0.2434040              -6.6234
       183                         -0.2408362              -6.5535
       184                         -0.2407609              -6.5514
       185                         -0.2380965              -6.4789
       186                         -0.2377024              -6.4682
       187                         -0.2273842              -6.1874
       ...                                ...                  ...
       346                          0.7293878              19.8477
      -------------------------------------------------------------
                  HL-Gap            0.0163925 Eh            0.4461 eV

     #   Z          covCN         q      C6AA      α(0)
     1   6 C        2.919    -0.028    28.705     8.786
     2   6 C        2.920    -0.024    28.615     8.772
     3   6 C        2.921    -0.037    28.923     8.819
     4   6 C        2.912     0.067    26.496     8.441
     5   7 N        2.838    -0.055    22.303     7.014
     6   6 C        3.180     0.135    24.662     8.107
     7   6 C        2.973    -0.007    28.188     8.709
     8   6 C        2.918    -0.039    28.962     8.825
     9   6 C        2.922    -0.033    28.826     8.805
    10   6 C        2.973     0.016    27.645     8.624
    11   6 C        2.972    -0.011    28.279     8.723
    12   6 C        2.977     0.008    27.830     8.653
    13   6 C        2.921    -0.038    28.955     8.824
    14   6 C        2.914    -0.032    28.793     8.799
    15   6 C        2.914    -0.032    28.802     8.800
    16   6 C        2.921    -0.038    28.955     8.824
    17   6 C        2.977     0.008    27.837     8.654
    18   6 C        2.972    -0.011    28.278     8.723
    19   6 C        2.973     0.016    27.646     8.625
    20   6 C        2.922    -0.033    28.828     8.805
    21   6 C        2.918    -0.039    28.969     8.826
    22   6 C        2.972    -0.007    28.190     8.709
    23   6 C        3.179     0.135    24.672     8.109
    24   7 N        1.895    -0.318    29.103     7.998
    25   6 C        3.196     0.063    26.085     8.326
    26   6 C        2.978    -0.004    28.118     8.698
    27   6 C        2.919    -0.033    28.827     8.805
    28   6 C        2.914    -0.031    28.777     8.797
    29   6 C        2.921    -0.039    28.962     8.825
    30   6 C        2.983     0.010    27.781     8.646
    31   6 C        2.913    -0.036    28.904     8.816
    32   6 C        2.914    -0.038    28.942     8.822
    33   6 C        2.983     0.011    27.758     8.642
    34   6 C        2.920    -0.039    28.977     8.828
    35   6 C        2.913    -0.032    28.805     8.801
    36   6 C        2.917    -0.043    29.059     8.840
    37   6 C        2.972    -0.006    28.176     8.707
    38   6 C        2.994    -0.005    28.131     8.700
    39   6 C        2.994    -0.007    28.184     8.709
    40   6 C        3.070     0.024    27.393     8.582
    41   7 N        2.838    -0.055    22.306     7.015
    42   6 C        2.912     0.067    26.494     8.440
    43   6 C        2.921    -0.037    28.916     8.818
    44   6 C        2.920    -0.026    28.651     8.778
    45   6 C        2.919    -0.028    28.704     8.786
    46   6 C        2.920    -0.024    28.615     8.772
    47   6 C        2.921    -0.037    28.922     8.819
    48   6 C        2.925    -0.031    28.770     8.796
    49   6 C        2.920    -0.032    28.806     8.801
    50   6 C        2.977     0.008    27.830     8.653
    51   6 C        2.921    -0.038    28.955     8.824
    52   6 C        2.914    -0.032    28.794     8.799
    53   6 C        2.914    -0.032    28.802     8.800
    54   6 C        2.921    -0.038    28.956     8.824
    55   6 C        2.977     0.008    27.837     8.654
    56   6 C        2.920    -0.032    28.805     8.801
    57   6 C        2.925    -0.031    28.768     8.796
    58   7 N        1.894    -0.318    29.105     7.998
    59   6 C        3.197     0.063    26.082     8.325
    60   6 C        2.978    -0.004    28.118     8.698
    61   6 C        2.919    -0.033    28.829     8.805
    62   6 C        2.914    -0.031    28.777     8.797
    63   6 C        2.921    -0.039    28.963     8.825
    64   6 C        2.983     0.010    27.781     8.646
    65   6 C        2.913    -0.036    28.904     8.816
    66   6 C        2.914    -0.038    28.943     8.822
    67   6 C        2.983     0.011    27.758     8.642
    68   6 C        2.920    -0.039    28.978     8.828
    69   6 C        2.913    -0.032    28.805     8.801
    70   6 C        2.917    -0.043    29.060     8.840
    71   6 C        2.972    -0.006    28.175     8.707
    72   6 C        2.994    -0.005    28.132     8.700
    73   6 C        2.994    -0.007    28.185     8.709
    74   6 C        3.070     0.024    27.397     8.582
    75   6 C        2.921    -0.037    28.917     8.818
    76   6 C        2.920    -0.026    28.651     8.778
    77   1 H        0.926     0.048     2.344     2.394
    78   1 H        0.926     0.048     2.348     2.396
    79   1 H        0.926     0.038     2.471     2.458
    80   1 H        0.926     0.029     2.599     2.521
    81   1 H        0.926     0.038     2.475     2.460
    82   1 H        0.926     0.035     2.512     2.479
    83   1 H        0.926     0.031     2.572     2.508
    84   1 H        0.926     0.031     2.573     2.508
    85   1 H        0.926     0.034     2.530     2.487
    86   1 H        0.926     0.038     2.476     2.461
    87   1 H        0.926     0.029     2.597     2.520
    88   1 H        0.926     0.044     2.398     2.422
    89   1 H        0.926     0.034     2.525     2.485
    90   1 H        0.926     0.035     2.516     2.480
    91   1 H        0.926     0.036     2.507     2.476
    92   1 H        0.926     0.035     2.511     2.478
    93   1 H        0.926     0.035     2.522     2.484
    94   1 H        0.926     0.033     2.550     2.497
    95   1 H        0.926     0.030     2.588     2.516
    96   1 H        0.926     0.041     2.431     2.438
    97   1 H        0.926     0.048     2.350     2.397
    98   1 H        0.926     0.048     2.344     2.394
    99   1 H        0.926     0.048     2.347     2.396
   100   1 H        0.926     0.039     2.469     2.457
   101   1 H        0.926     0.047     2.358     2.401
   102   1 H        0.926     0.041     2.437     2.441
   103   1 H        0.926     0.035     2.511     2.478
   104   1 H        0.926     0.031     2.572     2.508
   105   1 H        0.926     0.031     2.572     2.508
   106   1 H        0.926     0.034     2.532     2.488
   107   1 H        0.926     0.041     2.437     2.441
   108   1 H        0.926     0.047     2.363     2.404
   109   1 H        0.926     0.044     2.399     2.422
   110   1 H        0.926     0.034     2.526     2.485
   111   1 H        0.926     0.035     2.516     2.481
   112   1 H        0.926     0.036     2.507     2.476
   113   1 H        0.926     0.035     2.511     2.478
   114   1 H        0.926     0.035     2.523     2.484
   115   1 H        0.926     0.033     2.551     2.498
   116   1 H        0.926     0.030     2.588     2.515
   117   1 H        0.926     0.041     2.431     2.438
   118   1 H        0.926     0.048     2.351     2.398

molecular dipole:
                 x           y           z       tot (Debye)
 q only:       -0.037      -0.001       0.970
   full:       -0.041      -0.003       1.261       3.208

 projected vibrational frequencies (cm⁻¹)
eigval :       -0.00    -0.00    -0.00    -0.00     0.00     0.00
eigval :       -6.73    -1.77     8.48    13.47    15.13    17.51
eigval :       24.29    31.98    32.13    38.69    41.22    43.92
eigval :       49.02    56.67    60.72    65.67    73.37    76.84
eigval :       80.22    82.84    88.85    93.57   121.48   121.65
eigval :      124.43   125.14   141.29   150.61   172.41   173.21
eigval :      178.31   186.08   200.67   205.82   208.65   211.13
eigval :      213.29   229.80   231.61   232.03   232.95   261.64
eigval :      265.25   274.56   277.52   281.93   291.23   303.31
eigval :      318.06   345.44   354.76   354.86   356.72   367.38
eigval :      374.10   375.48   376.14   377.69   381.99   385.67
eigval :      395.35   398.72   412.91   417.36   417.92   424.65
eigval :      426.60   427.04   440.47   441.14   446.61   450.90
eigval :      451.19   468.46   470.79   472.60   486.14   489.18
eigval :      489.37   497.36   505.66   516.75   520.51   525.02
eigval :      532.92   533.33   553.70   554.35   569.15   570.23
eigval :      577.86   580.20   581.46   582.84   585.12   591.17
eigval :      597.26   597.56   603.47   616.99   623.02   631.08
eigval :      631.88   639.33   643.33   657.36   660.50   662.09
eigval :      673.38   675.97   677.22   680.27   680.58   688.61
eigval :      690.86   696.98   697.13   700.48   702.99   706.56
eigval :      718.63   720.48   726.58   743.78   750.22   750.36
eigval :      750.70   761.79   762.68   762.92   771.65   772.69
eigval :      777.23   779.14   796.72   797.25   816.43   821.01
eigval :      836.84   837.05   848.82   856.80   862.50   872.66
eigval :      873.18   873.72   877.00   877.33   888.59   888.63
eigval :      892.04   892.16   893.99   895.39   896.84   900.22
eigval :      901.29   902.46   904.79   905.22   906.18   914.08
eigval :      915.45   918.06   920.78   923.61   923.67   925.51
eigval :      927.10   927.38   929.32   930.93   931.16   932.28
eigval :      933.77   935.81   937.62   945.86   954.90   955.71
eigval :      994.89   995.03   998.33  1002.41  1022.48  1024.50
eigval :     1076.87  1076.98  1093.80  1093.85  1103.86  1106.82
eigval :     1108.45  1108.98  1113.53  1113.64  1117.98  1119.58
eigval :     1119.93  1129.16  1135.96  1136.05  1138.22  1140.39
eigval :     1155.61  1156.22  1177.16  1177.27  1178.79  1178.87
eigval :     1180.44  1182.23  1182.25  1183.19  1183.40  1187.96
eigval :     1188.09  1194.45  1199.34  1199.58  1205.73  1211.57
eigval :     1220.77  1221.23  1230.86  1231.29  1234.21  1243.51
eigval :     1243.53  1255.25  1267.01  1270.47  1273.31  1273.32
eigval :     1291.24  1292.06  1297.64  1298.22  1298.60  1306.67
eigval :     1307.86  1309.12  1309.52  1314.34  1316.67  1318.13
eigval :     1321.85  1327.86  1328.43  1337.67  1349.75  1351.37
eigval :     1360.00  1365.25  1373.41  1373.91  1380.66  1384.79
eigval :     1385.19  1394.40  1394.65  1396.58  1396.75  1408.21
eigval :     1411.05  1412.43  1416.67  1418.23  1418.55  1431.20
eigval :     1431.29  1435.91  1440.86  1467.42  1467.49  1470.13
eigval :     1478.37  1478.44  1479.88  1480.98  1493.27  1494.07
eigval :     1499.67  1510.33  1511.20  1525.53  1527.61  1527.93
eigval :     1529.14  1532.27  1533.56  1543.54  1556.95  1557.25
eigval :     1563.41  1571.86  1574.19  1574.53  1580.41  1580.58
eigval :     1584.86  1585.12  1590.03  1590.16  1606.13  1606.45
eigval :     3063.38  3063.38  3067.13  3067.60  3069.65  3070.14
eigval :     3073.14  3073.23  3076.05  3076.18  3076.37  3076.52
eigval :     3078.34  3078.45  3078.61  3079.06  3079.60  3079.94
eigval :     3081.44  3081.64  3081.84  3081.97  3082.10  3082.40
eigval :     3087.53  3087.72  3092.28  3092.49  3093.55  3093.84
eigval :     3097.40  3097.64  3099.03  3099.29  3099.39  3099.97
eigval :     3101.40  3101.64  3104.14  3106.38  3119.26  3119.43

   temp. (K)  partition function   enthalpy   heat capacity  entropy
                                   cal/mol     cal/K/mol   cal/K/mol   J/K/mol
 298.15  VIB  0.611E+28            33954.529    217.336    212.712
         ROT  0.425E+09              888.752      2.981     42.464
         INT  0.260E+37            34843.281    220.317    255.177
         TR   0.289E+29             1481.254      4.968     46.448
         TOT                       36324.5351   225.2855   301.6253  1262.0002

       T/K    H(0)-H(T)+PV         H(T)/Eh          T*S/Eh         G(T)/Eh
   ------------------------------------------------------------------------
    298.15    0.578868E-01    0.950753E+00    0.143312E+00    0.807442E+00
   ------------------------------------------------------------------------

         :::::::::::::::::::::::::::::::::::::::::::::::::::::
         ::                  THERMODYNAMIC                  ::
         :::::::::::::::::::::::::::::::::::::::::::::::::::::
         :: total free energy        -186.654642681405 Eh   ::
         ::.................................................::
         :: total energy             -187.462084214194 Eh   ::
         :: zero point energy           0.892866607689 Eh   ::
         :: G(RRHO) w/o ZPVE           -0.085425074901 Eh   ::
         :: G(RRHO) contrib.            0.807441532788 Eh   ::
         :::::::::::::::::::::::::::::::::::::::::::::::::::::

           -------------------------------------------------
          | TOTAL ENERGY             -187.462084214194 Eh   |
          | TOTAL ENTHALPY           -186.511330775155 Eh   |
          | TOTAL FREE ENERGY        -186.654642681405 Eh   |
          | GRADIENT NORM               0.000056245914 Eh/α |
          | HOMO-LUMO GAP               0.446062202640 eV   |
           -------------------------------------------------

 * finished run on 2025/09/08 at 10:03:13.047
