   * xtb version 6.7.1 (edcfbbe) compiled by 'albert@albert-system' on 2024-07-22

   ID    Z sym.   atoms
    1    6 C      1-4, 6-23, 25-40, 42-57, 59-76
    2    7 N      5, 24, 41, 58
    3    1 H      77-118

          program call               : xtb data2507/toluene/C-BPyIA/C-BPyIA.xyz --gfn 2 --gbsa toluene --ohess vtight --parallel 40 --molden --ceasefiles --namespace data2507/toluene/C-BPyIA/C-BPyIA_toluene_S0_preOpt
      * Solvation model:               GBSA
        Solvent                        toluene
        Solvent mass                       9.2140E+01 g/mol
          :  Hamiltonian                  GFN2-xTB          :
 * total energy  :  -187.4936781 Eh     change       -0.3441755E-08 Eh
 * total energy  :  -187.5152320 Eh     change       -0.2155388E-01 Eh
 * total energy  :  -187.5211754 Eh     change       -0.5943485E-02 Eh
 * total energy  :  -187.5223846 Eh     change       -0.1209143E-02 Eh
 * total energy  :  -187.5232607 Eh     change       -0.8761536E-03 Eh
 * total energy  :  -187.5237705 Eh     change       -0.5098056E-03 Eh
 * total energy  :  -187.5243139 Eh     change       -0.5433676E-03 Eh
 * total energy  :  -187.5249550 Eh     change       -0.6411030E-03 Eh
 * total energy  :  -187.5255188 Eh     change       -0.5638181E-03 Eh
 * total energy  :  -187.5259892 Eh     change       -0.4703964E-03 Eh
 * total energy  :  -187.5286392 Eh     change       -0.1938413E-06 Eh
 * total energy  :  -187.5286393 Eh     change       -0.1746731E-06 Eh
 * total energy  :  -187.5286395 Eh     change       -0.1642772E-06 Eh
 * total energy  :  -187.5286397 Eh     change       -0.1678972E-06 Eh
 * total energy  :  -187.5286398 Eh     change       -0.1735830E-06 Eh
 * total energy  :  -187.5286400 Eh     change       -0.1591674E-06 Eh
 * total energy  :  -187.5286401 Eh     change       -0.1354805E-06 Eh
 * total energy  :  -187.5286402 Eh     change       -0.1038859E-06 Eh
 * total energy  :  -187.5286403 Eh     change       -0.8549603E-07 Eh
   *** GEOMETRY OPTIMIZATION CONVERGED AFTER 87 ITERATIONS ***

 final structure:
================
118
 xtb: 6.7.1 (edcfbbe)
C            6.63572175304452       -3.99651034230806        2.15597966772625
C            6.35784330089164       -3.78767394330193        0.81523295565438
C            6.81144644476111       -2.64521791260276        0.17952944059276
C            7.54708082525537       -1.70706462881293        0.89356713674176
N            7.97410507147050       -0.52301460803547        0.25378968423837
C            7.13321088287416        0.43306247888644       -0.26837847382026
C            5.68074213372018        0.35935816091336       -0.22195046592262
C            4.99166096651991       -0.10944727969133        0.89519246152373
C            3.61256575486155       -0.17701996272860        0.88538790770013
C            2.88635300293050        0.22801058100105       -0.23144588342926
C            1.41180559551444        0.12909980459645       -0.24160392538824
C            0.63106568197258        1.29431809572296       -0.23823487084193
C            1.21734166111613        2.58733099087649       -0.19415944121174
C            0.45100287533941        3.71176463872384       -0.21895777097894
C           -0.95302273246037        3.61337093108767       -0.29474984684112
C           -1.55563075652030        2.39319030111638       -0.31226294763267
C           -0.79535906309287        1.19440502263751       -0.26100295183411
C           -1.40651863399998       -0.06823275691994       -0.24844713462364
C           -2.88090671623899       -0.16935676658454       -0.24524531355974
C           -3.61349442443411        0.23705666424008        0.86681766959923
C           -4.99205993345991        0.15904899357002        0.87288732507283
C           -5.67422377244673       -0.32162748574668       -0.24346203098098
C           -7.12546621530120       -0.41507307632181       -0.29020260855952
N           -7.76884342984770       -1.41897080086008       -0.83465913461044
C           -9.09134099901503       -1.14837452247793       -0.66992273637182
C          -10.20153477723659       -1.95160517470865       -1.06089342405889
C          -10.05988242070812       -3.18548435865351       -1.68657592934041
C          -11.17854569718524       -3.92845437355960       -2.02440128084254
C          -12.44340669006243       -3.44958223417324       -1.74573016176266
C          -12.62334858250858       -2.21043687554047       -1.12361513724569
C          -13.92391380203494       -1.69910594805968       -0.84253829409349
C          -14.08614947417697       -0.48802721605841       -0.26431470203546
C          -12.96627320559984        0.32009207522250        0.09266429517844
C          -13.14246465561298        1.58306479433888        0.66528470713465
C          -12.05368401174187        2.36685833619862        0.98373120909535
C          -10.76623915972651        1.90456446853256        0.76793690336991
C          -10.54177594700611        0.63935725804271        0.22785986569043
C          -11.65681185777388       -0.16652226397707       -0.14711369532279
C          -11.48973455433418       -1.43750414107170       -0.76780136513243
C           -9.25645818972494        0.07289153199970       -0.01512567216559
N           -7.98057959429886        0.52761239849027        0.23311016428102
C           -7.57040779524220        1.72176372101942        0.86523864506083
C           -7.84276861584296        1.92923573638575        2.21408043826416
C           -7.40447484959300        3.08751539408873        2.83017179381645
C           -6.69163147567369        4.03338863884147        2.11025511494672
C           -6.41742345475530        3.82203015352971        0.76914005739038
C           -6.85469465341095        2.66842952644069        0.14220343336741
C           -4.94046500717417       -0.75609539035384       -1.34754006446480
C           -3.56288059029670       -0.67803055831680       -1.34854271589737
C           -0.62585996107496       -1.23348084086851       -0.23442026088117
C           -1.21242329873300       -2.52620916451213       -0.18542812245925
C           -0.44614013130208       -3.65084500392108       -0.20002492379102
C            0.95814564238946       -3.55291392694713       -0.27062600142170
C            1.56081212433485       -2.33284500273357       -0.29235773282848
C            0.80058359113799       -1.13367663056660       -0.25066155484717
C            3.57531356919812        0.72836967971467       -1.33417713874955
C            4.95346067965683        0.79631574565640       -1.32929780000235
N            7.79158441892994        1.42582954371727       -0.81517444547225
C            9.10998849346895        1.13381434600976       -0.65335668504031
C           10.23256736547124        1.91817852038275       -1.04741345807502
C           10.11032368744410        3.15441212556007       -1.67253779628578
C           11.24047918202351        3.87871613477903       -2.01262711995601
C           12.49779545655993        3.37845892320911       -1.73745366525653
C           12.65832621077367        2.13597698593499       -1.11669015984052
C           13.95081366754859        1.60214834866569       -0.84020902188289
C           14.09416912800410        0.38766889626191       -0.26413510856563
C           12.96175727194767       -0.40142170780485        0.09578965413877
C           13.11801517709014       -1.66814902132766        0.66590549281759
C           12.01693514460473       -2.43336256612499        0.98725199421134
C           10.73695712924408       -1.94820684526375        0.77728639883982
C           10.53266624226363       -0.67845707656943        0.23987483241717
C           11.66010794587328        0.10822327786375       -0.13858121309676
C           11.51273399060666        1.38229133882044       -0.75793945873168
C            9.25656178418398       -0.08956666427367        0.00185034800536
C            7.82369374854154       -1.91219105616902        2.24190769214379
C            7.36923402959772       -3.05953285911903        2.86667229317883
H            6.27994722880532       -4.88858469854396        2.64859423746384
H            5.78667941688623       -4.51566195080568        0.25928423254731
H            6.59911105165507       -2.47128699931193       -0.86526249035922
H            5.53054940834225       -0.40710170066835        1.78190423834397
H            3.08668767592765       -0.54137336608190        1.75615308152158
H            2.29300310334726        2.66428827400110       -0.13911107679028
H            0.91338467396311        4.68762927076225       -0.18556462180033
H           -1.54543622387521        4.51598466080111       -0.33417572799571
H           -2.63153267326983        2.31893668433151       -0.36719093441991
H           -3.09295438610456        0.60908196316373        1.73754121673573
H           -5.53564934832940        0.45640923955979        1.75678768437741
H           -9.06387879557526       -3.54539029615828       -1.89487598202210
H          -11.06014858030834       -4.88760663728451       -2.50778363445438
H          -13.31470578697097       -4.03149227344293       -2.01139453553362
H          -14.77849324954741       -2.30362371524835       -1.11217276259375
H          -15.07435515508673       -0.09966356858997       -0.06130720362192
H          -14.14529047023349        1.94317312036042        0.84497068177495
H          -12.19950498581697        3.35062898311021        1.40612100100868
H           -9.93113707911072        2.53988687082198        1.01556456902952
H           -8.39551884743479        1.18284671458143        2.76650298441830
H           -7.61772219637760        3.24784023194532        3.87636132493280
H           -6.34892499335538        4.93427396284353        2.59606000693265
H           -5.86207307587054        4.55674616985602        0.20606056023128
H           -6.64509520294935        2.49241614587133       -0.90279889928621
H           -5.47183898374151       -1.14852739555331       -2.20124838132591
H           -3.00331856340672       -1.00370467894110       -2.21359479126868
H           -2.28830420989489       -2.60293656224979       -0.13478588181420
H           -0.90879105991447       -4.62643491558704       -0.16273500281213
H            1.55071681603685       -4.45570849969589       -0.30276493232643
H            2.63682448968299       -2.25899035344669       -0.34365927526889
H            3.02094295720519        1.05409255455698       -2.20254145898810
H            5.49027294533733        1.18073099543405       -2.18326141889568
H            9.12011658851507        3.53116879099023       -1.87858421801346
H           11.13683992858219        4.84006699322641       -2.49503389763801
H           13.37813017822806        3.94567896934952       -2.00508103827020
H           14.81478784956419        2.19219624046277       -1.11197168658285
H           15.07622862311534       -0.01791670558727       -0.06503326871580
H           14.11508690494533       -2.04593693546607        0.84124705127618
H           12.14709673184047       -3.42022801637321        1.40750457016560
H            9.89179725873974       -2.56921715723641        1.02715400171181
H            8.39255116328902       -1.17258986501206        2.78705474366238
H            7.58579337169933       -3.21803312056268        3.91245899865444

          :  Hamiltonian                  GFN2-xTB          :
         :: gradient norm              0.000026677184 Eh/a0 ::
         :: HOMO-LUMO gap              2.058618226688 eV    ::
         :: SCC energy              -191.095652050240 Eh    ::
         :: -> dispersion             -0.185295976671 Eh    ::
         :: -> Gsolv                  -0.077938446851 Eh    ::
         :: repulsion energy           3.567011720742 Eh    ::

    * Orbital Energies and Occupations

         #    Occupation            Energy/Eh            Energy/eV
      -------------------------------------------------------------
         1        2.0000           -0.6890819             -18.7509
       ...           ...                  ...                  ...
       163        2.0000           -0.4044085             -11.0045
       164        2.0000           -0.4039737             -10.9927
       165        2.0000           -0.4014517             -10.9241
       166        2.0000           -0.3994519             -10.8696
       167        2.0000           -0.3908826             -10.6365
       168        2.0000           -0.3898656             -10.6088
       169        2.0000           -0.3862949             -10.5116
       170        2.0000           -0.3861123             -10.5067
       171        2.0000           -0.3805525             -10.3554
       172        2.0000           -0.3805432             -10.3551
       173        2.0000           -0.3617509              -9.8437
       174        2.0000           -0.3600818              -9.7983
       175        2.0000           -0.3574112              -9.7257 (HOMO)
       176                         -0.2817584              -7.6670 (LUMO)
       177                         -0.2725842              -7.4174
       178                         -0.2723674              -7.4115
       179                         -0.2559518              -6.9648
       180                         -0.2550077              -6.9391
       181                         -0.2430685              -6.6142
       182                         -0.2430518              -6.6138
       183                         -0.2404937              -6.5442
       184                         -0.2404818              -6.5438
       185                         -0.2371198              -6.4524
       186                         -0.2370047              -6.4492
       ...                                ...                  ...
       346                          0.7300035              19.8644
      -------------------------------------------------------------
                  HL-Gap            0.0756528 Eh            2.0586 eV

     #   Z          covCN         q      C6AA      α(0)
     1   6 C        2.919    -0.028    28.707     8.786
     2   6 C        2.920    -0.025    28.621     8.773
     3   6 C        2.921    -0.038    28.943     8.822
     4   6 C        2.913     0.066    26.516     8.444
     5   7 N        2.840    -0.054    22.274     7.010
     6   6 C        3.192     0.136    24.572     8.084
     7   6 C        2.974    -0.004    28.109     8.697
     8   6 C        2.921    -0.036    28.886     8.814
     9   6 C        2.923    -0.032    28.795     8.800
    10   6 C        2.976     0.019    27.590     8.616
    11   6 C        2.976    -0.006    28.162     8.705
    12   6 C        2.983     0.007    27.866     8.659
    13   6 C        2.917    -0.035    28.872     8.811
    14   6 C        2.914    -0.030    28.760     8.794
    15   6 C        2.914    -0.030    28.759     8.794
    16   6 C        2.917    -0.035    28.878     8.812
    17   6 C        2.983     0.006    27.871     8.660
    18   6 C        2.976    -0.006    28.162     8.705
    19   6 C        2.977     0.019    27.590     8.616
    20   6 C        2.923    -0.032    28.795     8.800
    21   6 C        2.921    -0.036    28.887     8.814
    22   6 C        2.974    -0.004    28.109     8.697
    23   6 C        3.192     0.136    24.571     8.084
    24   7 N        1.893    -0.318    29.104     7.998
    25   6 C        3.205     0.060    26.090     8.320
    26   6 C        2.978    -0.004    28.113     8.697
    27   6 C        2.919    -0.034    28.858     8.809
    28   6 C        2.914    -0.031    28.783     8.798
    29   6 C        2.921    -0.040    28.988     8.829
    30   6 C        2.983     0.010    27.794     8.648
    31   6 C        2.913    -0.037    28.912     8.817
    32   6 C        2.914    -0.038    28.953     8.823
    33   6 C        2.983     0.011    27.770     8.644
    34   6 C        2.920    -0.040    28.995     8.830
    35   6 C        2.914    -0.033    28.812     8.802
    36   6 C        2.918    -0.043    29.076     8.842
    37   6 C        2.972    -0.006    28.164     8.705
    38   6 C        2.994    -0.005    28.138     8.701
    39   6 C        2.994    -0.007    28.193     8.710
    40   6 C        3.074     0.022    27.447     8.590
    41   7 N        2.840    -0.054    22.275     7.010
    42   6 C        2.913     0.066    26.516     8.444
    43   6 C        2.921    -0.037    28.915     8.818
    44   6 C        2.920    -0.026    28.653     8.778
    45   6 C        2.919    -0.028    28.707     8.786
    46   6 C        2.920    -0.025    28.621     8.773
    47   6 C        2.921    -0.038    28.943     8.822
    48   6 C        2.925    -0.029    28.732     8.790
    49   6 C        2.922    -0.031    28.764     8.795
    50   6 C        2.983     0.007    27.866     8.659
    51   6 C        2.917    -0.035    28.872     8.811
    52   6 C        2.914    -0.030    28.760     8.794
    53   6 C        2.914    -0.030    28.759     8.794
    54   6 C        2.917    -0.035    28.878     8.812
    55   6 C        2.983     0.006    27.871     8.660
    56   6 C        2.922    -0.031    28.765     8.795
    57   6 C        2.925    -0.029    28.732     8.790
    58   7 N        1.893    -0.318    29.103     7.998
    59   6 C        3.205     0.060    26.092     8.320
    60   6 C        2.978    -0.004    28.113     8.697
    61   6 C        2.919    -0.034    28.858     8.809
    62   6 C        2.914    -0.031    28.783     8.798
    63   6 C        2.921    -0.040    28.988     8.829
    64   6 C        2.983     0.010    27.794     8.648
    65   6 C        2.913    -0.037    28.912     8.817
    66   6 C        2.914    -0.038    28.953     8.823
    67   6 C        2.983     0.011    27.770     8.644
    68   6 C        2.920    -0.040    28.995     8.830
    69   6 C        2.914    -0.033    28.812     8.802
    70   6 C        2.918    -0.043    29.075     8.842
    71   6 C        2.972    -0.006    28.164     8.705
    72   6 C        2.994    -0.005    28.138     8.701
    73   6 C        2.994    -0.007    28.193     8.710
    74   6 C        3.074     0.022    27.446     8.590
    75   6 C        2.921    -0.037    28.916     8.818
    76   6 C        2.920    -0.026    28.653     8.778
    77   1 H        0.926     0.048     2.344     2.394
    78   1 H        0.926     0.047     2.352     2.398
    79   1 H        0.926     0.037     2.483     2.464
    80   1 H        0.926     0.030     2.593     2.518
    81   1 H        0.926     0.038     2.471     2.458
    82   1 H        0.926     0.033     2.545     2.495
    83   1 H        0.926     0.032     2.563     2.504
    84   1 H        0.926     0.032     2.560     2.502
    85   1 H        0.926     0.032     2.558     2.501
    86   1 H        0.926     0.038     2.471     2.458
    87   1 H        0.926     0.030     2.592     2.518
    88   1 H        0.926     0.043     2.412     2.429
    89   1 H        0.926     0.033     2.541     2.493
    90   1 H        0.926     0.034     2.534     2.489
    91   1 H        0.926     0.035     2.520     2.482
    92   1 H        0.926     0.034     2.523     2.484
    93   1 H        0.926     0.033     2.537     2.491
    94   1 H        0.926     0.032     2.562     2.503
    95   1 H        0.926     0.029     2.596     2.520
    96   1 H        0.926     0.042     2.429     2.437
    97   1 H        0.926     0.048     2.351     2.398
    98   1 H        0.926     0.048     2.344     2.394
    99   1 H        0.926     0.047     2.352     2.398
   100   1 H        0.926     0.037     2.482     2.464
   101   1 H        0.926     0.044     2.396     2.420
   102   1 H        0.926     0.041     2.439     2.442
   103   1 H        0.926     0.033     2.545     2.495
   104   1 H        0.926     0.032     2.563     2.504
   105   1 H        0.926     0.032     2.560     2.502
   106   1 H        0.926     0.032     2.558     2.501
   107   1 H        0.926     0.041     2.439     2.442
   108   1 H        0.926     0.044     2.396     2.421
   109   1 H        0.926     0.043     2.412     2.429
   110   1 H        0.926     0.033     2.541     2.493
   111   1 H        0.926     0.034     2.534     2.489
   112   1 H        0.926     0.035     2.520     2.482
   113   1 H        0.926     0.034     2.523     2.484
   114   1 H        0.926     0.034     2.537     2.491
   115   1 H        0.926     0.032     2.561     2.503
   116   1 H        0.926     0.029     2.597     2.520
   117   1 H        0.926     0.041     2.430     2.437
   118   1 H        0.926     0.047     2.351     2.398

molecular dipole:
                 x           y           z       tot (Debye)
 q only:       -0.018       0.011       1.171
   full:       -0.022       0.008       1.486       3.778

 projected vibrational frequencies (cm⁻¹)
eigval :       -0.00    -0.00    -0.00    -0.00     0.00     0.00
eigval :        2.88     6.15     8.44    15.12    16.31    19.66
eigval :       24.38    30.04    33.38    38.92    44.01    48.86
eigval :       50.67    60.37    61.95    66.43    69.07    72.50
eigval :       75.48    78.06    87.08    89.40   118.20   123.52
eigval :      123.93   124.71   126.83   137.27   167.82   168.12
eigval :      178.98   184.39   193.05   207.32   210.74   212.29
eigval :      215.10   224.95   229.24   231.27   231.52   248.32
eigval :      263.57   274.46   278.90   281.54   291.92   305.14
eigval :      314.19   345.47   354.59   354.69   358.19   374.39
eigval :      374.83   376.06   377.20   378.41   385.77   387.30
eigval :      396.23   409.17   416.38   417.28   424.28   424.90
eigval :      437.64   440.18   440.71   442.57   449.80   454.08
eigval :      454.36   458.83   474.08   475.95   482.50   489.65
eigval :      489.66   495.71   507.66   521.85   522.74   528.79
eigval :      535.43   535.46   555.34   556.64   570.85   576.86
eigval :      579.10   582.53   583.62   586.71   587.98   595.97
eigval :      597.91   597.99   609.88   626.63   629.47   631.41
eigval :      637.71   639.59   645.01   656.70   664.89   666.76
eigval :      676.00   677.22   682.08   682.29   689.86   692.59
eigval :      695.53   698.88   699.54   702.83   708.90   711.17
eigval :      720.38   729.69   740.01   747.49   751.27   751.35
eigval :      760.63   763.14   775.96   776.15   776.19   776.49
eigval :      777.71   779.14   799.99   800.04   815.80   819.70
eigval :      840.13   840.59   872.66   873.09   874.44   875.12
eigval :      877.07   880.12   880.19   880.70   889.51   889.77
eigval :      893.28   893.31   897.60   898.41   901.46   903.05
eigval :      906.55   916.90   917.98   918.38   918.46   920.53
eigval :      921.77   922.06   923.37   925.04   926.00   926.33
eigval :      928.36   928.86   929.34   930.18   930.97   931.23
eigval :      932.30   932.65   933.75   935.97   956.99   957.97
eigval :      995.77   995.79  1002.55  1007.44  1029.17  1031.61
eigval :     1076.49  1077.11  1080.46  1081.29  1094.38  1094.46
eigval :     1109.68  1109.84  1113.58  1114.66  1123.24  1123.36
eigval :     1133.30  1133.83  1134.35  1136.10  1136.68  1144.53
eigval :     1158.04  1158.72  1176.18  1177.21  1178.99  1180.08
eigval :     1180.86  1182.79  1185.37  1185.48  1188.99  1189.65
eigval :     1192.99  1193.69  1200.08  1200.15  1213.91  1221.92
eigval :     1222.05  1222.56  1227.77  1233.17  1233.66  1243.46
eigval :     1243.54  1257.86  1260.04  1267.38  1269.07  1273.01
eigval :     1273.65  1298.06  1298.41  1300.13  1300.45  1310.48
eigval :     1310.91  1311.53  1311.74  1320.20  1322.84  1326.63
eigval :     1336.63  1339.09  1347.90  1363.08  1363.18  1371.61
eigval :     1375.24  1375.59  1382.54  1385.45  1385.68  1394.70
eigval :     1394.97  1398.01  1398.11  1399.75  1400.67  1416.31
eigval :     1420.15  1420.27  1426.98  1431.80  1431.99  1440.03
eigval :     1456.54  1462.39  1469.88  1475.46  1478.77  1481.66
eigval :     1482.76  1485.01  1489.10  1508.09  1508.17  1525.05
eigval :     1526.84  1531.31  1531.34  1539.14  1539.69  1540.52
eigval :     1556.59  1556.73  1564.37  1564.45  1580.08  1580.10
eigval :     1582.56  1582.60  1587.66  1587.68  1591.35  1591.43
eigval :     1595.25  1595.60  1606.80  1608.98  1609.01  1620.94
eigval :     3062.75  3062.84  3067.42  3067.43  3068.75  3069.14
eigval :     3069.44  3069.48  3075.75  3075.76  3076.79  3077.04
eigval :     3077.21  3077.45  3078.74  3079.05  3079.12  3079.21
eigval :     3079.32  3079.51  3081.30  3081.59  3081.78  3081.86
eigval :     3087.71  3087.87  3088.97  3089.97  3091.67  3091.94
eigval :     3092.94  3093.84  3094.18  3094.88  3096.65  3096.97
eigval :     3098.98  3099.28  3101.89  3101.98  3114.83  3114.89

   temp. (K)  partition function   enthalpy   heat capacity  entropy
                                   cal/mol     cal/K/mol   cal/K/mol   J/K/mol
 298.15  VIB  0.353E+28            33888.645    216.474    212.436
         ROT  0.415E+09              888.752      2.981     42.416
         INT  0.146E+37            34777.398    219.454    254.852
         TR   0.289E+29             1481.254      4.968     46.448
         TOT                       36258.6516   224.4226   301.3001  1260.6398

       T/K    H(0)-H(T)+PV         H(T)/Eh          T*S/Eh         G(T)/Eh
   ------------------------------------------------------------------------
    298.15    0.577818E-01    0.953476E+00    0.143157E+00    0.810319E+00
   ------------------------------------------------------------------------

         :::::::::::::::::::::::::::::::::::::::::::::::::::::
         ::                  THERMODYNAMIC                  ::
         :::::::::::::::::::::::::::::::::::::::::::::::::::::
         :: total free energy        -186.718321612662 Eh   ::
         ::.................................................::
         :: total energy             -187.528640325647 Eh   ::
         :: zero point energy           0.895694297271 Eh   ::
         :: G(RRHO) w/o ZPVE           -0.085375584286 Eh   ::
         :: G(RRHO) contrib.            0.810318712985 Eh   ::
         :::::::::::::::::::::::::::::::::::::::::::::::::::::

           -------------------------------------------------
          | TOTAL ENERGY             -187.528640325647 Eh   |
          | TOTAL ENTHALPY           -186.575164189119 Eh   |
          | TOTAL FREE ENERGY        -186.718321612662 Eh   |
          | GRADIENT NORM               0.000026694472 Eh/α |
          | HOMO-LUMO GAP               2.058618282875 eV   |
           -------------------------------------------------

 * finished run on 2025/09/08 at 09:50:32.270
