   * xtb version 6.7.1 (edcfbbe) compiled by 'albert@albert-system' on 2024-07-22

   ID    Z sym.   atoms
    1    6 C      1-4, 6-23, 25-40, 42-57, 59-76
    2    7 N      5, 24, 41, 58
    3    1 H      77-118

          program call               : xtb data2507/toluene/C-BPyIA/C-BPyIA_toluene_S0_crest.xyz --gfn 2 --gbsa toluene --ohess vtight --parallel 40 --molden --ceasefiles --namespace data2507/toluene/C-BPyIA/C-BPyIA_toluene_S0_finalOpt
      * Solvation model:               GBSA
        Solvent                        toluene
        Solvent mass                       9.2140E+01 g/mol
          :  Hamiltonian                  GFN2-xTB          :
 * total energy  :  -187.5283864 Eh     change       -0.5050396E-08 Eh
 * total energy  :  -187.5284537 Eh     change       -0.6735325E-04 Eh
 * total energy  :  -187.5285000 Eh     change       -0.4622138E-04 Eh
 * total energy  :  -187.5285249 Eh     change       -0.2495915E-04 Eh
 * total energy  :  -187.5285436 Eh     change       -0.1869367E-04 Eh
 * total energy  :  -187.5285626 Eh     change       -0.1901289E-04 Eh
 * total energy  :  -187.5285331 Eh     change        0.2956827E-04 Eh
 * total energy  :  -187.5285644 Eh     change       -0.3131116E-04 Eh
 * total energy  :  -187.5285738 Eh     change       -0.9469936E-05 Eh
 * total energy  :  -187.5285785 Eh     change       -0.4616480E-05 Eh
 * total energy  :  -187.5286147 Eh     change       -0.7098195E-06 Eh
 * total energy  :  -187.5286154 Eh     change       -0.7195100E-06 Eh
 * total energy  :  -187.5286163 Eh     change       -0.8633848E-06 Eh
 * total energy  :  -187.5286172 Eh     change       -0.8789027E-06 Eh
 * total energy  :  -187.5286179 Eh     change       -0.7126974E-06 Eh
 * total energy  :  -187.5286184 Eh     change       -0.4929070E-06 Eh
 * total energy  :  -187.5286186 Eh     change       -0.2476523E-06 Eh
 * total energy  :  -187.5286188 Eh     change       -0.1761668E-06 Eh
 * total energy  :  -187.5286188 Eh     change       -0.1244445E-08 Eh
   *** GEOMETRY OPTIMIZATION CONVERGED AFTER 44 ITERATIONS ***

 final structure:
================
118
 xtb: 6.7.1 (edcfbbe)
C            6.60412422317535       -4.06685164923460        2.23808920476441
C            6.30629681127966       -3.85403966034329        0.90225662243761
C            6.76739819208297       -2.71950613026348        0.25777700271095
C            7.53058664655565       -1.79321226926311        0.95823580574812
N            7.96652038344909       -0.61648848623281        0.31116990935024
C            7.13406679767118        0.35409022579746       -0.19766800271426
C            5.68114677208368        0.30138355248475       -0.13714037531459
C            4.99531029451250       -0.16004180123993        0.98502479152396
C            3.61529447724523       -0.20957107406992        0.98655307078820
C            2.88531675021393        0.20660490671992       -0.12364385522235
C            1.40966669709713        0.12445947395346       -0.12615451557951
C            0.64231701924617        1.29846438419648       -0.11721273027883
C            1.24385738970130        2.58419055150226       -0.06631280907475
C            0.49095478114253        3.71774636334660       -0.08691052226725
C           -0.91398872016111        3.63618239806302       -0.16593298140059
C           -1.53096998993873        2.42331499069368       -0.19052221527077
C           -0.78514556544378        1.21533902763746       -0.14273806919604
C           -1.41081570367441       -0.04026214048174       -0.13758856659913
C           -2.88614643227669       -0.12556254931073       -0.14581325930588
C           -3.62520657047419        0.28783608790962        0.95935800095063
C           -5.00453208535294        0.22347505703523        0.95212748702656
C           -5.68064809576580       -0.25068701967264       -0.17063024423863
C           -7.13236807694027       -0.33046472879980       -0.23010839620001
N           -7.78069110669485       -1.33230144428176       -0.77220115524918
C           -9.10193305387781       -1.04798771127036       -0.62020735602654
C          -10.21640593295143       -1.84441929326807       -1.01283718955090
C          -10.08136528813750       -3.08434418732357       -1.62793286917168
C          -11.20415668987984       -3.82053882085177       -1.96686144859558
C          -12.46662021244313       -3.32891548128360       -1.69976227034915
C          -12.63988989948457       -2.08322753024960       -1.08893611255927
C          -13.93777776047671       -1.55851764604582       -0.82041235423853
C          -14.09329880961983       -0.34079525400996       -0.25443053183584
C          -12.96884848619377        0.46118949560790        0.10200814190893
C          -13.13779739753545        1.73141200949078        0.66059739019447
C          -12.04434982353130        2.50912073211065        0.97799030788390
C          -10.75957990035108        2.03328943024865        0.77609629273217
C          -10.54262656861879        0.76043485586643        0.25112922688312
C          -11.66212121256078       -0.03910141820819       -0.12411080105586
C          -11.50200008734093       -1.31697834677382       -0.73233153759729
C           -9.26074096316800        0.17986205638725        0.02370742072421
N           -7.98259974587334        0.62452814212685        0.27871077481148
C           -7.56507751254143        1.81698714049713        0.90886686804565
C           -7.85602640318806        2.03819729052907        2.25161543199449
C           -7.40951539574637        3.19369495390743        2.86703240950497
C           -6.66928881615534        4.12272141227804        2.15290374673234
C           -6.37684465652756        3.89776843061183        0.81787460767587
C           -6.82276482410723        2.74727534954993        0.19135829709542
C           -4.94086103151393       -0.69221890514962       -1.26778678531918
C           -3.56269396683290       -0.62706809829549       -1.25580372613378
C           -0.64349067605470       -1.21444700180798       -0.12506416771110
C           -1.24502432239179       -2.50045509074060       -0.08084879497052
C           -0.49188600114916       -3.63390100772954       -0.09864927649464
C            0.91348508261167       -3.55202974907150       -0.16792647932295
C            1.53028848057964       -2.33897100260716       -0.18484073276730
C            0.78402901121443       -1.13118723095293       -0.13941258411962
C            3.57161927847905        0.70087004349082       -1.23081868245885
C            4.95043754075116        0.75085522459260       -1.23726136709520
N            7.80093365172763        1.33875696414132       -0.74877117867958
C            9.11661290245779        1.02639116695377       -0.60356275254170
C           10.24624207629763        1.79536946654838       -1.00773079888191
C           10.13553252960686        3.03637056185719       -1.62550139631953
C           11.27247725695023        3.74533740907537       -1.97512577214835
C           12.52519626137372        3.22462340800065       -1.71751836198093
C           12.67405355422447        1.97641716783605       -1.10539391934735
C           13.96140139378415        1.42084745199771       -0.84846768442047
C           14.09298188437170        0.20070031866486       -0.28164157095087
C           12.95300269546452       -0.57261634551525        0.08847931134225
C           13.09658424832084       -1.84517443170984        0.64887385255323
C           11.98777979950271       -2.59466651681849        0.98055847169375
C           10.71304729881019       -2.08778113350388        0.79094663219015
C           10.52195099981542       -0.81176526998411        0.26362190217006
C           11.65667575645809       -0.04098800391769       -0.12560502631865
C           11.52143458737931        1.23855772097147       -0.73639178367317
C            9.25232849115802       -0.20156345101500        0.04534563529022
C            7.82744169715733       -2.00237406166988        2.30166828908867
C            7.36559430885558       -3.14198619308715        2.93505894886613
H            6.24251183325347       -4.95280965145341        2.73744258685663
H            5.71378117580327       -4.57299168380204        0.35699486017861
H            6.53986149249019       -2.54275279364904       -0.78331662410808
H            5.53771497130581       -0.46676638624921        1.86652286317741
H            3.09195854992576       -0.56887524720945        1.86093663793794
H            2.32030978080145        2.64776821255431       -0.00924879369148
H            0.96466851809105        4.68797157598491       -0.04791336746227
H           -1.49567419328330        4.54587952257012       -0.20234057463643
H           -2.60751673835516        2.36223563251343       -0.24846988611266
H           -3.10949574036462        0.65426981159637        1.83530429921010
H           -5.55387436050641        0.52649590623624        1.83060636652099
H           -9.08719034587449       -3.45431232962200       -1.82711708833247
H          -11.09082649245122       -4.78448776302064       -2.44186102463596
H          -13.34114710031733       -3.90564661942349       -1.96609478102790
H          -14.79578656047833       -2.15829029971914       -1.08976503987889
H          -15.07941843113902        0.05771830126873       -0.06117898128217
H          -14.13861261471756        2.10196952265686        0.82991409447193
H          -12.18440173355399        3.49856282514001        1.38891104872191
H           -9.92057225107860        2.66397318704424        1.02249413878061
H           -8.42939804464153        1.30448050957632        2.79996804586462
H           -7.63735265695643        3.36462521097916        3.90845890729431
H           -6.31960940337120        5.02111431814468        2.63834814660280
H           -5.80031942817434        4.61942164717832        0.25919887950512
H           -6.59918563028905        2.56097627279457       -0.84894807876508
H           -5.46773271759694       -1.07950139419563       -2.12663857222191
H           -2.99805532687236       -0.95794204716165       -2.11556875707554
H           -2.32175192027744       -2.56477278384511       -0.03100700407135
H           -0.96586240536967       -4.60418801965844       -0.06493332952169
H            1.49559395824051       -4.46150690095655       -0.20279873456118
H            2.60711466346042       -2.27752482592054       -0.23495519900214
H            3.01424006870277        1.03590535227434       -2.09369170250576
H            5.48512074886616        1.12989185361263       -2.09495902948712
H            9.14886327379702        3.42904957878731       -1.81827627543905
H           11.17763702158734        4.71064352086771       -2.45142322549296
H           13.41085885269916        3.77976446397181       -1.99276878293578
H           14.83099617017042        1.99899651696119       -1.12778580568470
H           15.07100135746660       -0.22156280161850       -0.09792143146793
H           14.08978251848238       -2.23984506738139        0.80837156065219
H           12.10761497989497       -3.58600172544145        1.39327536780795
H            9.86146999012380       -2.69673976087098        1.04859714950731
H            8.41790936759159       -1.27195909904766        2.83612912761875
H            7.59806285034091       -3.30368077711094        3.97693407286950

          :  Hamiltonian                  GFN2-xTB          :
         :: gradient norm              0.000029273451 Eh/a0 ::
         :: HOMO-LUMO gap              2.058413205917 eV    ::
         :: SCC energy              -191.095609794741 Eh    ::
         :: -> dispersion             -0.185337757950 Eh    ::
         :: -> Gsolv                  -0.077898982896 Eh    ::
         :: repulsion energy           3.566991010964 Eh    ::

    * Orbital Energies and Occupations

         #    Occupation            Energy/Eh            Energy/eV
      -------------------------------------------------------------
         1        2.0000           -0.6891063             -18.7515
       ...           ...                  ...                  ...
       163        2.0000           -0.4043698             -11.0035
       164        2.0000           -0.4039351             -10.9916
       165        2.0000           -0.4014534             -10.9241
       166        2.0000           -0.3994574             -10.8698
       167        2.0000           -0.3908929             -10.6367
       168        2.0000           -0.3898709             -10.6089
       169        2.0000           -0.3863003             -10.5118
       170        2.0000           -0.3861220             -10.5069
       171        2.0000           -0.3805839             -10.3562
       172        2.0000           -0.3805448             -10.3552
       173        2.0000           -0.3617593              -9.8440
       174        2.0000           -0.3600981              -9.7988
       175        2.0000           -0.3574229              -9.7260 (HOMO)
       176                         -0.2817776              -7.6676 (LUMO)
       177                         -0.2726022              -7.4179
       178                         -0.2723848              -7.4120
       179                         -0.2559255              -6.9641
       180                         -0.2549807              -6.9384
       181                         -0.2430471              -6.6136
       182                         -0.2430366              -6.6134
       183                         -0.2404672              -6.5434
       184                         -0.2404534              -6.5431
       185                         -0.2370814              -6.4513
       186                         -0.2369585              -6.4480
       ...                                ...                  ...
       346                          0.7299995              19.8643
      -------------------------------------------------------------
                  HL-Gap            0.0756453 Eh            2.0584 eV

     #   Z          covCN         q      C6AA      α(0)
     1   6 C        2.919    -0.028    28.708     8.786
     2   6 C        2.920    -0.025    28.621     8.773
     3   6 C        2.921    -0.038    28.943     8.822
     4   6 C        2.913     0.066    26.517     8.444
     5   7 N        2.840    -0.054    22.274     7.009
     6   6 C        3.192     0.136    24.573     8.084
     7   6 C        2.974    -0.004    28.108     8.696
     8   6 C        2.921    -0.036    28.885     8.813
     9   6 C        2.923    -0.032    28.795     8.800
    10   6 C        2.976     0.019    27.590     8.616
    11   6 C        2.976    -0.006    28.162     8.705
    12   6 C        2.983     0.007    27.866     8.659
    13   6 C        2.917    -0.035    28.871     8.811
    14   6 C        2.914    -0.030    28.760     8.794
    15   6 C        2.914    -0.030    28.759     8.794
    16   6 C        2.917    -0.035    28.878     8.812
    17   6 C        2.983     0.006    27.871     8.660
    18   6 C        2.976    -0.006    28.162     8.705
    19   6 C        2.976     0.019    27.590     8.616
    20   6 C        2.923    -0.032    28.795     8.800
    21   6 C        2.921    -0.036    28.885     8.813
    22   6 C        2.974    -0.004    28.108     8.696
    23   6 C        3.192     0.136    24.569     8.083
    24   7 N        1.893    -0.318    29.103     7.998
    25   6 C        3.205     0.060    26.089     8.319
    26   6 C        2.978    -0.004    28.113     8.697
    27   6 C        2.919    -0.034    28.858     8.809
    28   6 C        2.914    -0.031    28.783     8.798
    29   6 C        2.921    -0.040    28.988     8.829
    30   6 C        2.983     0.010    27.794     8.648
    31   6 C        2.913    -0.037    28.912     8.817
    32   6 C        2.914    -0.038    28.953     8.823
    33   6 C        2.983     0.011    27.770     8.644
    34   6 C        2.920    -0.040    28.995     8.830
    35   6 C        2.914    -0.033    28.812     8.802
    36   6 C        2.918    -0.043    29.075     8.842
    37   6 C        2.972    -0.006    28.164     8.705
    38   6 C        2.994    -0.005    28.138     8.701
    39   6 C        2.994    -0.007    28.193     8.710
    40   6 C        3.074     0.022    27.448     8.590
    41   7 N        2.840    -0.054    22.273     7.009
    42   6 C        2.913     0.066    26.517     8.444
    43   6 C        2.921    -0.037    28.916     8.818
    44   6 C        2.920    -0.026    28.654     8.778
    45   6 C        2.919    -0.028    28.708     8.786
    46   6 C        2.920    -0.025    28.622     8.773
    47   6 C        2.921    -0.038    28.944     8.822
    48   6 C        2.925    -0.029    28.731     8.790
    49   6 C        2.922    -0.031    28.763     8.795
    50   6 C        2.983     0.007    27.866     8.659
    51   6 C        2.917    -0.035    28.872     8.811
    52   6 C        2.914    -0.030    28.760     8.794
    53   6 C        2.914    -0.030    28.759     8.794
    54   6 C        2.917    -0.035    28.879     8.812
    55   6 C        2.983     0.006    27.871     8.660
    56   6 C        2.922    -0.031    28.764     8.795
    57   6 C        2.926    -0.029    28.731     8.790
    58   7 N        1.893    -0.318    29.103     7.998
    59   6 C        3.205     0.060    26.093     8.320
    60   6 C        2.978    -0.004    28.113     8.697
    61   6 C        2.919    -0.034    28.858     8.809
    62   6 C        2.914    -0.031    28.783     8.798
    63   6 C        2.921    -0.040    28.988     8.829
    64   6 C        2.983     0.010    27.794     8.648
    65   6 C        2.913    -0.037    28.912     8.817
    66   6 C        2.914    -0.038    28.953     8.823
    67   6 C        2.983     0.011    27.770     8.644
    68   6 C        2.920    -0.040    28.995     8.830
    69   6 C        2.914    -0.033    28.812     8.802
    70   6 C        2.918    -0.043    29.075     8.842
    71   6 C        2.972    -0.006    28.164     8.705
    72   6 C        2.994    -0.005    28.138     8.701
    73   6 C        2.994    -0.007    28.193     8.710
    74   6 C        3.074     0.022    27.447     8.590
    75   6 C        2.921    -0.037    28.916     8.818
    76   6 C        2.920    -0.026    28.653     8.778
    77   1 H        0.926     0.048     2.345     2.394
    78   1 H        0.926     0.047     2.352     2.398
    79   1 H        0.926     0.038     2.482     2.464
    80   1 H        0.926     0.030     2.593     2.518
    81   1 H        0.926     0.038     2.470     2.458
    82   1 H        0.926     0.033     2.546     2.495
    83   1 H        0.926     0.032     2.563     2.504
    84   1 H        0.926     0.032     2.560     2.502
    85   1 H        0.926     0.032     2.556     2.500
    86   1 H        0.926     0.038     2.469     2.457
    87   1 H        0.926     0.030     2.593     2.518
    88   1 H        0.926     0.043     2.412     2.429
    89   1 H        0.926     0.033     2.541     2.493
    90   1 H        0.926     0.034     2.534     2.489
    91   1 H        0.926     0.035     2.520     2.482
    92   1 H        0.926     0.034     2.523     2.484
    93   1 H        0.926     0.034     2.537     2.491
    94   1 H        0.926     0.032     2.561     2.503
    95   1 H        0.926     0.029     2.596     2.520
    96   1 H        0.926     0.041     2.429     2.437
    97   1 H        0.926     0.047     2.352     2.398
    98   1 H        0.926     0.048     2.345     2.394
    99   1 H        0.926     0.047     2.352     2.398
   100   1 H        0.926     0.037     2.483     2.464
   101   1 H        0.926     0.044     2.398     2.421
   102   1 H        0.926     0.041     2.439     2.442
   103   1 H        0.926     0.033     2.545     2.495
   104   1 H        0.926     0.032     2.563     2.504
   105   1 H        0.926     0.032     2.560     2.502
   106   1 H        0.926     0.032     2.558     2.501
   107   1 H        0.926     0.041     2.440     2.443
   108   1 H        0.926     0.044     2.396     2.421
   109   1 H        0.926     0.043     2.412     2.429
   110   1 H        0.926     0.033     2.541     2.493
   111   1 H        0.926     0.034     2.534     2.489
   112   1 H        0.926     0.035     2.520     2.482
   113   1 H        0.926     0.034     2.523     2.484
   114   1 H        0.926     0.034     2.537     2.491
   115   1 H        0.926     0.032     2.561     2.503
   116   1 H        0.926     0.029     2.597     2.520
   117   1 H        0.926     0.041     2.430     2.438
   118   1 H        0.926     0.047     2.352     2.398

molecular dipole:
                 x           y           z       tot (Debye)
 q only:       -0.019       0.016       1.174
   full:       -0.025       0.012       1.482       3.766

 projected vibrational frequencies (cm⁻¹)
eigval :       -0.00    -0.00    -0.00     0.00     0.00     0.00
eigval :       -1.33     6.17     8.40    15.56    15.78    18.74
eigval :       23.96    29.74    32.84    38.99    43.92    48.62
eigval :       50.44    59.85    62.18    67.27    67.90    71.01
eigval :       74.72    78.59    86.43    88.94   118.41   123.44
eigval :      123.88   124.94   126.91   137.40   167.96   168.32
eigval :      178.97   184.15   193.33   207.24   210.27   211.88
eigval :      214.88   225.13   229.27   231.40   231.81   248.58
eigval :      263.52   274.16   278.66   281.38   292.01   304.62
eigval :      313.68   345.56   354.49   354.68   358.41   371.39
eigval :      374.13   376.31   378.00   379.42   385.47   387.21
eigval :      396.21   409.04   416.47   417.27   423.92   424.71
eigval :      437.67   440.06   440.70   442.42   449.75   453.59
eigval :      453.90   458.75   474.32   476.20   482.24   489.53
eigval :      489.67   495.44   507.43   521.71   522.55   528.45
eigval :      535.34   535.38   555.46   556.68   570.75   576.83
eigval :      578.91   582.57   583.67   586.67   587.72   595.65
eigval :      597.89   598.06   609.83   626.58   629.38   631.12
eigval :      637.49   639.54   644.91   656.47   664.86   666.66
eigval :      676.62   677.75   682.03   682.48   689.88   692.60
eigval :      695.75   698.89   699.91   702.93   708.89   711.10
eigval :      720.35   729.73   739.98   747.58   750.94   751.71
eigval :      763.07   763.83   775.67   775.94   776.05   776.93
eigval :      777.46   779.42   799.68   800.94   813.08   817.34
eigval :      839.51   840.49   869.78   871.97   875.51   876.34
eigval :      876.95   878.78   879.67   880.22   889.17   892.30
eigval :      893.21   893.42   897.59   901.38   902.50   903.81
eigval :      906.56   914.14   916.09   917.48   918.76   919.74
eigval :      922.01   922.08   922.29   925.73   925.73   926.87
eigval :      927.91   928.91   930.05   930.28   931.17   931.45
eigval :      932.35   932.52   933.63   935.88   957.00   957.98
eigval :      995.70   995.74  1002.49  1007.40  1029.13  1031.53
eigval :     1077.22  1077.54  1080.77  1081.54  1094.34  1094.34
eigval :     1109.69  1109.86  1114.22  1115.12  1123.26  1123.42
eigval :     1133.28  1133.40  1134.10  1136.65  1136.74  1144.57
eigval :     1158.14  1159.38  1177.06  1178.11  1179.46  1179.98
eigval :     1180.57  1183.22  1185.25  1185.35  1189.52  1190.24
eigval :     1192.65  1193.27  1200.49  1200.60  1213.97  1221.87
eigval :     1222.35  1222.68  1228.18  1233.11  1233.68  1243.47
eigval :     1243.58  1258.44  1260.03  1266.92  1268.73  1273.64
eigval :     1274.20  1298.21  1298.56  1300.14  1300.45  1310.38
eigval :     1310.90  1311.61  1311.77  1320.25  1322.87  1326.69
eigval :     1336.61  1339.08  1348.54  1363.13  1363.31  1371.59
eigval :     1375.30  1375.65  1382.68  1385.51  1385.70  1394.68
eigval :     1394.94  1398.00  1398.26  1399.64  1400.54  1416.25
eigval :     1420.18  1420.29  1427.14  1431.96  1432.11  1440.14
eigval :     1456.59  1462.49  1469.95  1475.48  1478.81  1481.69
eigval :     1482.87  1485.00  1489.14  1508.07  1508.16  1525.19
eigval :     1526.79  1531.33  1531.38  1539.17  1539.71  1540.53
eigval :     1556.56  1556.70  1564.41  1564.50  1580.13  1580.13
eigval :     1582.66  1582.66  1587.68  1587.70  1591.42  1591.46
eigval :     1595.08  1595.48  1606.85  1608.96  1609.15  1620.96
eigval :     3062.66  3062.89  3067.26  3067.48  3068.57  3069.48
eigval :     3069.88  3070.01  3075.68  3075.82  3076.92  3077.01
eigval :     3077.15  3077.56  3078.73  3078.98  3079.03  3079.14
eigval :     3079.34  3079.62  3081.39  3081.65  3081.96  3082.13
eigval :     3088.03  3088.04  3089.27  3090.27  3091.77  3091.97
eigval :     3093.13  3093.39  3093.46  3095.01  3096.32  3096.64
eigval :     3098.99  3099.29  3102.17  3102.18  3114.45  3114.72

   temp. (K)  partition function   enthalpy   heat capacity  entropy
                                   cal/mol     cal/K/mol   cal/K/mol   J/K/mol
 298.15  VIB  0.879E+28            33902.637    216.433    213.348
         ROT  0.415E+09              888.752      2.981     42.418
         INT  0.365E+37            34791.389    219.413    255.766
         TR   0.289E+29             1481.254      4.968     46.448
         TOT                       36272.6428   224.3816   302.2146  1264.4658

       T/K    H(0)-H(T)+PV         H(T)/Eh          T*S/Eh         G(T)/Eh
   ------------------------------------------------------------------------
    298.15    0.578041E-01    0.953485E+00    0.143592E+00    0.809893E+00
   ------------------------------------------------------------------------

         :::::::::::::::::::::::::::::::::::::::::::::::::::::
         ::                  THERMODYNAMIC                  ::
         :::::::::::::::::::::::::::::::::::::::::::::::::::::
         :: total free energy        -186.718725830611 Eh   ::
         ::.................................................::
         :: total energy             -187.528618780446 Eh   ::
         :: zero point energy           0.895680718280 Eh   ::
         :: G(RRHO) w/o ZPVE           -0.085787768444 Eh   ::
         :: G(RRHO) contrib.            0.809892949835 Eh   ::
         :::::::::::::::::::::::::::::::::::::::::::::::::::::

           -------------------------------------------------
          | TOTAL ENERGY             -187.528618780446 Eh   |
          | TOTAL ENTHALPY           -186.575133926460 Eh   |
          | TOTAL FREE ENERGY        -186.718725830611 Eh   |
          | GRADIENT NORM               0.000029270411 Eh/α |
          | HOMO-LUMO GAP               2.058413160414 eV   |
           -------------------------------------------------

 * finished run on 2025/09/08 at 10:02:51.248
