   * xtb version 6.7.1 (edcfbbe) compiled by 'albert@albert-system' on 2024-07-22

   ID    Z sym.   atoms
    1    8 O      1, 10
    2    6 C      2-9, 11-13, 15-29
    3    7 N      14
    4    1 H      30-44

          program call               : xtb data2507/gas/Cz–AQ/Cz–AQ.xyz --gfn 2 --ohess vtight --parallel 40 --molden --ceasefiles --namespace data2507/gas/Cz–AQ/Cz–AQ_gas_S0_preOpt
          :  Hamiltonian                  GFN2-xTB          :
 * total energy  :   -74.3918515 Eh     change       -0.1572090E-08 Eh
 * total energy  :   -74.3997879 Eh     change       -0.7936427E-02 Eh
 * total energy  :   -74.4013787 Eh     change       -0.1590796E-02 Eh
 * total energy  :   -74.4015764 Eh     change       -0.1976989E-03 Eh
 * total energy  :   -74.4016628 Eh     change       -0.8643727E-04 Eh
 * total energy  :   -74.4016826 Eh     change       -0.1980105E-04 Eh
 * total energy  :   -74.4016995 Eh     change       -0.1688523E-04 Eh
 * total energy  :   -74.4017069 Eh     change       -0.7322822E-05 Eh
 * total energy  :   -74.4017143 Eh     change       -0.7463308E-05 Eh
 * total energy  :   -74.4017193 Eh     change       -0.5028984E-05 Eh
 * total energy  :   -74.4017367 Eh     change       -0.2884315E-05 Eh
 * total energy  :   -74.4017383 Eh     change       -0.1600109E-05 Eh
 * total energy  :   -74.4017391 Eh     change       -0.8680756E-06 Eh
 * total energy  :   -74.4017399 Eh     change       -0.8024902E-06 Eh
 * total energy  :   -74.4017409 Eh     change       -0.9324705E-06 Eh
 * total energy  :   -74.4017418 Eh     change       -0.9164161E-06 Eh
 * total energy  :   -74.4017425 Eh     change       -0.7347441E-06 Eh
 * total energy  :   -74.4017430 Eh     change       -0.5004838E-06 Eh
 * total energy  :   -74.4017430 Eh     change       -0.4950323E-08 Eh
   *** GEOMETRY OPTIMIZATION CONVERGED AFTER 22 ITERATIONS ***

 final structure:
================
44
 xtb: 6.7.1 (edcfbbe)
O            3.87325177968901       -2.46338640796236        1.48359070137372
C            3.55224199975187       -1.47411887475967        0.84949841618301
C            4.55850984697590       -0.58316328931526        0.22880271908125
C            5.90788537677070       -0.88852455780623        0.38569109311737
C            6.88323987499313       -0.08720972822503       -0.17889184817122
C            6.52042800461171        1.03360275686705       -0.91149487496322
C            5.18399538299074        1.34777653893353       -1.07480248519304
C            4.19222040052646        0.54938600227500       -0.50974260376826
C            2.77781200788605        0.92915449485239       -0.70862269615423
O            2.45581038674922        1.92000243540644       -1.33665558841373
C            1.77183488501318        0.03700199732200       -0.08754420975040
C            0.42853829450435        0.34471820218767       -0.25297626494332
C           -0.56269140213502       -0.45231210131972        0.31519970308852
N           -1.90519483214236       -0.13002198205971        0.14750731509910
C           -2.91750337249587       -1.01378502130858       -0.19179267931583
C           -2.84756836754156       -2.36243658518480       -0.50792442831619
C           -4.02120090871306       -3.00692271601397       -0.85276945709150
C           -5.23729850931583       -2.33056519007128       -0.89563357128606
C           -5.30759865422292       -0.98052510072993       -0.61368658794343
C           -4.14173396169223       -0.31291657078747       -0.26497052577460
C           -3.85072707711684        1.05821379987136        0.05396483768932
C           -4.63915036588343        2.19520351824188        0.16588985143985
C           -4.03629350623042        3.38414279912719        0.52609090528429
C           -2.67068208771945        3.44134118049097        0.79117407035841
C           -1.86621411203123        2.32177381114871        0.68676321315269
C           -2.46105011216396        1.13174628064590        0.29501339787396
C           -0.18952720905785       -1.57732846421841        1.05677298779476
C            1.14314562273210       -1.89024703355704        1.21355918014490
C            2.14173690905307       -1.09587405539066        0.65012416951324
H            6.16776215466316       -1.76616176720533        0.95902814785561
H            7.92620752464573       -0.33484971663540       -0.04907814614763
H            7.27994653429480        1.66096423002895       -1.35359930512911
H            4.87862692007882        2.21557848037294       -1.64065205396216
H            0.16857975895393        1.20348914029943       -0.85396508124069
H           -1.90895189076521       -2.89538021110654       -0.50377989531199
H           -3.99161805734967       -4.05798831837695       -1.09859685655315
H           -6.13256479222456       -2.87022652423955       -1.16562646539835
H           -6.24561630812828       -0.44939336413540       -0.66837653730802
H           -5.70108328869182        2.14410954803784       -0.02045981432947
H           -4.62978500880068        4.28162744988601        0.61528499699245
H           -2.22854691579553        4.38038949708026        1.08863636962536
H           -0.81327897319879        2.37916525129373        0.91579117919530
H           -0.95068415695373       -2.18304891244785        1.52437637636656
H            1.44479120548600       -2.75300492151210        1.78888234523574

          :  Hamiltonian                  GFN2-xTB          :
         :: gradient norm              0.000078932103 Eh/a0 ::
         :: HOMO-LUMO gap              1.247056423963 eV    ::
         :: SCC energy               -75.701240769460 Eh    ::
         :: -> dispersion             -0.058380319115 Eh    ::
         :: repulsion energy           1.299497742633 Eh    ::

    * Orbital Energies and Occupations

         #    Occupation            Energy/Eh            Energy/eV
      -------------------------------------------------------------
         1        2.0000           -0.7157309             -19.4760
       ...           ...                  ...                  ...
        56        2.0000           -0.4399883             -11.9727
        57        2.0000           -0.4344345             -11.8216
        58        2.0000           -0.4312765             -11.7356
        59        2.0000           -0.4294795             -11.6867
        60        2.0000           -0.4287795             -11.6677
        61        2.0000           -0.4269950             -11.6191
        62        2.0000           -0.4245243             -11.5519
        63        2.0000           -0.4236675             -11.5286
        64        2.0000           -0.4120760             -11.2132
        65        2.0000           -0.4114465             -11.1960
        66        2.0000           -0.3940455             -10.7225
        67        2.0000           -0.3854153             -10.4877
        68        2.0000           -0.3725426             -10.1374 (HOMO)
        69                         -0.3267140              -8.8903 (LUMO)
        70                         -0.2815310              -7.6608
        71                         -0.2550076              -6.9391
        72                         -0.2492997              -6.7838
        73                         -0.2468991              -6.7185
        74                         -0.2285883              -6.2202
        75                         -0.2075345              -5.6473
        76                         -0.1924418              -5.2366
        77                         -0.1911003              -5.2001
        78                         -0.1860579              -5.0629
        79                         -0.1208516              -3.2885
       ...                                ...                  ...
       131                          0.7387731              20.1030
      -------------------------------------------------------------
                  HL-Gap            0.0458286 Eh            1.2471 eV

     #   Z          covCN         q      C6AA      α(0)
     1   8 O        0.858    -0.369    21.076     6.155
     2   6 C        2.830     0.223    23.305     7.911
     3   6 C        2.974    -0.012    28.305     8.727
     4   6 C        2.924    -0.016    28.403     8.740
     5   6 C        2.918    -0.020    28.499     8.754
     6   6 C        2.917    -0.020    28.516     8.757
     7   6 C        2.924    -0.015    28.397     8.739
     8   6 C        2.974    -0.013    28.333     8.731
     9   6 C        2.830     0.225    23.268     7.904
    10   8 O        0.858    -0.364    20.968     6.139
    11   6 C        2.974    -0.013    28.324     8.730
    12   6 C        2.927    -0.033    28.817     8.803
    13   6 C        2.910     0.074    26.342     8.416
    14   7 N        2.801    -0.037    21.956     6.959
    15   6 C        3.068     0.046    26.897     8.504
    16   6 C        2.910    -0.050    29.236     8.866
    17   6 C        2.924    -0.032    28.800     8.801
    18   6 C        2.920    -0.038    28.952     8.824
    19   6 C        2.913    -0.032    28.787     8.798
    20   6 C        3.066    -0.014    28.285     8.721
    21   6 C        3.067    -0.014    28.288     8.721
    22   6 C        2.913    -0.032    28.787     8.798
    23   6 C        2.920    -0.038    28.941     8.822
    24   6 C        2.924    -0.031    28.771     8.796
    25   6 C        2.910    -0.048    29.198     8.860
    26   6 C        3.068     0.047    26.887     8.502
    27   6 C        2.919    -0.039    28.964     8.825
    28   6 C        2.923    -0.017    28.423     8.743
    29   6 C        2.974    -0.020    28.492     8.756
    30   1 H        0.926     0.068     2.102     2.267
    31   1 H        0.926     0.048     2.342     2.393
    32   1 H        0.926     0.048     2.345     2.394
    33   1 H        0.926     0.068     2.111     2.272
    34   1 H        0.926     0.075     2.032     2.229
    35   1 H        0.926     0.030     2.587     2.515
    36   1 H        0.926     0.033     2.542     2.493
    37   1 H        0.926     0.032     2.555     2.500
    38   1 H        0.926     0.035     2.519     2.482
    39   1 H        0.926     0.035     2.523     2.484
    40   1 H        0.926     0.033     2.551     2.497
    41   1 H        0.926     0.035     2.519     2.482
    42   1 H        0.926     0.033     2.539     2.492
    43   1 H        0.926     0.055     2.261     2.352
    44   1 H        0.926     0.071     2.075     2.253

molecular dipole:
                 x           y           z       tot (Debye)
 q only:       -0.099       0.068      -0.003
   full:        0.005       0.046      -0.003       0.119

 projected vibrational frequencies (cm⁻¹)
eigval :       -0.00    -0.00    -0.00     0.00     0.00     0.00
eigval :       19.34    31.30    37.51    42.64   100.20   102.10
eigval :      111.08   133.93   145.24   152.70   164.19   195.83
eigval :      244.08   264.42   272.79   278.54   302.04   370.90
eigval :      371.24   383.18   392.99   397.12   404.00   416.10
eigval :      421.84   437.14   447.17   489.56   502.62   518.39
eigval :      538.47   540.70   579.22   593.00   603.30   617.80
eigval :      639.93   652.80   672.88   676.71   684.63   690.58
eigval :      701.39   710.77   755.70   770.63   773.42   781.76
eigval :      790.86   796.07   847.21   870.22   877.05   886.33
eigval :      896.00   898.03   900.36   904.75   912.01   922.28
eigval :      925.83   930.39   934.37   937.70   954.73  1009.14
eigval :     1015.94  1072.43  1075.15  1082.23  1085.12  1111.09
eigval :     1121.84  1152.33  1163.99  1174.39  1178.14  1180.72
eigval :     1183.34  1210.23  1220.04  1231.15  1235.80  1244.44
eigval :     1251.34  1279.18  1295.02  1300.14  1331.48  1339.81
eigval :     1357.64  1359.18  1364.75  1407.14  1421.23  1424.91
eigval :     1426.94  1457.21  1473.24  1481.92  1486.21  1548.16
eigval :     1567.46  1575.56  1576.54  1577.35  1589.29  1597.99
eigval :     1612.31  1672.01  1685.71  3080.12  3081.27  3082.74
eigval :     3085.14  3086.93  3089.53  3091.45  3092.63  3094.40
eigval :     3095.75  3097.93  3099.13  3099.37  3100.63  3101.69

   temp. (K)  partition function   enthalpy   heat capacity  entropy
                                   cal/mol     cal/K/mol   cal/K/mol   J/K/mol
 298.15  VIB  0.937E+08            11752.020     78.947     70.010
         ROT  0.171E+08              888.752      2.981     36.081
         INT  0.161E+16            12640.773     81.928    106.091
         TR   0.698E+28             1481.254      4.968     43.625
         TOT                       14122.0264    86.8965   149.7164   626.4136

       T/K    H(0)-H(T)+PV         H(T)/Eh          T*S/Eh         G(T)/Eh
   ------------------------------------------------------------------------
    298.15    0.225049E-01    0.348064E+00    0.711351E-01    0.276929E+00
   ------------------------------------------------------------------------

         :::::::::::::::::::::::::::::::::::::::::::::::::::::
         ::                  THERMODYNAMIC                  ::
         :::::::::::::::::::::::::::::::::::::::::::::::::::::
         :: total free energy         -74.124814057005 Eh   ::
         ::.................................................::
         :: total energy              -74.401743026826 Eh   ::
         :: zero point energy           0.325559200324 Eh   ::
         :: G(RRHO) w/o ZPVE           -0.048630230502 Eh   ::
         :: G(RRHO) contrib.            0.276928969822 Eh   ::
         :::::::::::::::::::::::::::::::::::::::::::::::::::::

           -------------------------------------------------
          | TOTAL ENERGY              -74.401743026826 Eh   |
          | TOTAL ENTHALPY            -74.053678944858 Eh   |
          | TOTAL FREE ENERGY         -74.124814057005 Eh   |
          | GRADIENT NORM               0.000078969097 Eh/α |
          | HOMO-LUMO GAP               1.247058716969 eV   |
           -------------------------------------------------

 * finished run on 2025/08/26 at 12:44:02.675
