   * xtb version 6.7.1 (edcfbbe) compiled by 'albert@albert-system' on 2024-07-22

   ID    Z sym.   atoms
    1    8 O      1, 10
    2    6 C      2-9, 11-13, 15-29
    3    7 N      14
    4    1 H      30-44

          program call               : xtb data2507/gas/Cz–AQ/Cz–AQ_gas_S0_crest.xyz --gfn 2 --ohess vtight --parallel 40 --molden --ceasefiles --namespace data2507/gas/Cz–AQ/Cz–AQ_gas_S0_finalOpt
          :  Hamiltonian                  GFN2-xTB          :
 * total energy  :   -74.4017400 Eh     change       -0.1054133E-08 Eh
 * total energy  :   -74.4017404 Eh     change       -0.4058300E-06 Eh
 * total energy  :   -74.4017404 Eh     change        0.1134663E-07 Eh
 * total energy  :   -74.4017409 Eh     change       -0.5481362E-06 Eh
 * total energy  :   -74.4017416 Eh     change       -0.7240378E-06 Eh
 * total energy  :   -74.4017421 Eh     change       -0.4359366E-06 Eh
 * total energy  :   -74.4017421 Eh     change       -0.2950190E-07 Eh
 * total energy  :   -74.4017424 Eh     change       -0.3034076E-06 Eh
 * total energy  :   -74.4017424 Eh     change       -0.5747481E-08 Eh
   *** GEOMETRY OPTIMIZATION CONVERGED AFTER 9 ITERATIONS ***

 final structure:
================
44
 xtb: 6.7.1 (edcfbbe)
O            3.73841364985210        2.39960318596906        1.35124479305227
C            3.39183796274983        1.39189849836475        0.76112160341519
C            4.37442211901146        0.45316121091103        0.17386301942797
C            5.73075410862706        0.74237465817457        0.29793350186198
C            6.68469232465707       -0.10321734344988       -0.23785034550081
C            6.29313288017895       -1.25355277479331       -0.90709062591226
C            4.94951324785726       -1.55240730160125       -1.03682949180488
C            3.97904929012240       -0.70867073125744       -0.50146322517777
C            2.55576498182811       -1.07201885421332       -0.66462381049765
O            2.20869303709620       -2.09105739646953       -1.23124226608331
C            1.57304066432279       -0.12383676120813       -0.09109420964587
C            0.22225385302212       -0.40705849180692       -0.23863609530227
C           -0.74789581528536        0.44528911796756        0.28366147301501
N           -2.09858512895973        0.15021036399505        0.13176810011166
C           -2.68968951038018       -1.08475003463765        0.35101400384114
C           -2.12816907471793       -2.26686756808702        0.81003184177892
C           -2.96394763849450       -3.35530788961723        0.97827589124297
C           -4.32782016299196       -3.27454665517391        0.71033425414356
C           -4.89723943658797       -2.09161781578403        0.28232160039121
C           -4.07703404534778       -0.98579540883564        0.10542264505727
C           -4.32936403487446        0.37228022216802       -0.29251589796062
C           -5.47594190390811        1.05148864271265       -0.68063684175125
C           -5.36728951306217        2.38025054607332       -1.04069147987596
C           -4.13238465795673        3.02307988710068       -1.03597412949096
C           -2.97744981700497        2.36658992815592       -0.65284041709980
C           -3.08570910447472        1.04118243286975       -0.25881904466276
C           -0.34579534934120        1.59947894833141        0.96259905424608
C            0.99445795753924        1.88644095596053        1.10328530602035
C            1.97207777650424        1.03807676039136        0.58349815790490
H            6.01316177638720        1.64319771830907        0.82256842462911
H            7.73331454568445        0.13299922214781       -0.13512182395118
H            7.03590532736527       -1.91558396992412       -1.32647253676631
H            4.62199973957048       -2.44273092845705       -1.55312929688060
H           -0.05990274634413       -1.29136470194541       -0.79059233390550
H           -1.07685032482776       -2.34095430930654        1.04171756728378
H           -2.54817825438018       -4.28805703946217        1.32884780729954
H           -4.94648948060309       -4.14813618234260        0.85094508974515
H           -5.95757409432723       -2.02118205780860        0.09312897897675
H           -6.42885575919071        0.54518694635135       -0.70499046885435
H           -6.24694912522503        2.92853720245920       -1.34271827199279
H           -4.07291469131345        4.05662178812996       -1.34305611069388
H           -2.02390156001545        2.87168759512942       -0.67879732813197
H           -1.09114295369888        2.24938867376377        1.39505638434044
H            1.31828035613736        2.77128038374554        1.63103902335752

          :  Hamiltonian                  GFN2-xTB          :
         :: gradient norm              0.000194591709 Eh/a0 ::
         :: HOMO-LUMO gap              1.245548855447 eV    ::
         :: SCC energy               -75.701251008034 Eh    ::
         :: -> dispersion             -0.058375856016 Eh    ::
         :: repulsion energy           1.299508587903 Eh    ::

    * Orbital Energies and Occupations

         #    Occupation            Energy/Eh            Energy/eV
      -------------------------------------------------------------
         1        2.0000           -0.7157529             -19.4766
       ...           ...                  ...                  ...
        56        2.0000           -0.4399787             -11.9724
        57        2.0000           -0.4344666             -11.8224
        58        2.0000           -0.4313011             -11.7363
        59        2.0000           -0.4294643             -11.6863
        60        2.0000           -0.4288042             -11.6684
        61        2.0000           -0.4270107             -11.6196
        62        2.0000           -0.4245136             -11.5516
        63        2.0000           -0.4236550             -11.5282
        64        2.0000           -0.4120656             -11.2129
        65        2.0000           -0.4114661             -11.1966
        66        2.0000           -0.3940783             -10.7234
        67        2.0000           -0.3853919             -10.4870
        68        2.0000           -0.3725211             -10.1368 (HOMO)
        69                         -0.3267479              -8.8913 (LUMO)
        70                         -0.2815570              -7.6616
        71                         -0.2550020              -6.9390
        72                         -0.2493150              -6.7842
        73                         -0.2469153              -6.7189
        74                         -0.2285634              -6.2195
        75                         -0.2075132              -5.6467
        76                         -0.1924235              -5.2361
        77                         -0.1911365              -5.2011
        78                         -0.1861129              -5.0644
        79                         -0.1208701              -3.2890
       ...                                ...                  ...
       131                          0.7387999              20.1038
      -------------------------------------------------------------
                  HL-Gap            0.0457732 Eh            1.2456 eV

     #   Z          covCN         q      C6AA      α(0)
     1   8 O        0.858    -0.369    21.076     6.155
     2   6 C        2.830     0.223    23.305     7.911
     3   6 C        2.974    -0.012    28.305     8.727
     4   6 C        2.924    -0.016    28.402     8.740
     5   6 C        2.918    -0.020    28.499     8.754
     6   6 C        2.918    -0.020    28.516     8.757
     7   6 C        2.924    -0.015    28.397     8.739
     8   6 C        2.974    -0.013    28.333     8.731
     9   6 C        2.830     0.225    23.268     7.904
    10   8 O        0.858    -0.364    20.968     6.139
    11   6 C        2.974    -0.013    28.324     8.730
    12   6 C        2.927    -0.033    28.816     8.803
    13   6 C        2.910     0.074    26.342     8.416
    14   7 N        2.801    -0.037    21.958     6.960
    15   6 C        3.068     0.047    26.887     8.502
    16   6 C        2.910    -0.048    29.199     8.861
    17   6 C        2.924    -0.031    28.771     8.796
    18   6 C        2.920    -0.038    28.941     8.822
    19   6 C        2.913    -0.032    28.787     8.798
    20   6 C        3.067    -0.014    28.289     8.721
    21   6 C        3.066    -0.014    28.285     8.721
    22   6 C        2.913    -0.032    28.787     8.798
    23   6 C        2.920    -0.038    28.952     8.824
    24   6 C        2.924    -0.032    28.800     8.801
    25   6 C        2.910    -0.050    29.236     8.866
    26   6 C        3.068     0.046    26.897     8.504
    27   6 C        2.920    -0.039    28.962     8.825
    28   6 C        2.923    -0.017    28.423     8.743
    29   6 C        2.974    -0.020    28.491     8.756
    30   1 H        0.926     0.068     2.102     2.267
    31   1 H        0.926     0.048     2.342     2.393
    32   1 H        0.926     0.048     2.344     2.394
    33   1 H        0.926     0.068     2.111     2.272
    34   1 H        0.926     0.075     2.032     2.229
    35   1 H        0.926     0.033     2.539     2.492
    36   1 H        0.926     0.035     2.520     2.482
    37   1 H        0.926     0.033     2.551     2.498
    38   1 H        0.926     0.035     2.523     2.484
    39   1 H        0.926     0.035     2.519     2.482
    40   1 H        0.926     0.032     2.555     2.500
    41   1 H        0.926     0.033     2.542     2.493
    42   1 H        0.926     0.030     2.588     2.516
    43   1 H        0.926     0.055     2.261     2.352
    44   1 H        0.926     0.071     2.075     2.252

molecular dipole:
                 x           y           z       tot (Debye)
 q only:       -0.098      -0.052      -0.022
   full:        0.006      -0.031      -0.027       0.106

 projected vibrational frequencies (cm⁻¹)
eigval :       -0.00    -0.00     0.00     0.00     0.00     0.00
eigval :       19.37    31.27    37.54    42.64   100.15   102.10
eigval :      111.10   133.98   145.51   152.57   163.91   195.68
eigval :      244.13   264.40   272.73   278.41   301.89   370.72
eigval :      371.35   383.23   392.93   397.38   403.80   415.97
eigval :      421.88   437.06   447.19   489.57   502.59   518.40
eigval :      538.47   540.70   579.01   592.81   603.36   618.27
eigval :      639.65   652.92   672.87   676.60   684.61   690.61
eigval :      701.41   710.77   755.69   770.62   773.44   781.75
eigval :      790.83   796.06   847.22   870.24   877.03   886.33
eigval :      895.99   898.04   900.35   904.74   911.83   922.28
eigval :      925.74   930.37   934.36   937.71   954.73  1009.18
eigval :     1015.89  1072.37  1075.09  1082.20  1085.15  1111.06
eigval :     1121.83  1152.31  1163.95  1174.40  1178.15  1180.73
eigval :     1183.29  1210.22  1219.96  1231.15  1235.79  1244.41
eigval :     1251.32  1279.18  1295.08  1300.16  1331.52  1339.86
eigval :     1357.62  1359.19  1364.81  1407.12  1421.25  1424.94
eigval :     1426.92  1457.23  1473.26  1481.89  1486.22  1548.22
eigval :     1567.53  1575.57  1576.55  1577.39  1589.31  1598.01
eigval :     1612.32  1671.87  1685.57  3080.09  3081.21  3082.81
eigval :     3085.09  3086.86  3089.60  3091.43  3092.60  3094.33
eigval :     3095.83  3097.88  3099.09  3099.44  3100.58  3101.61

   temp. (K)  partition function   enthalpy   heat capacity  entropy
                                   cal/mol     cal/K/mol   cal/K/mol   J/K/mol
 298.15  VIB  0.937E+08            11752.688     78.950     70.014
         ROT  0.171E+08              888.752      2.981     36.082
         INT  0.161E+16            12641.440     81.931    106.096
         TR   0.698E+28             1481.254      4.968     43.625
         TOT                       14122.6941    86.8988   149.7216   626.4354

       T/K    H(0)-H(T)+PV         H(T)/Eh          T*S/Eh         G(T)/Eh
   ------------------------------------------------------------------------
    298.15    0.225059E-01    0.348062E+00    0.711376E-01    0.276924E+00
   ------------------------------------------------------------------------

         :::::::::::::::::::::::::::::::::::::::::::::::::::::
         ::                  THERMODYNAMIC                  ::
         :::::::::::::::::::::::::::::::::::::::::::::::::::::
         :: total free energy         -74.124818435896 Eh   ::
         ::.................................................::
         :: total energy              -74.401742420134 Eh   ::
         :: zero point energy           0.325555622228 Eh   ::
         :: G(RRHO) w/o ZPVE           -0.048631637991 Eh   ::
         :: G(RRHO) contrib.            0.276923984238 Eh   ::
         :::::::::::::::::::::::::::::::::::::::::::::::::::::

           -------------------------------------------------
          | TOTAL ENERGY              -74.401742420134 Eh   |
          | TOTAL ENTHALPY            -74.053680852257 Eh   |
          | TOTAL FREE ENERGY         -74.124818435896 Eh   |
          | GRADIENT NORM               0.000194688584 Eh/α |
          | HOMO-LUMO GAP               1.245552528294 eV   |
           -------------------------------------------------

 * finished run on 2025/08/26 at 12:44:55.855
