   * xtb version 6.7.1 (edcfbbe) compiled by 'albert@albert-system' on 2024-07-22

   ID    Z sym.   atoms
    1    8 O      1, 10
    2    6 C      2-9, 11-13, 15-29
    3    7 N      14
    4    1 H      30-44

          program call               : xtb data2507/gas/Cz–AQ/Cz–AQ_gas_S0_finalOpt.xtbopt.xyz --gfn 2 --spinpol --tblite --uhf 2 --ohess vtight --parallel 40 --molden --ceasefiles --namespace data2507/gas/Cz–AQ/Cz–AQ_gas_T1_preOpt
 * total energy  :   -74.3433934 Eh     change       -0.7791371E-08 Eh
 * total energy  :   -74.3462201 Eh     change       -0.2826677E-02 Eh
 * total energy  :   -74.3468631 Eh     change       -0.6429583E-03 Eh
 * total energy  :   -74.3469201 Eh     change       -0.5705830E-04 Eh
 * total energy  :   -74.3469566 Eh     change       -0.3648462E-04 Eh
 * total energy  :   -74.3469715 Eh     change       -0.1488459E-04 Eh
 * total energy  :   -74.3469851 Eh     change       -0.1357961E-04 Eh
 * total energy  :   -74.3469957 Eh     change       -0.1065139E-04 Eh
 * total energy  :   -74.3470032 Eh     change       -0.7525419E-05 Eh
 * total energy  :   -74.3470093 Eh     change       -0.6098335E-05 Eh
 * total energy  :   -74.3470245 Eh     change       -0.3281394E-05 Eh
 * total energy  :   -74.3470280 Eh     change       -0.3474336E-05 Eh
 * total energy  :   -74.3470314 Eh     change       -0.3354340E-05 Eh
 * total energy  :   -74.3470341 Eh     change       -0.2701440E-05 Eh
 * total energy  :   -74.3470362 Eh     change       -0.2140072E-05 Eh
 * total energy  :   -74.3470371 Eh     change       -0.8819375E-06 Eh
 * total energy  :   -74.3470375 Eh     change       -0.3651149E-06 Eh
 * total energy  :   -74.3470377 Eh     change       -0.2052910E-06 Eh
 * total energy  :   -74.3470377 Eh     change       -0.2747598E-08 Eh
   *** GEOMETRY OPTIMIZATION CONVERGED AFTER 22 ITERATIONS ***

 final structure:
================
44
 xtb: 6.7.1 (edcfbbe)
O            3.72265010262283        2.35292775927784        1.47323091587961
C            3.37539855188305        1.35666350491660        0.82413467915673
C            4.32872027494022        0.45547525917546        0.19213802062959
C            5.69707459256425        0.73375443094685        0.33448207059440
C            6.63871482624329       -0.08959923539429       -0.22999318849973
C            6.24157983837986       -1.21545721825666       -0.95570395700681
C            4.90872059424906       -1.50394022460771       -1.10662230615973
C            3.92940906847972       -0.67192649003313       -0.54015959674964
C            2.53336798016181       -1.02561951311904       -0.74476310661149
O            2.17883771330170       -2.02118970773008       -1.38947893366935
C            1.58017087539590       -0.11770048044412       -0.12174737521146
C            0.21573905681301       -0.39497123317352       -0.26515777487042
C           -0.73313407074876        0.42925620916690        0.30441011643084
N           -2.09163710267414        0.13656243717682        0.15114553272949
C           -2.68783936355821       -1.08664745764476        0.38567423679561
C           -2.12926927098132       -2.26434144717259        0.86363691796095
C           -2.96835795257834       -3.34960770190730        1.03742961263979
C           -4.32876966949690       -3.26905992795905        0.75295900214368
C           -4.89442326209489       -2.09077230949114        0.29736876332806
C           -4.07280142477488       -0.98974116625948        0.11460504295665
C           -4.31096347792762        0.36348794119939       -0.31581181032624
C           -5.44296915669095        1.05087002697665       -0.72314707264732
C           -5.31219539697810        2.37677070519717       -1.09935737082436
C           -4.07169755051397        3.00845256098558       -1.08581167599253
C           -2.92806082023607        2.34304256004556       -0.68382821620417
C           -3.05832158515153        1.02069461297858       -0.28028944626290
C           -0.33003069228567        1.56935466016689        1.02755570628850
C            1.00035193558647        1.85376860215264        1.16255702935336
C            1.98269062440247        1.00948191250983        0.61496401548099
H            5.97412077380433        1.60908738209876        0.90316128080928
H            7.68870397749007        0.13333163177239       -0.11180122639382
H            6.98493191750343       -1.86003817681479       -1.40088919505052
H            4.57243088324629       -2.36623945684151       -1.66319537092456
H           -0.07299372518007       -1.25470859812966       -0.85150936492199
H           -1.07833967256786       -2.33237458193579        1.09779499451520
H           -2.55864644419317       -4.27886895577474        1.40298955693753
H           -4.95096637395924       -4.13913962211979        0.89821382995944
H           -5.95189460729966       -2.02644582621333        0.09164192800261
H           -6.40356303660594        0.55972635666712       -0.74909361197278
H           -6.18246590306435        2.92969244224190       -1.41900078869117
H           -3.99926255204958        4.03822094417427       -1.40142619371617
H           -1.96651304437628        2.83258902185553       -0.69849577639011
H           -1.07808853958969        2.19217881408998        1.49393456865961
H            1.34327340236839        2.71463460051783        1.71778062904594

 projected vibrational frequencies (cm⁻¹)
eigval :       -0.00    -0.00    -0.00     0.00     0.00     0.00
eigval :       23.39    30.18    37.70    53.28    99.59   108.05
eigval :      127.34   137.71   147.46   151.95   162.90   200.84
eigval :      244.61   263.89   270.28   282.51   309.12   359.35
eigval :      377.55   381.56   389.10   397.44   412.13   421.01
eigval :      427.00   434.65   445.34   492.15   494.43   514.99
eigval :      536.31   539.49   558.62   585.90   591.48   600.46
eigval :      619.03   634.58   636.52   661.29   673.78   684.87
eigval :      694.20   710.55   717.58   754.23   769.40   777.68
eigval :      778.11   799.09   827.72   867.55   872.02   876.13
eigval :      878.39   891.36   898.20   903.91   907.55   914.41
eigval :      915.06   917.24   922.84   923.46   937.96  1002.77
eigval :     1012.90  1068.28  1071.03  1076.81  1082.32  1109.23
eigval :     1123.23  1142.26  1150.24  1164.80  1172.93  1176.61
eigval :     1178.20  1183.17  1205.02  1210.76  1220.85  1230.01
eigval :     1240.59  1242.82  1282.85  1291.25  1334.41  1340.15
eigval :     1360.92  1364.07  1368.88  1378.94  1387.58  1410.57
eigval :     1412.90  1427.74  1448.02  1461.32  1479.82  1480.83
eigval :     1512.81  1544.11  1550.17  1555.60  1566.47  1572.74
eigval :     1579.04  1582.01  1603.34  3078.20  3084.62  3085.16
eigval :     3085.70  3085.91  3089.94  3091.75  3093.21  3095.23
eigval :     3095.62  3096.13  3096.96  3098.83  3102.63  3104.06

   temp. (K)  partition function   enthalpy   heat capacity  entropy
                                   cal/mol     cal/K/mol   cal/K/mol   J/K/mol
 298.15  VIB  0.587E+08            11800.642     80.143     69.852
         ROT  0.170E+08              888.752      2.981     36.068
         INT  0.999E+15            12689.395     83.124    105.920
         TR   0.698E+28             1481.254      4.968     43.625
         TOT                       14170.6488    88.0924   149.5449   625.6959

       T/K    H(0)-H(T)+PV         H(T)/Eh          T*S/Eh         G(T)/Eh
   ------------------------------------------------------------------------
    298.15    0.225824E-01    0.345444E+00    0.710536E-01    0.274390E+00
   ------------------------------------------------------------------------

         :::::::::::::::::::::::::::::::::::::::::::::::::::::
         ::                  THERMODYNAMIC                  ::
         :::::::::::::::::::::::::::::::::::::::::::::::::::::
         :: total free energy         -74.072647518018 Eh   ::
         ::.................................................::
         :: total energy              -74.347037667188 Eh   ::
         :: zero point energy           0.322861393866 Eh   ::
         :: G(RRHO) w/o ZPVE           -0.048471244697 Eh   ::
         :: G(RRHO) contrib.            0.274390149169 Eh   ::
         :::::::::::::::::::::::::::::::::::::::::::::::::::::

           -------------------------------------------------
          | TOTAL ENERGY              -74.347037667188 Eh   |
          | TOTAL ENTHALPY            -74.001593907096 Eh   |
          | TOTAL FREE ENERGY         -74.072647518018 Eh   |
          | GRADIENT NORM               0.000067888365 Eh/α |
           -------------------------------------------------

 * finished run on 2025/08/26 at 12:44:58.460
