   * xtb version 6.7.1 (edcfbbe) compiled by 'albert@albert-system' on 2024-07-22

   ID    Z sym.   atoms
    1    8 O      1, 10
    2    6 C      2-9, 11-13, 15-29
    3    7 N      14
    4    1 H      30-44

          program call               : xtb data2507/gas/Cz–AQ/Cz–AQ_gas_T1_crest.xyz --gfn 2 --spinpol --tblite --uhf 2 --ohess vtight --parallel 40 --molden --ceasefiles --namespace data2507/gas/Cz–AQ/Cz–AQ_gas_T1_finalOpt
 * total energy  :   -74.3470127 Eh     change        0.4815078E-08 Eh
 * total energy  :   -74.3470278 Eh     change       -0.1502864E-04 Eh
 * total energy  :   -74.3470326 Eh     change       -0.4795803E-05 Eh
 * total energy  :   -74.3470332 Eh     change       -0.6562914E-06 Eh
 * total energy  :   -74.3470338 Eh     change       -0.6043412E-06 Eh
 * total energy  :   -74.3470344 Eh     change       -0.6072583E-06 Eh
 * total energy  :   -74.3470351 Eh     change       -0.6812850E-06 Eh
 * total energy  :   -74.3470359 Eh     change       -0.7326967E-06 Eh
 * total energy  :   -74.3470364 Eh     change       -0.5915058E-06 Eh
 * total energy  :   -74.3470369 Eh     change       -0.4515221E-06 Eh
 * total energy  :   -74.3470371 Eh     change       -0.1923336E-06 Eh
 * total energy  :   -74.3470373 Eh     change       -0.1831334E-06 Eh
 * total energy  :   -74.3470374 Eh     change       -0.1245317E-06 Eh
 * total energy  :   -74.3470375 Eh     change       -0.1217952E-06 Eh
 * total energy  :   -74.3470376 Eh     change       -0.1019004E-06 Eh
 * total energy  :   -74.3470377 Eh     change       -0.7447537E-07 Eh
   *** GEOMETRY OPTIMIZATION CONVERGED AFTER 16 ITERATIONS ***

 final structure:
================
44
 xtb: 6.7.1 (edcfbbe)
O            3.73833367113375        2.32763939674765       -1.48045127340657
C            3.38504782039750        1.33576304736978       -0.82791992887107
C            4.33282376503631        0.43181205058590       -0.19153788302795
C            5.70281499772665        0.70188563677660       -0.33388612969927
C            6.63938409358017       -0.12396954036279        0.23534959689185
C            6.23539547122348       -1.24408632383180        0.96613506097418
C            4.90083941736544       -1.52469909576678        1.11688259305962
C            3.92666236439945       -0.69020897946778        0.54523999399815
C            2.52853596657950       -1.03588177240520        0.74922792519757
O            2.16796864167187       -2.02698143303756        1.39753111341426
C            1.58091538801090       -0.12547452887320        0.12139684749391
C            0.21485506373340       -0.39502102895704        0.26410456954050
C           -0.72885783941919        0.43326369382059       -0.30803386904557
N           -2.08918174671881        0.14918310091972       -0.15387062278969
C           -3.04908015499195        1.03884121977692        0.28113131590646
C           -2.90922449363253        2.35999064514871        0.68532962858209
C           -4.04727377115403        3.03189682645181        1.09229132830023
C           -5.29150370567960        2.40768154413305        1.10983965433382
C           -5.43188516972899        1.08316398911510        0.73217712190077
C           -4.30565009112678        0.38935818754662        0.31976543864922
C           -4.07717263544670       -0.96476616007644       -0.11316230418866
C           -4.90608846407636       -2.06035931238820       -0.29563816706946
C           -4.34886953795565       -3.24148215077890       -0.75431769368734
C           -2.98957938661512       -3.33032401700867       -1.04172995116308
C           -2.14328700969275       -2.25061289691993       -0.86831128918004
C           -2.69352487631079       -1.07001205453177       -0.38788796777842
C           -0.31898897707326        1.56919527879535       -1.03385393389566
C            1.01309251642266        1.84540409307862       -1.16926766161567
C            1.99024357565403        0.99714992537705       -0.61853617981436
H            5.98516303335486        1.57306094725530       -0.90633142730641
H            7.69070121899080        0.09258885229580        0.11711440948351
H            6.97478907530970       -1.89040412430844        1.41537815871852
H            4.55926468138075       -2.38248845620394        1.67719780061288
H           -0.07926510953503       -1.25179597337326        0.85213644487087
H           -1.94461564404746        2.84358442833687        0.69667523350301
H           -3.96740687289593        4.06083563791709        1.40881367466108
H           -6.15711891026145        2.96539987761967        1.43375007877793
H           -6.39539479941570        0.59793763464015        0.76106645824933
H           -5.96267268881851       -1.98973081633613       -0.08743543034052
H           -4.97691769478506       -4.10733489891981       -0.89965360428613
H           -2.58658738569531       -4.26169181237209       -1.40939951785610
H           -1.09320768833936       -2.32482307169201       -1.10447765655943
H           -1.06339389024429        2.19527473468774       -1.50172792841765
H            1.36130560338929        2.70262598661535       -1.72683155412083

 projected vibrational frequencies (cm⁻¹)
eigval :       -0.00    -0.00     0.00     0.00     0.00     0.00
eigval :       23.38    30.09    37.69    53.24    99.57   107.95
eigval :      127.31   137.78   147.73   151.95   162.74   200.64
eigval :      244.56   263.92   270.26   282.51   309.01   359.28
eigval :      377.49   381.55   389.20   397.47   412.18   421.10
eigval :      427.02   434.50   445.39   491.96   494.54   515.00
eigval :      536.33   539.45   558.56   585.91   591.47   600.51
eigval :      619.03   634.61   636.52   661.33   673.77   684.83
eigval :      694.22   710.55   717.60   754.25   769.46   777.73
eigval :      778.12   799.12   827.63   867.61   872.00   876.18
eigval :      878.42   891.18   898.22   903.96   907.46   914.42
eigval :      915.04   917.29   922.82   923.48   937.97  1002.94
eigval :     1012.89  1068.20  1071.00  1076.83  1082.29  1109.20
eigval :     1123.17  1142.20  1150.16  1164.69  1172.81  1176.62
eigval :     1178.25  1183.18  1205.05  1210.70  1220.83  1230.01
eigval :     1240.42  1242.83  1282.92  1291.41  1334.46  1340.18
eigval :     1360.89  1363.91  1368.91  1378.88  1387.63  1410.53
eigval :     1412.84  1427.75  1448.09  1461.43  1479.81  1480.88
eigval :     1512.83  1544.20  1550.04  1555.67  1566.40  1572.72
eigval :     1579.00  1582.05  1603.36  3078.19  3084.57  3085.18
eigval :     3085.70  3085.90  3089.93  3091.71  3093.17  3095.13
eigval :     3095.50  3096.11  3096.89  3098.64  3102.61  3104.01

   temp. (K)  partition function   enthalpy   heat capacity  entropy
                                   cal/mol     cal/K/mol   cal/K/mol   J/K/mol
 298.15  VIB  0.590E+08            11801.144     80.142     69.856
         ROT  0.170E+08              888.752      2.981     36.068
         INT  0.100E+16            12689.896     83.123    105.924
         TR   0.698E+28             1481.254      4.968     43.625
         TOT                       14171.1501    88.0907   149.5494   625.7148

       T/K    H(0)-H(T)+PV         H(T)/Eh          T*S/Eh         G(T)/Eh
   ------------------------------------------------------------------------
    298.15    0.225832E-01    0.345441E+00    0.710558E-01    0.274386E+00
   ------------------------------------------------------------------------

         :::::::::::::::::::::::::::::::::::::::::::::::::::::
         ::                  THERMODYNAMIC                  ::
         :::::::::::::::::::::::::::::::::::::::::::::::::::::
         :: total free energy         -74.072652129382 Eh   ::
         ::.................................................::
         :: total energy              -74.347037702686 Eh   ::
         :: zero point energy           0.322858166598 Eh   ::
         :: G(RRHO) w/o ZPVE           -0.048472593295 Eh   ::
         :: G(RRHO) contrib.            0.274385573304 Eh   ::
         :::::::::::::::::::::::::::::::::::::::::::::::::::::

           -------------------------------------------------
          | TOTAL ENERGY              -74.347037702686 Eh   |
          | TOTAL ENTHALPY            -74.001596370890 Eh   |
          | TOTAL FREE ENERGY         -74.072652129382 Eh   |
          | GRADIENT NORM               0.000038496057 Eh/α |
           -------------------------------------------------

 * finished run on 2025/08/26 at 12:46:11.024
