   * xtb version 6.7.1 (edcfbbe) compiled by 'albert@albert-system' on 2024-07-22

   ID    Z sym.   atoms
    1    7 N      1, 8, 18, 42, 61, 67
    2    6 C      2-7, 9-17, 19-41, 43-60, 62-66, 68-71
    3    1 H      72-113

          program call               : xtb data2507/toluene/3,6-T2C/3,6-T2C.xyz --gfn 2 --gbsa toluene --ohess vtight --parallel 40 --molden --ceasefiles --namespace data2507/toluene/3,6-T2C/3,6-T2C_toluene_S0_preOpt
      * Solvation model:               GBSA
        Solvent                        toluene
        Solvent mass                       9.2140E+01 g/mol
          :  Hamiltonian                  GFN2-xTB          :
 * total energy  :  -178.1793109 Eh     change       -0.3482910E-08 Eh
 * total energy  :  -178.1980467 Eh     change       -0.1873579E-01 Eh
 * total energy  :  -178.2054659 Eh     change       -0.7419217E-02 Eh
 * total energy  :  -178.2086556 Eh     change       -0.3189765E-02 Eh
 * total energy  :  -178.2107018 Eh     change       -0.2046115E-02 Eh
 * total energy  :  -178.2113827 Eh     change       -0.6809640E-03 Eh
 * total energy  :  -178.2119418 Eh     change       -0.5590459E-03 Eh
 * total energy  :  -178.2122557 Eh     change       -0.3139274E-03 Eh
 * total energy  :  -178.2127487 Eh     change       -0.4930567E-03 Eh
 * total energy  :  -178.2130849 Eh     change       -0.3361785E-03 Eh
 * total energy  :  -178.2151096 Eh     change       -0.1134949E-05 Eh
 * total energy  :  -178.2151107 Eh     change       -0.1131148E-05 Eh
 * total energy  :  -178.2151116 Eh     change       -0.8865514E-06 Eh
 * total energy  :  -178.2151124 Eh     change       -0.7304494E-06 Eh
 * total energy  :  -178.2151130 Eh     change       -0.6384654E-06 Eh
 * total energy  :  -178.2151135 Eh     change       -0.5421734E-06 Eh
 * total energy  :  -178.2151140 Eh     change       -0.4260629E-06 Eh
 * total energy  :  -178.2151144 Eh     change       -0.4710395E-06 Eh
 * total energy  :  -178.2151144 Eh     change       -0.6386358E-08 Eh
   *** GEOMETRY OPTIMIZATION CONVERGED AFTER 94 ITERATIONS ***

 final structure:
================
113
 xtb: 6.7.1 (edcfbbe)
N           11.81571144830600       -6.30910665449694       -0.38190706539304
C           10.81467344178607       -5.74967541276483       -0.32690144816612
C            9.58459877860698       -5.06006226532680       -0.26131736879098
C            9.45932057549941       -3.93114332031419        0.55115490287976
C            8.26093105549788       -3.25050702025842        0.60632457800372
C            7.16918624267227       -3.67760345886071       -0.15254061185866
C            5.87882490141146       -3.01123988094129       -0.13237030542448
N            4.74677193211321       -3.66398922512136       -0.22665915710789
C            3.76387800320193       -2.73084076748775       -0.14949739691704
C            2.35757985408825       -2.94388028816688       -0.16029908391002
C            1.81383619764373       -4.23055963387605       -0.24097373321169
C            0.45631413902160       -4.41627029289031       -0.21476349047835
C           -0.40151461220342       -3.31300727218735       -0.09694713723808
C           -1.85766099394176       -3.50666879381694       -0.05215564905530
C           -2.65464275575786       -2.76913957004322        0.82263509536821
C           -4.02066817533106       -2.95270411164556        0.86878473510571
C           -4.63843069344833       -3.88549432310398        0.03463477225570
N           -6.02306325978067       -4.07627342306517        0.08010691109574
C           -6.69760912329120       -4.02342086427539        1.30629964492062
C           -7.96945753107115       -3.45650546708622        1.39085272981099
C           -8.63393525889934       -3.41340248752038        2.60148170380012
C           -8.04264851952270       -3.92388076069777        3.74600025666620
C           -6.77741074975388       -4.48363507131618        3.66872194529118
C           -6.10860597224778       -4.53932456143362        2.46103462012259
C           -6.73330460981579       -4.33179213169383       -1.09969957172351
C           -7.79835196729593       -5.23266590107501       -1.10526637329532
C           -8.49784044982184       -5.47702273019823       -2.27148315576036
C           -8.14491367992280       -4.83830515442275       -3.44946777830309
C           -7.08487262565911       -3.94593579970367       -3.45067172164241
C           -6.38559444794104       -3.68768329521874       -2.28741806580913
C           -3.84616765897125       -4.62497028984966       -0.84470339012817
C           -2.48078399083139       -4.43636393918243       -0.88388088429039
C            0.13908555326593       -2.04027469461428       -0.02351461398347
C            1.51977711029483       -1.80997984106275       -0.06059820081189
C            2.09797246353502       -0.47515315797448       -0.02477414191365
C            1.29221331913736        0.66808868938026       -0.02185056115676
C            1.80882941855454        1.95255820741328       -0.02908398822912
C            0.91776895804743        3.11876205052432       -0.03355555874508
C            1.22061279158097        4.25615490141709        0.71476237076336
C            0.38160443636373        5.35012868105971        0.72029069574709
C           -0.78793603272596        5.35086021823229       -0.04221233681725
N           -1.63798758353884        6.45869535352184       -0.04455147674015
C           -1.10718737421710        7.75358717635031        0.02549060741385
C            0.07306979447955        8.07310858920012       -0.64591517437376
C            0.58997329714567        9.35256305665108       -0.57517337533339
C           -0.06145226735925       10.33386726244238        0.15471558336630
C           -1.23579419274228       10.02253837074583        0.82118740706538
C           -1.75539583680719        8.74354994947312        0.76402820491913
C           -3.02545825863355        6.27918368810155       -0.12546958573623
C           -3.64246368204217        5.22083115912443        0.54170213963956
C           -5.01027502578266        5.04543332583382        0.45523876787302
C           -5.78525486221731        5.92304071195152       -0.28587419656659
C           -5.17829177139347        6.97973834616602       -0.94544095601700
C           -3.80994332051719        7.15757317310353       -0.87290089701473
C           -1.08977096882750        4.21956114070576       -0.80274732005679
C           -0.25436417301541        3.12333213083478       -0.78988333291057
C            3.19956252910610        2.11453729521058       -0.05264574969997
C            4.02361203533492        1.01906732499751       -0.05209476287937
C            3.50778030960741       -0.28501007984517       -0.01894093117822
C            4.31639540798586       -1.45598993889172       -0.02148033759179
N            5.68091081931013       -1.65056079495678        0.00269696892933
C            6.70415963185901       -0.69300162579097        0.12666618949665
C            6.81682616150109        0.06208104598794        1.29431169354533
C            7.84159284535740        0.97590666292203        1.42689316236597
C            8.76557694159631        1.13781903765932        0.39110841533347
C            9.81731461516588        2.07251183860157        0.52801210381641
N           10.66867692580737        2.83307131118407        0.64151417521034
C            8.65341547881294        0.38001130285809       -0.77628882271712
C            7.62528489026387       -0.53178089570196       -0.90583747074361
C            7.29495667669972       -4.82649643202257       -0.94055510006007
C            8.48762673031966       -5.51216869161526       -1.00063221615563
H           10.30240852851875       -3.59964338501953        1.13917647569318
H            8.17140614125738       -2.39918915297725        1.26266420743189
H            2.49527210658900       -5.06457947936079       -0.31262563189525
H            0.04222622826943       -5.41263495977034       -0.25733477303008
H           -2.19547947554207       -2.05272248562242        1.48831260219640
H           -4.62195117140492       -2.37251169499160        1.55369450384542
H           -8.42993902843240       -3.04990891701894        0.50204377665785
H           -9.61807075947581       -2.97034501586085        2.65248267421237
H           -8.56394002756857       -3.88594409027634        4.69074710883529
H           -6.31027697082462       -4.88968533453105        4.55436562196228
H           -5.12637632442617       -4.98561489096442        2.40263176032519
H           -8.07035540724456       -5.73975560404858       -0.19084143918152
H           -9.31926413284900       -6.17879263652262       -2.26156551575141
H           -8.69144719655487       -5.03506844003290       -4.35962607870131
H           -6.80517895027748       -3.43900096930588       -4.36294877858591
H           -5.56587179207814       -2.98392626057589       -2.28976881072865
H           -4.31092740137255       -5.35111529764459       -1.49583400446512
H           -1.88780905665309       -5.01111063563856       -1.58018837018054
H           -0.54678215943658       -1.21176385940295        0.04944092388820
H            0.22008007366970        0.56241844672705       -0.00588897029557
H            2.10991851757682        4.27068956409963        1.32788427424900
H            0.62343529453158        6.21397137264461        1.32226207368954
H            0.57729003975841        7.31324278344723       -1.22530105875906
H            1.50328132145512        9.58722517671122       -1.10265378908282
H            0.34285191844432       11.33377864225325        0.20384450939971
H           -1.74805395487879       10.77947856483430        1.39725499697117
H           -2.66666561191291        8.50160711267669        1.29157429792783
H           -3.04239996345782        4.54097229402219        1.12905908607639
H           -5.47515541348282        4.22214390944148        0.97813848947709
H           -6.85428382456090        5.78514668666694       -0.34822963451274
H           -5.77355203780389        7.66662839467890       -1.52952405295090
H           -3.33871983647974        7.97694643638381       -1.39617087268084
H           -1.98329376500091        4.21083604074748       -1.40982899316340
H           -0.49751270847013        2.26829592319841       -1.40373987373699
H            3.62415360418474        3.10622588222888       -0.09962194819805
H            5.09042312418989        1.16697472476575       -0.10082364953805
H            6.09722331193164       -0.07364664575965        2.08808357455822
H            7.93647815174852        1.56345541465772        2.32746644341123
H            9.36928409905624        0.51238113148038       -1.57317014109947
H            7.52872190716782       -1.12283295417826       -1.80400871999518
H            6.43723031669567       -5.16283344456326       -1.50149232673183
H            8.58445199948382       -6.39446502863667       -1.61564585233408

          :  Hamiltonian                  GFN2-xTB          :
         :: gradient norm              0.000097103123 Eh/a0 ::
         :: HOMO-LUMO gap              1.437562404057 eV    ::
         :: SCC energy              -181.630167809966 Eh    ::
         :: -> dispersion             -0.162346344575 Eh    ::
         :: -> Gsolv                  -0.080868609027 Eh    ::
         :: repulsion energy           3.415053368163 Eh    ::

    * Orbital Energies and Occupations

         #    Occupation            Energy/Eh            Energy/eV
      -------------------------------------------------------------
         1        2.0000           -0.7026957             -19.1213
       ...           ...                  ...                  ...
       154        2.0000           -0.4087332             -11.1222
       155        2.0000           -0.4077449             -11.0953
       156        2.0000           -0.4066465             -11.0654
       157        2.0000           -0.4061017             -11.0506
       158        2.0000           -0.4052697             -11.0280
       159        2.0000           -0.4045619             -11.0087
       160        2.0000           -0.4037854             -10.9876
       161        2.0000           -0.3967222             -10.7954
       162        2.0000           -0.3921330             -10.6705
       163        2.0000           -0.3880755             -10.5601
       164        2.0000           -0.3733467             -10.1593
       165        2.0000           -0.3506685              -9.5422
       166        2.0000           -0.3487391              -9.4897 (HOMO)
       167                         -0.2959097              -8.0521 (LUMO)
       168                         -0.2894392              -7.8760
       169                         -0.2642791              -7.1914
       170                         -0.2633517              -7.1662
       171                         -0.2552630              -6.9461
       172                         -0.2498827              -6.7997
       173                         -0.2440258              -6.6403
       174                         -0.2318825              -6.3098
       175                         -0.2307077              -6.2779
       176                         -0.2297288              -6.2512
       177                         -0.2290864              -6.2338
       ...                                ...                  ...
       326                          1.1550365              31.4301
      -------------------------------------------------------------
                  HL-Gap            0.0528294 Eh            1.4376 eV

     #   Z          covCN         q      C6AA      α(0)
     1   7 N        0.911    -0.265    26.858     7.495
     2   6 C        1.912     0.119    28.175     8.572
     3   6 C        2.973     0.019    27.589     8.616
     4   6 C        2.925    -0.018    28.458     8.748
     5   6 C        2.920    -0.032    28.791     8.799
     6   6 C        2.973     0.009    27.814     8.651
     7   6 C        3.186     0.127    24.798     8.126
     8   7 N        1.895    -0.300    28.627     7.932
     9   6 C        3.202     0.061    26.090     8.322
    10   6 C        2.985    -0.004    28.118     8.698
    11   6 C        2.918    -0.033    28.834     8.806
    12   6 C        2.922    -0.035    28.877     8.812
    13   6 C        2.974     0.009    27.817     8.651
    14   6 C        2.976     0.001    28.010     8.681
    15   6 C        2.924    -0.035    28.872     8.812
    16   6 C        2.920    -0.049    29.211     8.863
    17   6 C        2.923     0.064    26.558     8.451
    18   7 N        2.752    -0.079    22.779     7.089
    19   6 C        2.923     0.066    26.531     8.447
    20   6 C        2.922    -0.048    29.194     8.861
    21   6 C        2.919    -0.030    28.756     8.794
    22   6 C        2.919    -0.039    28.980     8.828
    23   6 C        2.919    -0.030    28.756     8.794
    24   6 C        2.922    -0.048    29.195     8.861
    25   6 C        2.923     0.066    26.531     8.447
    26   6 C        2.922    -0.048    29.193     8.860
    27   6 C        2.919    -0.030    28.755     8.794
    28   6 C        2.919    -0.039    28.978     8.828
    29   6 C        2.919    -0.030    28.756     8.794
    30   6 C        2.922    -0.048    29.194     8.861
    31   6 C        2.920    -0.049    29.209     8.863
    32   6 C        2.924    -0.034    28.859     8.810
    33   6 C        2.928    -0.042    29.039     8.837
    34   6 C        2.977    -0.003    28.094     8.694
    35   6 C        2.978     0.001    27.999     8.680
    36   6 C        2.929    -0.041    29.012     8.833
    37   6 C        2.973     0.010    27.801     8.649
    38   6 C        2.976    -0.001    28.038     8.686
    39   6 C        2.924    -0.034    28.858     8.810
    40   6 C        2.920    -0.049    29.221     8.865
    41   6 C        2.923     0.065    26.547     8.449
    42   7 N        2.752    -0.078    22.754     7.085
    43   6 C        2.923     0.065    26.536     8.448
    44   6 C        2.922    -0.048    29.187     8.860
    45   6 C        2.919    -0.030    28.753     8.793
    46   6 C        2.919    -0.039    28.967     8.826
    47   6 C        2.919    -0.030    28.750     8.793
    48   6 C        2.922    -0.048    29.182     8.859
    49   6 C        2.924     0.065    26.537     8.448
    50   6 C        2.922    -0.048    29.186     8.859
    51   6 C        2.919    -0.030    28.752     8.793
    52   6 C        2.919    -0.039    28.967     8.826
    53   6 C        2.919    -0.030    28.750     8.793
    54   6 C        2.922    -0.048    29.184     8.859
    55   6 C        2.920    -0.049    29.215     8.864
    56   6 C        2.924    -0.035    28.867     8.811
    57   6 C        2.921    -0.037    28.908     8.817
    58   6 C        2.917    -0.042    29.035     8.836
    59   6 C        2.978    -0.007    28.193     8.710
    60   6 C        3.070     0.022    27.450     8.591
    61   7 N        2.838    -0.046    22.133     6.987
    62   6 C        2.911     0.075    26.331     8.414
    63   6 C        2.919    -0.032    28.798     8.800
    64   6 C        2.926    -0.015    28.391     8.738
    65   6 C        2.973     0.021    27.540     8.608
    66   6 C        1.912     0.120    28.153     8.569
    67   7 N        0.911    -0.254    26.596     7.459
    68   6 C        2.925    -0.014    28.364     8.734
    69   6 C        2.920    -0.034    28.847     8.808
    70   6 C        2.927    -0.023    28.589     8.769
    71   6 C        2.923    -0.016    28.407     8.740
    72   1 H        0.926     0.049     2.329     2.386
    73   1 H        0.926     0.042     2.424     2.435
    74   1 H        0.926     0.046     2.375     2.410
    75   1 H        0.926     0.036     2.497     2.471
    76   1 H        0.926     0.035     2.514     2.480
    77   1 H        0.926     0.032     2.553     2.499
    78   1 H        0.926     0.031     2.567     2.506
    79   1 H        0.926     0.033     2.544     2.494
    80   1 H        0.926     0.032     2.565     2.504
    81   1 H        0.926     0.033     2.545     2.495
    82   1 H        0.926     0.031     2.567     2.506
    83   1 H        0.926     0.031     2.569     2.507
    84   1 H        0.926     0.033     2.544     2.494
    85   1 H        0.926     0.032     2.564     2.504
    86   1 H        0.926     0.033     2.543     2.494
    87   1 H        0.926     0.031     2.565     2.505
    88   1 H        0.926     0.032     2.554     2.499
    89   1 H        0.926     0.036     2.505     2.475
    90   1 H        0.926     0.039     2.461     2.453
    91   1 H        0.926     0.042     2.421     2.433
    92   1 H        0.926     0.035     2.513     2.479
    93   1 H        0.926     0.033     2.549     2.497
    94   1 H        0.926     0.032     2.563     2.504
    95   1 H        0.926     0.033     2.538     2.491
    96   1 H        0.926     0.032     2.555     2.500
    97   1 H        0.926     0.034     2.535     2.490
    98   1 H        0.926     0.032     2.561     2.503
    99   1 H        0.926     0.032     2.558     2.501
   100   1 H        0.926     0.034     2.534     2.489
   101   1 H        0.926     0.032     2.555     2.500
   102   1 H        0.926     0.033     2.537     2.491
   103   1 H        0.926     0.031     2.565     2.505
   104   1 H        0.926     0.033     2.547     2.496
   105   1 H        0.926     0.036     2.509     2.477
   106   1 H        0.926     0.035     2.517     2.481
   107   1 H        0.926     0.028     2.619     2.530
   108   1 H        0.926     0.060     2.200     2.320
   109   1 H        0.926     0.060     2.196     2.318
   110   1 H        0.926     0.059     2.209     2.324
   111   1 H        0.926     0.054     2.268     2.355
   112   1 H        0.926     0.063     2.170     2.303
   113   1 H        0.926     0.053     2.280     2.361

molecular dipole:
                 x           y           z       tot (Debye)
 q only:       -2.333       0.920      -0.005
   full:       -2.896       1.211       0.010       7.979

 projected vibrational frequencies (cm⁻¹)
eigval :       -0.00    -0.00     0.00     0.00     0.00     0.00
eigval :        7.82     8.60    10.47    11.98    14.36    17.01
eigval :       23.39    23.45    27.68    32.13    36.65    41.73
eigval :       44.88    46.99    49.96    52.36    59.55    62.07
eigval :       68.58    69.36    71.64    77.14    92.77    97.01
eigval :       97.49   101.62   107.49   116.98   121.53   124.33
eigval :      134.16   137.16   146.30   151.89   179.53   189.37
eigval :      198.50   205.32   213.90   219.94   228.26   234.72
eigval :      239.76   249.11   259.87   263.95   274.18   299.18
eigval :      307.78   309.51   319.80   328.03   345.28   351.54
eigval :      363.03   366.94   371.23   372.50   377.08   378.56
eigval :      379.29   380.07   381.97   386.71   389.81   392.59
eigval :      400.97   404.19   420.90   434.00   437.81   446.08
eigval :      457.24   461.90   470.13   476.75   486.03   491.93
eigval :      492.52   506.19   508.87   517.94   524.56   532.33
eigval :      536.28   545.00   549.09   563.84   569.35   583.05
eigval :      583.67   584.94   587.07   591.68   593.16   593.80
eigval :      597.34   605.90   607.66   613.51   615.86   630.14
eigval :      633.93   638.32   651.37   654.08   659.60   660.69
eigval :      665.59   667.88   672.43   681.14   685.74   692.68
eigval :      696.79   698.62   699.05   718.86   722.11   732.95
eigval :      756.21   756.57   758.10   760.49   771.93   790.09
eigval :      806.61   807.97   811.91   820.93   826.65   829.65
eigval :      836.81   857.60   864.03   867.41   867.66   867.92
eigval :      870.82   873.68   874.03   875.32   875.83   877.47
eigval :      890.63   891.76   892.12   893.39   909.12   909.33
eigval :      913.00   914.04   915.46   915.88   917.81   920.52
eigval :      921.93   925.37   925.52   925.82   927.08   927.32
eigval :      927.66   928.51   928.59   928.93   929.53   929.90
eigval :      930.80   934.33   950.63   965.80   982.78   984.40
eigval :     1002.50  1003.72  1003.95  1008.60  1018.59  1024.75
eigval :     1041.18  1069.82  1081.39  1081.66  1082.48  1082.70
eigval :     1083.24  1103.03  1120.26  1120.28  1122.48  1122.61
eigval :     1128.02  1131.36  1133.74  1141.30  1143.23  1156.04
eigval :     1176.35  1178.13  1178.31  1178.81  1179.44  1180.34
eigval :     1183.63  1184.61  1185.20  1193.45  1194.12  1194.30
eigval :     1196.72  1200.64  1214.20  1214.87  1225.69  1229.01
eigval :     1233.65  1246.95  1257.68  1261.68  1267.46  1271.13
eigval :     1275.65  1276.99  1277.22  1277.93  1281.10  1286.76
eigval :     1295.15  1304.50  1307.80  1309.12  1309.44  1314.10
eigval :     1314.95  1316.34  1318.12  1322.68  1323.13  1323.85
eigval :     1324.74  1325.74  1328.24  1335.71  1345.36  1369.80
eigval :     1394.04  1397.10  1399.22  1401.49  1414.23  1415.92
eigval :     1428.68  1432.53  1434.29  1434.43  1441.10  1441.28
eigval :     1457.91  1469.68  1470.09  1472.71  1472.75  1478.15
eigval :     1487.22  1489.10  1495.21  1515.04  1535.45  1540.54
eigval :     1547.73  1553.44  1554.73  1557.96  1564.02  1575.41
eigval :     1575.75  1578.98  1579.31  1580.27  1580.78  1581.99
eigval :     1587.72  1591.44  1591.52  1594.53  1597.26  1601.01
eigval :     1603.35  2360.17  2366.84  3070.45  3071.00  3071.34
eigval :     3071.57  3071.85  3072.26  3072.74  3073.38  3073.53
eigval :     3074.24  3075.91  3076.05  3080.44  3081.86  3081.96
eigval :     3082.42  3082.49  3083.02  3083.67  3084.84  3085.03
eigval :     3085.20  3085.64  3086.25  3087.93  3088.67  3089.10
eigval :     3090.88  3091.49  3092.65  3093.67  3093.91  3094.36
eigval :     3094.41  3097.64  3101.04  3101.81  3104.05  3105.72
eigval :     3109.34  3114.49  3115.49

   temp. (K)  partition function   enthalpy   heat capacity  entropy
                                   cal/mol     cal/K/mol   cal/K/mol   J/K/mol
 298.15  VIB  0.252E+30            34618.977    210.337    220.580
         ROT  0.436E+09              888.752      2.981     42.515
         INT  0.110E+39            35507.730    213.318    263.095
         TR   0.264E+29             1481.254      4.968     46.270
         TOT                       36988.9837   218.2863   309.3644  1294.3805

       T/K    H(0)-H(T)+PV         H(T)/Eh          T*S/Eh         G(T)/Eh
   ------------------------------------------------------------------------
    298.15    0.589457E-01    0.917234E+00    0.146989E+00    0.770245E+00
   ------------------------------------------------------------------------

         :::::::::::::::::::::::::::::::::::::::::::::::::::::
         ::                  THERMODYNAMIC                  ::
         :::::::::::::::::::::::::::::::::::::::::::::::::::::
         :: total free energy        -177.444869651265 Eh   ::
         ::.................................................::
         :: total energy             -178.215114443408 Eh   ::
         :: zero point energy           0.858288085364 Eh   ::
         :: G(RRHO) w/o ZPVE           -0.088043293222 Eh   ::
         :: G(RRHO) contrib.            0.770244792143 Eh   ::
         :::::::::::::::::::::::::::::::::::::::::::::::::::::

           -------------------------------------------------
          | TOTAL ENERGY             -178.215114443408 Eh   |
          | TOTAL ENTHALPY           -177.297880660430 Eh   |
          | TOTAL FREE ENERGY        -177.444869651265 Eh   |
          | GRADIENT NORM               0.000097104369 Eh/α |
          | HOMO-LUMO GAP               1.437562377430 eV   |
           -------------------------------------------------

 * finished run on 2025/08/25 at 04:19:43.255
