   * xtb version 6.7.1 (edcfbbe) compiled by 'albert@albert-system' on 2024-07-22

   ID    Z sym.   atoms
    1    7 N      1, 8, 18, 42, 61, 67
    2    6 C      2-7, 9-17, 19-41, 43-60, 62-66, 68-71
    3    1 H      72-113

          program call               : xtb data2507/toluene/3,6-T2C/3,6-T2C_toluene_S0_crest.xyz --gfn 2 --gbsa toluene --ohess vtight --parallel 40 --molden --ceasefiles --namespace data2507/toluene/3,6-T2C/3,6-T2C_toluene_S0_finalOpt
      * Solvation model:               GBSA
        Solvent                        toluene
        Solvent mass                       9.2140E+01 g/mol
          :  Hamiltonian                  GFN2-xTB          :
 * total energy  :  -178.2155695 Eh     change       -0.2308354E-08 Eh
 * total energy  :  -178.2156154 Eh     change       -0.4583820E-04 Eh
 * total energy  :  -178.2156325 Eh     change       -0.1711596E-04 Eh
 * total energy  :  -178.2155985 Eh     change        0.3403690E-04 Eh
 * total energy  :  -178.2156420 Eh     change       -0.4357232E-04 Eh
 * total energy  :  -178.2156509 Eh     change       -0.8827428E-05 Eh
 * total energy  :  -178.2156549 Eh     change       -0.4041669E-05 Eh
 * total energy  :  -178.2156583 Eh     change       -0.3407381E-05 Eh
 * total energy  :  -178.2156618 Eh     change       -0.3532078E-05 Eh
 * total energy  :  -178.2156642 Eh     change       -0.2355980E-05 Eh
 * total energy  :  -178.2157573 Eh     change       -0.1452970E-06 Eh
 * total energy  :  -178.2157574 Eh     change       -0.1560366E-06 Eh
 * total energy  :  -178.2157576 Eh     change       -0.1818746E-06 Eh
 * total energy  :  -178.2157578 Eh     change       -0.1672612E-06 Eh
 * total energy  :  -178.2157579 Eh     change       -0.1384325E-06 Eh
 * total energy  :  -178.2157581 Eh     change       -0.1776802E-06 Eh
 * total energy  :  -178.2157583 Eh     change       -0.2285955E-06 Eh
 * total energy  :  -178.2157583 Eh     change        0.2204956E-09 Eh
 * total energy  :  -178.2157583 Eh     change       -0.3148918E-07 Eh
   *** GEOMETRY OPTIMIZATION CONVERGED AFTER 69 ITERATIONS ***

 final structure:
================
113
 xtb: 6.7.1 (edcfbbe)
N           12.06618541413274       -4.53432431549077        0.12023684368886
C           11.00023468428491       -4.10831042241450        0.10001972825427
C            9.69017459035135       -3.58341664219955        0.07678766242046
C            8.65840959212888       -4.24282274614855        0.75177235507902
C            7.38537221266920       -3.71919890329556        0.73080423379841
C            7.10989594596437       -2.53048574954804        0.04525192878810
C            5.73942317451244       -2.05219352748722        0.05715045511032
N            4.71424019483238       -2.86624114193548        0.13097566454557
C            3.60517552149208       -2.08610390430909        0.09048610442989
C            2.24475792311224       -2.50273666808085        0.10627406381996
C            1.89062587839673       -3.85540823101769        0.16257309125301
C            0.57272729154311       -4.23326101378424        0.15195097375724
C           -0.43549064637042       -3.26109307511266        0.08528544071759
C           -1.85360627320536       -3.64391674733539        0.07551576152414
C           -2.79390111148121       -2.91274628396803        0.80157975123378
C           -4.12918629640965       -3.25399549239042        0.78575747801135
C           -4.57547118395663       -4.33464014401408        0.02324527903016
N           -5.93303106172492       -4.66431513521834       -0.01700964046046
C           -6.32824020366440       -6.00673526823810       -0.08138235432653
C           -5.63278082440026       -6.98397490484937        0.63090296196319
C           -6.02522626696510       -8.30698071135901        0.56302453990060
C           -7.11782026388471       -8.67693909960855       -0.20476849191255
C           -7.81463696468127       -7.70966342700775       -0.91118053696638
C           -7.42390000930802       -6.38547518707371       -0.85718953369687
C           -6.90009298434124       -3.65122832221296        0.00879584952434
C           -8.09621464184705       -3.83162919839798        0.70364741851279
C           -9.04796737130800       -2.83014667435728        0.72437850858950
C           -8.82212153617364       -1.63225018752671        0.06555726972123
C           -7.63414909829351       -1.44582329890145       -0.62299435578454
C           -6.68160167680255       -2.44596307473050       -0.65929244014979
C           -3.63831318852243       -5.07434884065374       -0.69994293965168
C           -2.30139051948694       -4.73741145437032       -0.66454429206910
C           -0.08190840758195       -1.92345368405404        0.02910359913172
C            1.25171199106686       -1.49932756818226        0.04387500625477
C            1.62865249217841       -0.09451630281844        0.02201312917773
C            0.66370874444329        0.91708626603079        0.02027578376092
C            0.98437900152188        2.26352340713144        0.05143352186574
C           -0.07856333938347        3.27531918401592        0.03841582203207
C           -0.00278932892075        4.41497061702261        0.83833149101575
C           -1.01866602947448        5.34747834483557        0.84692749225708
C           -2.14352867755247        5.17839865759673        0.03758353567126
N           -3.17880538830389        6.11586934695360        0.04601980833152
C           -4.50783326571801        5.69073257428036       -0.08391501474809
C           -5.42232039654469        6.44130278129802       -0.82275392700450
C           -6.73287410853018        6.01994421020417       -0.94285564743065
C           -7.15114138384497        4.84441949639256       -0.34011977526706
C           -6.24555581713550        4.09221988203790        0.39081266428451
C           -4.93558525366160        4.51062208584534        0.52484632520063
C           -2.89178277998109        7.48004421425855        0.18363607881494
C           -1.76711110780551        8.03143300488041       -0.43046229009141
C           -1.48677876259498        9.37713800481058       -0.29119588276272
C           -2.32301785239719       10.19531905317994        0.45131708315494
C           -3.44401509418519        9.65368609162596        1.05974155727594
C           -3.72761577702119        8.30723139368616        0.93389563211364
C           -2.21519819131853        4.04892536653138       -0.78000331459968
C           -1.20344280205745        3.11337050043541       -0.77088389978074
C            2.33452988915866        2.62831520256154        0.11267745902806
C            3.31148580344267        1.66602024906073        0.10086210827000
C            2.99480703008492        0.30104142354693        0.03192096576907
C            3.96477421365695       -0.73999559630353        0.00564477085336
N            5.34254467880441       -0.73161060738574       -0.02738447086427
C            6.20459068484732        0.37794057417756       -0.11135149392744
C            7.05946299609614        0.66908924051099        0.94908109166593
C            7.92415984206180        1.74162472584950        0.86208138758399
C            7.93871831613097        2.52931292312772       -0.29070885566813
C            8.82145843927967        3.62986880899824       -0.38203094549737
N            9.53600137170252        4.52416725535086       -0.45796884184819
C            7.08210688141645        2.23595984022867       -1.35523489090226
C            6.22026699302506        1.16268076310139       -1.26478197850281
C            8.14109018542981       -1.89388675046442       -0.64929950743829
C            9.41986604150370       -2.41035186859712       -0.63091033250557
H            8.86822946964420       -5.15738707946616        1.28613561245824
H            6.57619934918711       -4.21680762882568        1.24173165647110
H            2.68458929724730       -4.58506234800230        0.21255175552480
H            0.30460303475750       -5.27764237525636        0.21203344757610
H           -2.46856854350733       -2.08318679274282        1.41247319121748
H           -4.83977110174391       -2.68486349269830        1.36741977588411
H           -4.78694285552658       -6.69706219362378        1.23878243751633
H           -5.47890067876037       -9.05314342198318        1.12171185605607
H           -7.42404331951544       -9.71123828225692       -0.25212429893261
H           -8.66475614145307       -7.98899937951532       -1.51666922685068
H           -7.96355137740066       -5.63490684154003       -1.41644133866636
H           -8.27151210740715       -4.76017111829524        1.22738691275824
H           -9.96927040142992       -2.98367355165559        1.26749863657733
H           -9.56632751214627       -0.85028411753521        0.08849373643997
H           -7.45066429591681       -0.51752377382703       -1.14470352776656
H           -5.76157120895675       -2.30137849199701       -1.20684931493366
H           -3.96931536763217       -5.91077741101199       -1.29823521244612
H           -1.59650254989501       -5.31022177210025       -1.24931179297353
H           -0.87917102859910       -1.20221679948552       -0.04764778907869
H           -0.38147288030204        0.65571634217922        0.02251095239160
H            0.84729151856481        4.55457603135657        1.49015404253317
H           -0.95296063477383        6.21288352335895        1.49024369003245
H           -5.09713165438405        7.35358269416594       -1.30160602538309
H           -7.43027459849904        6.61025760550892       -1.51944950717963
H           -8.17523585243667        4.51710848168246       -0.43963935725624
H           -6.56306871100755        3.17666769923856        0.86879378973561
H           -4.23468252288475        3.92788826262814        1.10487189190031
H           -1.11935860509153        7.39812567943049       -1.01924406129154
H           -0.61342113003667        9.79139360139836       -0.77390202593481
H           -2.10284040445684       11.24725380361076        0.55454800470589
H           -4.09894780419885       10.28262925866518        1.64523084828559
H           -4.59763446548607        7.88622898203349        1.41675376966497
H           -3.07110034721635        3.91419871956367       -1.42524342189277
H           -1.27072492316868        2.25650676157974       -1.42537823560517
H            2.60857873014777        3.67209646688545        0.15050046081947
H            4.34447172539712        1.96905181901288        0.15861661359814
H            7.03880979692837        0.05321749119230        1.83548342579504
H            8.58713029376482        1.97650896567689        1.68077641819268
H            7.10109861442887        2.84817687021886       -2.24411000095472
H            5.55209428989137        0.92541029870281       -2.07930732168153
H            7.94509109303691       -1.00559397368996       -1.22849933889821
H           10.21502110101891       -1.91548925060040       -1.16884002944702

          :  Hamiltonian                  GFN2-xTB          :
         :: gradient norm              0.000036630195 Eh/a0 ::
         :: HOMO-LUMO gap              1.438080699757 eV    ::
         :: SCC energy              -181.630807637728 Eh    ::
         :: -> dispersion             -0.162909475923 Eh    ::
         :: -> Gsolv                  -0.080873059088 Eh    ::
         :: repulsion energy           3.415049288732 Eh    ::

    * Orbital Energies and Occupations

         #    Occupation            Energy/Eh            Energy/eV
      -------------------------------------------------------------
         1        2.0000           -0.7025155             -19.1164
       ...           ...                  ...                  ...
       154        2.0000           -0.4086321             -11.1194
       155        2.0000           -0.4078992             -11.0995
       156        2.0000           -0.4066249             -11.0648
       157        2.0000           -0.4061329             -11.0514
       158        2.0000           -0.4054496             -11.0328
       159        2.0000           -0.4047645             -11.0142
       160        2.0000           -0.4038743             -10.9900
       161        2.0000           -0.3970568             -10.8045
       162        2.0000           -0.3920229             -10.6675
       163        2.0000           -0.3880669             -10.5598
       164        2.0000           -0.3734770             -10.1628
       165        2.0000           -0.3507646              -9.5448
       166        2.0000           -0.3487580              -9.4902 (HOMO)
       167                         -0.2959095              -8.0521 (LUMO)
       168                         -0.2897483              -7.8845
       169                         -0.2642659              -7.1910
       170                         -0.2635171              -7.1707
       171                         -0.2552378              -6.9454
       172                         -0.2494059              -6.7867
       173                         -0.2439483              -6.6382
       174                         -0.2318631              -6.3093
       175                         -0.2309168              -6.2836
       176                         -0.2298076              -6.2534
       177                         -0.2291672              -6.2360
       ...                                ...                  ...
       326                          1.1554738              31.4420
      -------------------------------------------------------------
                  HL-Gap            0.0528485 Eh            1.4381 eV

     #   Z          covCN         q      C6AA      α(0)
     1   7 N        0.911    -0.266    26.876     7.498
     2   6 C        1.912     0.119    28.176     8.573
     3   6 C        2.973     0.018    27.597     8.617
     4   6 C        2.923    -0.016    28.410     8.741
     5   6 C        2.928    -0.024    28.595     8.770
     6   6 C        2.973     0.009    27.818     8.652
     7   6 C        3.183     0.127    24.823     8.131
     8   7 N        1.896    -0.300    28.627     7.932
     9   6 C        3.200     0.061    26.104     8.326
    10   6 C        2.985    -0.004    28.121     8.699
    11   6 C        2.918    -0.033    28.833     8.805
    12   6 C        2.921    -0.035    28.876     8.812
    13   6 C        2.974     0.009    27.820     8.652
    14   6 C        2.976     0.000    28.020     8.683
    15   6 C        2.924    -0.035    28.876     8.812
    16   6 C        2.920    -0.049    29.217     8.864
    17   6 C        2.923     0.064    26.560     8.451
    18   7 N        2.752    -0.078    22.765     7.086
    19   6 C        2.923     0.065    26.534     8.447
    20   6 C        2.922    -0.048    29.188     8.860
    21   6 C        2.919    -0.030    28.754     8.793
    22   6 C        2.919    -0.039    28.973     8.827
    23   6 C        2.919    -0.030    28.754     8.793
    24   6 C        2.922    -0.048    29.187     8.860
    25   6 C        2.923     0.066    26.533     8.447
    26   6 C        2.922    -0.048    29.193     8.860
    27   6 C        2.919    -0.030    28.756     8.794
    28   6 C        2.919    -0.039    28.979     8.828
    29   6 C        2.919    -0.030    28.756     8.794
    30   6 C        2.922    -0.048    29.194     8.861
    31   6 C        2.920    -0.049    29.218     8.864
    32   6 C        2.924    -0.034    28.857     8.809
    33   6 C        2.929    -0.042    29.046     8.839
    34   6 C        2.978    -0.003    28.096     8.695
    35   6 C        2.979     0.001    27.998     8.680
    36   6 C        2.930    -0.041    29.015     8.834
    37   6 C        2.973     0.010    27.801     8.649
    38   6 C        2.976    -0.000    28.035     8.685
    39   6 C        2.923    -0.034    28.854     8.809
    40   6 C        2.920    -0.049    29.216     8.864
    41   6 C        2.923     0.065    26.546     8.449
    42   7 N        2.752    -0.078    22.757     7.085
    43   6 C        2.924     0.065    26.537     8.448
    44   6 C        2.922    -0.048    29.184     8.859
    45   6 C        2.919    -0.030    28.751     8.793
    46   6 C        2.919    -0.039    28.967     8.826
    47   6 C        2.919    -0.030    28.750     8.793
    48   6 C        2.922    -0.048    29.185     8.859
    49   6 C        2.923     0.065    26.537     8.448
    50   6 C        2.922    -0.048    29.191     8.860
    51   6 C        2.919    -0.030    28.754     8.793
    52   6 C        2.919    -0.039    28.970     8.826
    53   6 C        2.919    -0.030    28.750     8.793
    54   6 C        2.922    -0.048    29.186     8.859
    55   6 C        2.920    -0.049    29.210     8.863
    56   6 C        2.924    -0.035    28.868     8.811
    57   6 C        2.921    -0.036    28.907     8.817
    58   6 C        2.917    -0.042    29.034     8.836
    59   6 C        2.977    -0.007    28.195     8.710
    60   6 C        3.070     0.022    27.442     8.590
    61   7 N        2.838    -0.047    22.138     6.988
    62   6 C        2.911     0.075    26.325     8.413
    63   6 C        2.920    -0.034    28.839     8.806
    64   6 C        2.926    -0.014    28.361     8.733
    65   6 C        2.973     0.021    27.536     8.608
    66   6 C        1.912     0.120    28.153     8.569
    67   7 N        0.911    -0.254    26.588     7.458
    68   6 C        2.925    -0.015    28.388     8.738
    69   6 C        2.919    -0.032    28.794     8.799
    70   6 C        2.920    -0.032    28.809     8.802
    71   6 C        2.924    -0.018    28.461     8.749
    72   1 H        0.926     0.053     2.285     2.364
    73   1 H        0.926     0.063     2.160     2.298
    74   1 H        0.926     0.045     2.378     2.411
    75   1 H        0.926     0.036     2.498     2.472
    76   1 H        0.926     0.035     2.518     2.482
    77   1 H        0.926     0.032     2.553     2.499
    78   1 H        0.926     0.032     2.560     2.502
    79   1 H        0.926     0.033     2.539     2.492
    80   1 H        0.926     0.032     2.561     2.502
    81   1 H        0.926     0.033     2.542     2.493
    82   1 H        0.926     0.031     2.566     2.505
    83   1 H        0.926     0.031     2.571     2.508
    84   1 H        0.926     0.033     2.546     2.495
    85   1 H        0.926     0.032     2.563     2.503
    86   1 H        0.926     0.033     2.537     2.491
    87   1 H        0.926     0.032     2.563     2.503
    88   1 H        0.926     0.032     2.555     2.500
    89   1 H        0.926     0.036     2.509     2.477
    90   1 H        0.926     0.039     2.458     2.452
    91   1 H        0.926     0.042     2.421     2.433
    92   1 H        0.926     0.035     2.518     2.482
    93   1 H        0.926     0.033     2.551     2.497
    94   1 H        0.926     0.031     2.566     2.505
    95   1 H        0.926     0.033     2.538     2.491
    96   1 H        0.926     0.032     2.554     2.499
    97   1 H        0.926     0.034     2.529     2.487
    98   1 H        0.926     0.032     2.562     2.503
    99   1 H        0.926     0.032     2.564     2.504
   100   1 H        0.926     0.033     2.539     2.492
   101   1 H        0.926     0.032     2.558     2.501
   102   1 H        0.926     0.033     2.538     2.491
   103   1 H        0.926     0.032     2.563     2.503
   104   1 H        0.926     0.033     2.543     2.494
   105   1 H        0.926     0.036     2.504     2.475
   106   1 H        0.926     0.035     2.516     2.481
   107   1 H        0.926     0.027     2.623     2.532
   108   1 H        0.926     0.055     2.261     2.351
   109   1 H        0.926     0.059     2.205     2.322
   110   1 H        0.926     0.060     2.196     2.317
   111   1 H        0.926     0.060     2.203     2.321
   112   1 H        0.926     0.042     2.425     2.435
   113   1 H        0.926     0.049     2.334     2.389

molecular dipole:
                 x           y           z       tot (Debye)
 q only:       -2.485       0.558       0.028
   full:       -3.076       0.773       0.023       8.062

 projected vibrational frequencies (cm⁻¹)
eigval :       -0.00    -0.00     0.00     0.00     0.00     0.00
eigval :        6.59     8.55    10.41    12.39    12.55    16.91
eigval :       22.06    26.15    30.83    35.16    39.27    44.10
eigval :       45.35    47.08    50.88    53.25    59.25    63.97
eigval :       67.37    71.38    72.47    79.24    94.47    95.96
eigval :       96.94   103.33   107.19   113.21   117.02   125.70
eigval :      133.59   136.87   149.83   155.48   181.35   187.09
eigval :      204.17   206.56   213.64   218.83   227.28   232.74
eigval :      238.97   247.21   252.94   264.84   274.53   299.98
eigval :      308.70   311.83   319.76   327.14   343.50   353.97
eigval :      362.16   368.21   370.62   374.44   375.34   376.66
eigval :      378.17   379.05   380.01   387.20   387.65   399.02
eigval :      402.85   405.44   417.65   430.56   437.42   445.89
eigval :      458.31   460.48   471.43   478.09   487.78   491.63
eigval :      493.15   504.90   508.98   517.64   522.37   532.92
eigval :      534.65   544.14   549.04   565.71   569.36   583.28
eigval :      583.79   584.56   587.12   591.86   593.17   593.31
eigval :      597.29   603.30   607.93   614.19   615.61   630.16
eigval :      634.72   639.54   653.53   653.97   659.16   660.96
eigval :      664.87   668.33   673.07   680.57   686.32   693.07
eigval :      696.46   698.30   700.52   718.84   721.93   735.28
eigval :      756.01   756.97   757.99   760.92   771.95   789.88
eigval :      805.86   806.92   812.50   820.06   826.77   830.90
eigval :      834.69   857.62   864.83   865.09   865.40   869.14
eigval :      869.72   873.57   875.07   875.28   876.74   877.39
eigval :      891.06   891.85   892.16   894.16   909.39   909.49
eigval :      912.61   913.79   914.45   915.44   917.29   918.85
eigval :      921.49   924.79   925.57   925.97   926.32   926.99
eigval :      927.19   927.83   928.47   929.05   929.31   929.71
eigval :      929.85   930.46   950.49   965.65   982.68   984.32
eigval :     1002.33  1003.74  1003.87  1008.60  1018.52  1024.43
eigval :     1041.30  1070.00  1081.41  1081.85  1082.44  1082.89
eigval :     1083.86  1103.62  1120.04  1120.30  1122.28  1122.42
eigval :     1127.23  1131.94  1133.83  1140.95  1142.59  1155.32
eigval :     1175.75  1177.53  1178.46  1179.35  1179.46  1180.14
eigval :     1184.38  1185.09  1185.14  1193.25  1193.93  1194.25
eigval :     1195.82  1200.85  1214.07  1214.39  1225.71  1228.69
eigval :     1234.00  1247.18  1257.80  1262.23  1268.17  1270.94
eigval :     1275.99  1276.98  1277.39  1277.83  1281.54  1287.34
eigval :     1296.81  1303.75  1307.71  1309.06  1309.23  1314.16
eigval :     1314.66  1316.57  1318.90  1322.73  1323.54  1323.67
eigval :     1324.64  1326.15  1328.66  1335.77  1345.72  1369.57
eigval :     1394.62  1397.04  1399.85  1401.57  1414.32  1416.03
eigval :     1428.56  1432.97  1434.05  1434.36  1440.91  1441.14
eigval :     1457.23  1469.29  1469.99  1472.38  1472.85  1478.15
eigval :     1487.24  1488.88  1495.70  1512.84  1535.17  1540.41
eigval :     1547.55  1552.91  1554.58  1557.15  1563.42  1575.40
eigval :     1575.63  1578.83  1579.29  1580.12  1580.51  1581.83
eigval :     1586.79  1591.09  1591.33  1594.19  1597.00  1600.72
eigval :     1603.12  2360.06  2367.06  3070.64  3071.28  3071.49
eigval :     3071.76  3072.07  3072.25  3072.58  3072.98  3073.55
eigval :     3074.03  3075.66  3075.89  3080.82  3081.37  3081.67
eigval :     3082.17  3082.57  3083.58  3083.74  3084.21  3084.75
eigval :     3085.31  3085.59  3086.10  3088.20  3088.57  3089.01
eigval :     3090.65  3091.98  3092.79  3093.58  3093.70  3093.83
eigval :     3094.50  3095.00  3102.35  3102.56  3104.11  3109.03
eigval :     3110.02  3114.95  3116.55

   temp. (K)  partition function   enthalpy   heat capacity  entropy
                                   cal/mol     cal/K/mol   cal/K/mol   J/K/mol
 298.15  VIB  0.216E+30            34601.263    210.650    220.700
         ROT  0.425E+09              888.752      2.981     42.463
         INT  0.919E+38            35490.016    213.631    263.163
         TR   0.264E+29             1481.254      4.968     46.270
         TOT                       36971.2697   218.5988   309.4329  1294.6673

       T/K    H(0)-H(T)+PV         H(T)/Eh          T*S/Eh         G(T)/Eh
   ------------------------------------------------------------------------
    298.15    0.589175E-01    0.917204E+00    0.147022E+00    0.770182E+00
   ------------------------------------------------------------------------

         :::::::::::::::::::::::::::::::::::::::::::::::::::::
         ::                  THERMODYNAMIC                  ::
         :::::::::::::::::::::::::::::::::::::::::::::::::::::
         :: total free energy        -177.445576383118 Eh   ::
         ::.................................................::
         :: total energy             -178.215758346946 Eh   ::
         :: zero point energy           0.858286059696 Eh   ::
         :: G(RRHO) w/o ZPVE           -0.088104095868 Eh   ::
         :: G(RRHO) contrib.            0.770181963828 Eh   ::
         :::::::::::::::::::::::::::::::::::::::::::::::::::::

           -------------------------------------------------
          | TOTAL ENERGY             -178.215758346946 Eh   |
          | TOTAL ENTHALPY           -177.298554818703 Eh   |
          | TOTAL FREE ENERGY        -177.445576383118 Eh   |
          | GRADIENT NORM               0.000036675430 Eh/α |
          | HOMO-LUMO GAP               1.438080330800 eV   |
           -------------------------------------------------

 * finished run on 2025/08/25 at 04:38:50.964
