   * xtb version 6.7.1 (edcfbbe) compiled by 'albert@albert-system' on 2024-07-22

   ID    Z sym.   atoms
    1    7 N      1, 8, 18, 42, 61, 67
    2    6 C      2-7, 9-17, 19-41, 43-60, 62-66, 68-71
    3    1 H      72-113

          program call               : xtb data2507/toluene/3,6-T2C/3,6-T2C_toluene_T1_crest.xyz --gfn 2 --uhf 2 --gbsa toluene --ohess vtight --parallel 40 --molden --ceasefiles --namespace data2507/toluene/3,6-T2C/3,6-T2C_toluene_T1_finalOpt
      * Solvation model:               GBSA
        Solvent                        toluene
        Solvent mass                       9.2140E+01 g/mol
          :  Hamiltonian                  GFN2-xTB          :
 * total energy  :  -178.1479724 Eh     change       -0.1527786E-07 Eh
 * total energy  :  -178.1481204 Eh     change       -0.1480701E-03 Eh
 * total energy  :  -178.1481711 Eh     change       -0.5066367E-04 Eh
 * total energy  :  -178.1481745 Eh     change       -0.3352526E-05 Eh
 * total energy  :  -178.1481819 Eh     change       -0.7440432E-05 Eh
 * total energy  :  -178.1481853 Eh     change       -0.3417333E-05 Eh
 * total energy  :  -178.1481909 Eh     change       -0.5566334E-05 Eh
 * total energy  :  -178.1481950 Eh     change       -0.4114832E-05 Eh
 * total energy  :  -178.1481978 Eh     change       -0.2816648E-05 Eh
 * total energy  :  -178.1482003 Eh     change       -0.2512808E-05 Eh
 * total energy  :  -178.1482482 Eh     change       -0.5215581E-06 Eh
 * total energy  :  -178.1482490 Eh     change       -0.7841503E-06 Eh
 * total energy  :  -178.1482504 Eh     change       -0.1360449E-05 Eh
 * total energy  :  -178.1482522 Eh     change       -0.1830524E-05 Eh
 * total energy  :  -178.1482534 Eh     change       -0.1171649E-05 Eh
 * total energy  :  -178.1482539 Eh     change       -0.5809368E-06 Eh
 * total energy  :  -178.1482529 Eh     change        0.1073119E-05 Eh
 * total energy  :  -178.1482543 Eh     change       -0.1443663E-05 Eh
 * total energy  :  -178.1482544 Eh     change       -0.9230635E-07 Eh
   *** GEOMETRY OPTIMIZATION CONVERGED AFTER 46 ITERATIONS ***

 final structure:
================
113
 xtb: 6.7.1 (edcfbbe)
N           11.95177241222006       -4.78412854808407        0.05242280983181
C           10.89887031176098       -4.30999046611901        0.05013869013464
C            9.62561373232590       -3.73570691430360        0.04857594301113
C            8.52785986385126       -4.41804246150212        0.61263039771243
C            7.28950789700935       -3.84107568798893        0.62000867002638
C            7.07403042613585       -2.54593404974469        0.08883186980421
C            5.74933960385994       -2.02868641392957        0.13696232133185
N            4.69106512185434       -2.83001243966170        0.25706496508701
C            3.60791285636919       -2.05499030033149        0.15334594554331
C            2.24939720356090       -2.46517401535643        0.16187624901804
C            1.89851593187629       -3.81934649391560        0.23873015021762
C            0.58273264445700       -4.20637811401359        0.20837317982564
C           -0.42785926252444       -3.24049503414028        0.10932401486245
C           -1.83769337601764       -3.62714325486816        0.07911499538772
C           -2.80844315058973       -2.85881764682358        0.72994155537928
C           -4.13723571548582       -3.21447290600853        0.70153303676066
C           -4.55447127089860       -4.35212250925745        0.00135665784419
N           -5.89850978995188       -4.70182226614768       -0.04845043062246
C           -6.27685250290337       -6.05057941450675       -0.10752039229480
C           -5.59442308059142       -7.00940545966997        0.64223289898033
C           -5.97533939594801       -8.33607034858911        0.58239815519979
C           -7.03952465375806       -8.72496524832176       -0.21624085106487
C           -7.72267831484797       -7.77500839428062       -0.95955523305090
C           -7.34659289139355       -6.44651340481157       -0.91104486925001
C           -6.88987903066774       -3.71130557223191       -0.03930176529083
C           -8.08171291864528       -3.91566261061165        0.65727283189787
C           -9.06008977094710       -2.94018820836124        0.65979140976688
C           -8.86529453418671       -1.74898860527475       -0.02183163922587
C           -7.68284859764456       -1.54121929482398       -0.71475239126337
C           -6.70156212481412       -2.51356881725554       -0.73077322137262
C           -3.58780764237692       -5.12691243982484       -0.65008478563738
C           -2.25850866501830       -4.77316879637825       -0.60226663064082
C           -0.07496583699378       -1.89493120142974        0.03998115399065
C            1.25163737483496       -1.46615151915747        0.06564187926364
C            1.62918506124193       -0.05809015644426        0.02821201763054
C            0.67085936457888        0.94360806439345        0.01667152624004
C            0.97965937121364        2.30640821541107        0.05685866195917
C           -0.07399968358281        3.30362888529007        0.03932144401661
C            0.06393899540150        4.52779006309887        0.71191303870836
C           -0.94441458488892        5.46088324738902        0.71649623819585
C           -2.14402310089998        5.22071506677691        0.03259955875904
N           -3.16923019964490        6.15609107782221        0.04117786775110
C           -4.50675930156317        5.74045963011698       -0.00748404731586
C           -5.44240219319311        6.46634534671290       -0.74618130314316
C           -6.76101588187374        6.05646590883258       -0.78871818052361
C           -7.16544324054221        4.92040075925822       -0.10478004496225
C           -6.23968615314796        4.19657714163555        0.63070243960117
C           -4.92001485755515        4.60143751128298        0.68572710532616
C           -2.87888496146865        7.52577385922815        0.10184935286587
C           -1.79968124553777        8.05235747049342       -0.60964707480824
C           -1.52148272796876        9.40407602148947       -0.54627734847672
C           -2.31220477997114       10.24806995044736        0.21811045956034
C           -3.38820520844411        9.72990824291626        0.92225374826308
C           -3.67225471675947        8.37903997232645        0.87009457912556
C           -2.28444647853986        4.00971222381464       -0.65885443093146
C           -1.27696350193267        3.07672004870723       -0.64862514795871
C            2.33892657196550        2.66650589024366        0.14226220167299
C            3.31460476835424        1.71370331141321        0.12146208829343
C            3.01230674787112        0.33193998428514        0.03504451178246
C            3.97301950731597       -0.68830490626522        0.00933052615883
N            5.35671703356130       -0.69125500808631       -0.00893297181089
C            6.21540219304582        0.40405420322355       -0.10147884783040
C            7.19539386755789        0.61425502325161        0.87948008875152
C            8.04750301874653        1.68722726092844        0.78949763568543
C            7.95147640042114        2.57710215436459       -0.29390368619548
C            8.81848618893048        3.67396133684794       -0.38974306970792
N            9.52493057944932        4.58168872898685       -0.46826782591275
C            6.97706434885385        2.35931568546901       -1.28326891951410
C            6.12048186738817        1.29058466740277       -1.18449925298009
C            8.17257928666295       -1.89200122160510       -0.51282610119209
C            9.41302472120263       -2.47147366623159       -0.53238205607161
H            8.68265143325823       -5.39865853476749        1.03984923957883
H            6.44329992539176       -4.35528932180330        1.04808926094344
H            2.69729530480046       -4.54084369826992        0.31806908626273
H            0.32317518289202       -5.25136094770587        0.28541811547992
H           -2.50757263304481       -1.99295190320438        1.30029231056077
H           -4.86575078142261       -2.62326221000939        1.23608331266196
H           -4.77474270738921       -6.70514621363489        1.27634052273856
H           -5.44321711837549       -9.06954082714977        1.16992898938186
H           -7.33505998240986       -9.76231144943055       -0.25847064313137
H           -8.54928973521254       -8.07169105425445       -1.58796563817335
H           -7.87208321529402       -5.70864535724180       -1.49920101252073
H           -8.22975651025036       -4.83782628466926        1.19955975525190
H           -9.97710961325036       -3.10832357045939        1.20486027226493
H           -9.63131450002812       -0.98848456489090       -0.01440057004463
H           -7.52699788192295       -0.61935919695722       -1.25537567150481
H           -5.78835912629006       -2.35757164076844       -1.28582839437724
H           -3.89412860095252       -5.99797159231620       -1.21000223520348
H           -1.53399259651798       -5.37017189783666       -1.13527718838905
H           -0.87309995589798       -1.17878531012477       -0.06592233436219
H           -0.37219925053188        0.67516002102589        0.02333603380184
H            0.96149503877895        4.72521672874329        1.27788678132613
H           -0.82566336321508        6.37951438288336        1.27181550241088
H           -5.12604534404338        7.34393778528979       -1.29031690955713
H           -7.47550722983179        6.62356812482333       -1.36665153909816
H           -8.19632561299277        4.60274329244839       -0.14342534878994
H           -6.54866792123999        3.31562293317848        1.17358280917530
H           -4.20325420787113        4.04743814953004        1.27367552472424
H           -1.19227713789237        7.39825187059090       -1.21776450629879
H           -0.68693625112688        9.80244015307932       -1.10407133868571
H           -2.09195532391380       11.30378987238395        0.26309011125873
H           -4.00539136464889       10.38099156409002        1.52332583758920
H           -4.50231350977931        7.97363001358223        1.42958377990593
H           -3.18719704358982        3.82303573759233       -1.22136949534904
H           -1.39907269605371        2.16969696500506       -1.22063591690938
H            2.61873911697804        3.70795607306421        0.19267535632549
H            4.34560952807943        2.01838091644020        0.19432302812741
H            7.26768810282421       -0.07421722607667        1.70851710035025
H            8.79383766651167        1.85822000629297        1.55132753473639
H            6.91509210222089        3.03502135993722       -2.12369136559878
H            5.37581472637206        1.11388928391165       -1.94698554337129
H            8.03596044474839       -0.94161776628207       -1.00378774582794
H           10.24312243396868       -1.96296401494280       -1.00300635504287

          :  Hamiltonian                  GFN2-xTB          :
         :: gradient norm              0.000165605599 Eh/a0 ::
         :: HOMO-LUMO gap              0.400717276205 eV    ::
         :: SCC energy              -181.543815358890 Eh    ::
         :: -> dispersion             -0.162927349695 Eh    ::
         :: -> Gsolv                  -0.093473905150 Eh    ::
         :: repulsion energy           3.395560945845 Eh    ::

    * Orbital Energies and Occupations

         #    Occupation            Energy/Eh            Energy/eV
      -------------------------------------------------------------
         1        2.0000           -0.6866423             -18.6845
       ...           ...                  ...                  ...
       155        2.0000           -0.4151011             -11.2955
       156        2.0000           -0.4139962             -11.2654
       157        2.0000           -0.4115104             -11.1978
       158        2.0000           -0.4100766             -11.1588
       159        2.0000           -0.4059276             -11.0459
       160        2.0000           -0.3992205             -10.8633
       161        2.0000           -0.3980508             -10.8315
       162        2.0000           -0.3875699             -10.5463
       163        2.0000           -0.3809745             -10.3668
       164        2.0000           -0.3698825             -10.0650
       165        1.9512           -0.3620029              -9.8506
       166        1.0488           -0.3563582              -9.6970
       167        0.9996           -0.2847222              -7.7477 (HOMO)
       168        0.0004           -0.2699962              -7.3470 (LUMO)
       169        0.0000           -0.2674713              -7.2783
       170                         -0.2530589              -6.8861
       171                         -0.2517211              -6.8497
       172                         -0.2431202              -6.6156
       173                         -0.2416653              -6.5760
       174                         -0.2395595              -6.5187
       175                         -0.2383850              -6.4868
       176                         -0.2375391              -6.4638
       177                         -0.2348895              -6.3917
       178                         -0.2330586              -6.3418
       ...                                ...                  ...
       326                          1.1665527              31.7435
      -------------------------------------------------------------
                  HL-Gap            0.0147260 Eh            0.4007 eV

     #   Z          covCN         q      C6AA      α(0)
     1   7 N        0.911    -0.323    28.308     7.695
     2   6 C        1.911     0.107    28.452     8.614
     3   6 C        2.970    -0.006    28.162     8.705
     4   6 C        2.919    -0.027    28.684     8.783
     5   6 C        2.925    -0.034    28.847     8.808
     6   6 C        2.970    -0.011    28.298     8.726
     7   6 C        3.151     0.130    24.896     8.161
     8   7 N        1.883    -0.321    29.164     8.006
     9   6 C        3.177     0.076    25.918     8.313
    10   6 C        2.984    -0.004    28.126     8.699
    11   6 C        2.919    -0.029    28.735     8.790
    12   6 C        2.920    -0.036    28.905     8.816
    13   6 C        2.974     0.013    27.719     8.636
    14   6 C        2.976     0.010    27.796     8.648
    15   6 C        2.923    -0.031    28.783     8.798
    16   6 C        2.919    -0.045    29.116     8.849
    17   6 C        2.923     0.065    26.535     8.448
    18   7 N        2.752    -0.046    22.133     6.987
    19   6 C        2.925     0.063    26.578     8.455
    20   6 C        2.921    -0.043    29.061     8.840
    21   6 C        2.919    -0.027    28.672     8.781
    22   6 C        2.919    -0.032    28.800     8.800
    23   6 C        2.919    -0.027    28.671     8.781
    24   6 C        2.921    -0.043    29.059     8.840
    25   6 C        2.925     0.063    26.578     8.454
    26   6 C        2.922    -0.043    29.063     8.841
    27   6 C        2.919    -0.027    28.672     8.781
    28   6 C        2.919    -0.033    28.811     8.802
    29   6 C        2.919    -0.027    28.678     8.782
    30   6 C        2.921    -0.043    29.074     8.842
    31   6 C        2.919    -0.045    29.107     8.847
    32   6 C        2.923    -0.030    28.756     8.794
    33   6 C        2.928    -0.040    29.006     8.832
    34   6 C        2.976     0.000    28.024     8.683
    35   6 C        2.975    -0.004    28.114     8.697
    36   6 C        2.927    -0.039    28.974     8.827
    37   6 C        2.971     0.005    27.915     8.666
    38   6 C        2.974     0.010    27.799     8.648
    39   6 C        2.922    -0.032    28.795     8.800
    40   6 C        2.918    -0.044    29.098     8.846
    41   6 C        2.924     0.063    26.592     8.457
    42   7 N        2.752    -0.041    22.028     6.971
    43   6 C        2.926     0.063    26.587     8.456
    44   6 C        2.921    -0.042    29.045     8.838
    45   6 C        2.919    -0.026    28.662     8.779
    46   6 C        2.919    -0.032    28.789     8.799
    47   6 C        2.919    -0.027    28.668     8.780
    48   6 C        2.921    -0.042    29.050     8.839
    49   6 C        2.926     0.063    26.585     8.456
    50   6 C        2.921    -0.042    29.043     8.838
    51   6 C        2.919    -0.027    28.665     8.780
    52   6 C        2.919    -0.031    28.783     8.798
    53   6 C        2.919    -0.026    28.662     8.779
    54   6 C        2.921    -0.042    29.047     8.838
    55   6 C        2.918    -0.044    29.105     8.847
    56   6 C        2.922    -0.033    28.827     8.805
    57   6 C        2.917    -0.037    28.918     8.818
    58   6 C        2.914    -0.041    29.026     8.835
    59   6 C        2.973    -0.011    28.294     8.725
    60   6 C        3.040     0.028    27.340     8.576
    61   7 N        2.818    -0.065    22.491     7.044
    62   6 C        2.908     0.060    26.653     8.465
    63   6 C        2.917    -0.041    29.015     8.833
    64   6 C        2.923    -0.024    28.607     8.771
    65   6 C        2.970    -0.003    28.089     8.693
    66   6 C        1.912     0.109    28.399     8.606
    67   7 N        0.911    -0.308    27.921     7.642
    68   6 C        2.923    -0.026    28.650     8.778
    69   6 C        2.917    -0.041    29.028     8.835
    70   6 C        2.916    -0.041    29.021     8.834
    71   6 C        2.921    -0.027    28.681     8.782
    72   1 H        0.926     0.030     2.585     2.514
    73   1 H        0.926     0.048     2.349     2.397
    74   1 H        0.926     0.046     2.365     2.405
    75   1 H        0.926     0.041     2.435     2.440
    76   1 H        0.926     0.046     2.376     2.411
    77   1 H        0.926     0.044     2.392     2.419
    78   1 H        0.926     0.041     2.438     2.442
    79   1 H        0.926     0.041     2.437     2.441
    80   1 H        0.926     0.039     2.456     2.451
    81   1 H        0.926     0.041     2.433     2.439
    82   1 H        0.926     0.041     2.441     2.443
    83   1 H        0.926     0.039     2.458     2.452
    84   1 H        0.926     0.041     2.440     2.443
    85   1 H        0.926     0.040     2.447     2.446
    86   1 H        0.926     0.042     2.416     2.431
    87   1 H        0.926     0.041     2.431     2.438
    88   1 H        0.926     0.042     2.417     2.431
    89   1 H        0.926     0.044     2.394     2.419
    90   1 H        0.926     0.047     2.354     2.399
    91   1 H        0.926     0.047     2.356     2.400
    92   1 H        0.926     0.041     2.436     2.441
    93   1 H        0.926     0.041     2.437     2.441
    94   1 H        0.926     0.040     2.446     2.446
    95   1 H        0.926     0.042     2.424     2.435
    96   1 H        0.926     0.042     2.429     2.437
    97   1 H        0.926     0.044     2.399     2.422
    98   1 H        0.926     0.042     2.419     2.432
    99   1 H        0.926     0.041     2.434     2.440
   100   1 H        0.926     0.041     2.432     2.439
   101   1 H        0.926     0.040     2.443     2.444
   102   1 H        0.926     0.042     2.417     2.431
   103   1 H        0.926     0.042     2.425     2.435
   104   1 H        0.926     0.044     2.397     2.421
   105   1 H        0.926     0.045     2.381     2.413
   106   1 H        0.926     0.033     2.538     2.492
   107   1 H        0.926     0.026     2.641     2.541
   108   1 H        0.926     0.034     2.529     2.487
   109   1 H        0.926     0.036     2.509     2.477
   110   1 H        0.926     0.038     2.475     2.460
   111   1 H        0.926     0.041     2.439     2.442
   112   1 H        0.926     0.023     2.691     2.565
   113   1 H        0.925     0.024     2.671     2.556

molecular dipole:
                 x           y           z       tot (Debye)
 q only:      -14.307       1.803       0.093
   full:      -14.659       2.017       0.082      37.611

 projected vibrational frequencies (cm⁻¹)
eigval :       -0.00    -0.00    -0.00     0.00     0.00     0.00
eigval :        6.41     6.66    10.47    11.93    14.23    16.46
eigval :       23.58    26.62    32.38    36.61    39.86    44.45
eigval :       47.93    50.50    51.93    54.45    60.88    63.19
eigval :       70.21    74.22    79.07    82.14    93.25    97.01
eigval :      106.46   110.46   112.28   115.77   123.52   125.52
eigval :      135.66   138.81   150.35   157.85   181.94   189.53
eigval :      198.96   208.43   216.25   221.99   229.74   233.40
eigval :      240.10   245.31   251.04   268.32   273.15   295.63
eigval :      305.88   309.16   317.74   325.77   335.82   352.99
eigval :      358.03   366.08   370.16   374.35   376.75   376.92
eigval :      379.06   379.20   382.79   389.10   389.80   399.59
eigval :      400.61   404.74   412.66   416.86   426.40   431.86
eigval :      451.80   452.91   459.94   469.79   480.76   492.92
eigval :      496.60   508.23   509.38   512.30   514.81   519.94
eigval :      530.00   535.05   538.50   553.83   566.78   582.13
eigval :      582.48   583.55   585.88   588.88   592.57   593.18
eigval :      595.47   602.23   603.30   610.94   611.59   620.68
eigval :      626.48   630.21   643.32   649.08   655.99   659.83
eigval :      660.59   664.35   667.16   669.29   674.40   680.59
eigval :      688.57   693.08   696.77   716.14   719.26   726.27
eigval :      753.88   755.95   757.84   760.83   768.27   780.57
eigval :      797.44   803.71   806.51   810.26   812.46   825.28
eigval :      836.64   845.17   845.81   852.62   855.71   860.56
eigval :      862.26   865.86   867.18   871.96   873.45   875.46
eigval :      895.67   896.16   896.60   899.64   904.77   908.21
eigval :      908.91   909.06   910.92   911.88   916.06   916.72
eigval :      918.05   921.04   921.80   922.69   924.71   926.62
eigval :      927.65   928.07   928.66   929.38   929.81   930.01
eigval :      932.02   934.29   934.83   946.74   978.44   982.65
eigval :      987.21   998.30  1002.36  1003.00  1005.54  1013.33
eigval :     1028.87  1058.48  1073.81  1078.93  1079.90  1080.53
eigval :     1080.85  1091.78  1110.91  1119.08  1119.48  1121.27
eigval :     1121.43  1128.69  1135.48  1138.38  1144.54  1147.85
eigval :     1169.89  1172.09  1173.95  1176.60  1177.57  1177.71
eigval :     1178.23  1179.84  1182.93  1189.39  1190.73  1190.95
eigval :     1192.98  1195.78  1211.95  1214.53  1222.57  1228.79
eigval :     1241.30  1245.17  1256.75  1260.04  1263.71  1268.98
eigval :     1271.58  1273.13  1273.67  1274.62  1276.01  1277.00
eigval :     1289.75  1295.71  1297.70  1301.95  1312.11  1312.84
eigval :     1313.80  1315.20  1317.70  1319.17  1321.24  1323.24
eigval :     1323.47  1327.17  1329.16  1337.46  1344.97  1363.99
eigval :     1368.17  1397.13  1410.26  1415.21  1417.50  1419.52
eigval :     1423.01  1430.40  1432.05  1434.25  1436.41  1437.38
eigval :     1438.13  1446.51  1458.16  1459.04  1459.24  1460.21
eigval :     1461.23  1461.49  1463.39  1470.10  1478.57  1485.88
eigval :     1504.66  1517.19  1518.46  1535.35  1540.11  1545.26
eigval :     1550.83  1556.75  1569.19  1570.69  1573.00  1574.48
eigval :     1581.61  1582.11  1583.33  1584.19  1589.24  1590.17
eigval :     1593.62  2282.30  2304.78  3070.43  3074.88  3078.01
eigval :     3078.49  3078.83  3079.19  3079.26  3079.28  3079.63
eigval :     3079.97  3080.33  3081.20  3082.01  3082.58  3083.51
eigval :     3084.05  3085.02  3086.17  3087.25  3087.48  3088.08
eigval :     3088.63  3090.41  3090.44  3090.52  3091.27  3091.60
eigval :     3092.82  3093.88  3094.71  3095.91  3096.80  3097.92
eigval :     3098.58  3098.77  3099.10  3099.97  3103.60  3105.41
eigval :     3106.17  3117.95  3122.07

   temp. (K)  partition function   enthalpy   heat capacity  entropy
                                   cal/mol     cal/K/mol   cal/K/mol   J/K/mol
 298.15  VIB  0.143E+30            34694.849    212.360    220.792
         ROT  0.428E+09              888.752      2.981     42.477
         INT  0.612E+38            35583.601    215.341    263.269
         TR   0.264E+29             1481.254      4.968     46.270
         TOT                       37064.8550   220.3089   309.5384  1295.1088

       T/K    H(0)-H(T)+PV         H(T)/Eh          T*S/Eh         G(T)/Eh
   ------------------------------------------------------------------------
    298.15    0.590666E-01    0.914110E+00    0.147072E+00    0.767038E+00
   ------------------------------------------------------------------------

         :::::::::::::::::::::::::::::::::::::::::::::::::::::
         ::                  THERMODYNAMIC                  ::
         :::::::::::::::::::::::::::::::::::::::::::::::::::::
         :: total free energy        -177.381216403654 Eh   ::
         ::.................................................::
         :: total energy             -178.148254405351 Eh   ::
         :: zero point energy           0.855043093900 Eh   ::
         :: G(RRHO) w/o ZPVE           -0.088005092202 Eh   ::
         :: G(RRHO) contrib.            0.767038001698 Eh   ::
         :::::::::::::::::::::::::::::::::::::::::::::::::::::

           -------------------------------------------------
          | TOTAL ENERGY             -178.148254405351 Eh   |
          | TOTAL ENTHALPY           -177.234144705205 Eh   |
          | TOTAL FREE ENERGY        -177.381216403654 Eh   |
          | GRADIENT NORM               0.000165765978 Eh/α |
          | HOMO-LUMO GAP               0.400714634990 eV   |
           -------------------------------------------------

 * finished run on 2025/08/25 at 05:03:03.356
