   * xtb version 6.7.1 (edcfbbe) compiled by 'albert@albert-system' on 2024-07-22

   ID    Z sym.   atoms
    1    7 N      1, 8, 18, 42, 61, 67
    2    6 C      2-7, 9-17, 19-41, 43-60, 62-66, 68-71
    3    1 H      72-113

          program call               : xtb data2507/toluene/3,6-T2C/3,6-T2C_toluene_S0_finalOpt.xtbopt.xyz --gfn 2 --uhf 2 --gbsa toluene --ohess vtight --parallel 40 --molden --ceasefiles --namespace data2507/toluene/3,6-T2C/3,6-T2C_toluene_T1_preOpt
      * Solvation model:               GBSA
        Solvent                        toluene
        Solvent mass                       9.2140E+01 g/mol
          :  Hamiltonian                  GFN2-xTB          :
 * total energy  :  -178.1422934 Eh     change       -0.1596376E-07 Eh
 * total energy  :  -178.1454765 Eh     change       -0.3183154E-02 Eh
 * total energy  :  -178.1467170 Eh     change       -0.1240423E-02 Eh
 * total energy  :  -178.1468131 Eh     change       -0.9611896E-04 Eh
 * total energy  :  -178.1472443 Eh     change       -0.4311875E-03 Eh
 * total energy  :  -178.1474674 Eh     change       -0.2230837E-03 Eh
 * total energy  :  -178.1477051 Eh     change       -0.2377507E-03 Eh
 * total energy  :  -178.1478346 Eh     change       -0.1295240E-03 Eh
 * total energy  :  -178.1479387 Eh     change       -0.1040360E-03 Eh
 * total energy  :  -178.1480157 Eh     change       -0.7703045E-04 Eh
 * total energy  :  -178.1482534 Eh     change       -0.1249683E-06 Eh
 * total energy  :  -178.1482536 Eh     change       -0.2194714E-06 Eh
 * total energy  :  -178.1482537 Eh     change       -0.5707733E-08 Eh
 * total energy  :  -178.1482538 Eh     change       -0.1643018E-06 Eh
 * total energy  :  -178.1482539 Eh     change       -0.1189317E-06 Eh
 * total energy  :  -178.1482541 Eh     change       -0.1729656E-06 Eh
 * total energy  :  -178.1482543 Eh     change       -0.1629894E-06 Eh
 * total energy  :  -178.1482545 Eh     change       -0.1805505E-06 Eh
 * total energy  :  -178.1482545 Eh     change       -0.9595129E-07 Eh
   *** GEOMETRY OPTIMIZATION CONVERGED AFTER 59 ITERATIONS ***

 final structure:
================
113
 xtb: 6.7.1 (edcfbbe)
N           11.95926345027411       -4.78380679270393        0.01725088135377
C           10.90636547119219       -4.30962267650160        0.01977887760876
C            9.63301404548483       -3.73557252811816        0.02399593951875
C            8.53636345390694       -4.42184014797181        0.58544851255431
C            7.29778091564842       -3.84548641595771        0.59821208691476
C            7.08104109548383       -2.54711905735149        0.07548782206947
C            5.75616109244919       -2.03091424552416        0.12784060792970
N            4.69818119305999       -2.83319204228693        0.24408065076040
C            3.61477286391041       -2.05800050383160        0.14458817889847
C            2.25637151420110       -2.46869026384836        0.15361983627625
C            1.90517943872203       -3.82297335557716        0.22804190091509
C            0.58907603138208       -4.20962188570541        0.20218102464639
C           -0.42149513770471       -3.24308557267790        0.11048125157339
C           -1.83239159081362       -3.62634692821407        0.08811834343547
C           -2.79613352238841       -2.85535580232532        0.74629805460043
C           -4.12678507258537       -3.20387985120377        0.72275004905138
C           -4.55324774196198       -4.33668368454091        0.02025854097411
N           -5.89996302457847       -4.67628431863466       -0.02712962469448
C           -6.28918425451438       -6.02168546511624       -0.09023814248642
C           -5.61208697017053       -6.98888109157040        0.65357763179172
C           -6.00371728908531       -8.31223650546423        0.58959345650026
C           -7.07339518331781       -8.68945190783961       -0.20731065813105
C           -7.75134026421966       -7.73111991592414       -0.94462647973031
C           -7.36454799425437       -6.40586680723218       -0.89197372040467
C           -6.88324664359994       -3.67767745011999       -0.01192778382604
C           -8.07445874073144       -3.87409972066532        0.68793475856968
C           -9.04428363962602       -2.89013091033813        0.69714775635045
C           -8.84147693071549       -1.69833522272568        0.01893264752278
C           -7.65970565462874       -1.49851960314834       -0.67748163926629
C           -6.68706765510473       -2.47937616653348       -0.70026197312344
C           -3.59339023973485       -5.11560095027265       -0.63628422750038
C           -2.26192105178588       -4.76903294786382       -0.59327350569847
C           -0.06815560831101       -1.89765869468483        0.04144042273674
C            1.25855865623367       -1.46933877346409        0.06224629570442
C            1.63570859212791       -0.06125228056949        0.02597705967895
C            0.67692970168376        0.93981956638289        0.01218269517159
C            0.98451217416508        2.30280500903060        0.05446559069710
C           -0.07140185019720        3.29752271829641        0.03367843982265
C            0.05905225143860        4.52119646689043        0.70855044499988
C           -0.95439166930864        5.44891257939315        0.71325700121701
C           -2.15165178271120        5.20350456658926        0.02707426684161
N           -3.18380960755923        6.13101653511184        0.03827429240008
C           -4.51789594281681        5.70476711863116       -0.01661886584858
C           -5.45651881805797        6.42530386796904       -0.75670228099999
C           -6.77135291982005        6.00419036483667       -0.80647369591721
C           -7.16892352875865        4.86232779355321       -0.12822014124627
C           -6.24027381726985        4.14402684951246        0.60902765644207
C           -4.92438225946043        4.56002392320309        0.67114560815778
C           -2.90528929671008        7.50281153622961        0.10567799409486
C           -1.82996853707606        8.04227133788041       -0.60198492618787
C           -1.56482408361867        9.39634977981666       -0.53289859557088
C           -2.36447786133666       10.22971409950457        0.23385221878028
C           -3.43628042698514        9.69858754794093        0.93472640995671
C           -3.70757259300424        8.34535606275695        0.87649992601226
C           -2.28330705200375        3.99422082128004       -0.66916523013848
C           -1.27096691613501        3.06669546966187       -0.65900206667940
C            2.34316133116565        2.66371048232362        0.14577561237993
C            3.31953266420343        1.71146709257774        0.12620129922018
C            3.01852111906347        0.32958617933554        0.03573379750220
C            3.97947026737074       -0.69034479877038        0.00733210281537
N            5.36311705250720       -0.69285749520578       -0.01081551429946
C            6.22215426485806        0.40301910061980       -0.09373118371700
C            7.19890489591205        0.60640203618840        0.89184802763675
C            8.05133556393974        1.67991929555609        0.81213641542485
C            7.95904804608321        2.57703178862868       -0.26557832167359
C            8.82583516290423        3.67498441007639       -0.35036247906228
N            9.53193180277441        4.58360993768700       -0.42125539979572
C            6.98827160112839        2.36579279656949       -1.25993301415994
C            6.13114299208477        1.29658166304320       -1.17126745785067
C            8.17856820934978       -1.88872811197830       -0.52317609497094
C            9.41914644384950       -2.46765858245665       -0.54842231099282
H            8.69218488847272       -5.40504429289135        1.00628923667566
H            6.45235788862417       -4.36274126067617        1.02415895353770
H            2.70395836079166       -4.54496948445147        0.30276533117872
H            0.32945567091558       -5.25471089168452        0.27773754591381
H           -2.48815081708315       -1.99289075344976        1.31799146439755
H           -4.84977858850718       -2.61044295649219        1.26229103124301
H           -4.78820965607250       -6.69362428619827        1.28649913496805
H           -5.47571575713433       -9.05228366631178        1.17258397591057
H           -7.37724092259778       -9.72424886368882       -0.25284161164865
H           -8.58221508114458       -8.01872392339222       -1.57163526548376
H           -7.88591757334670       -5.66144489133900       -1.47551963895525
H           -8.22861767124740       -4.79672708421527        1.22772627648287
H           -9.96082355608904       -3.05210598103516        1.24487974584458
H           -9.60072350524682       -0.93114045816218        0.03182087872179
H           -7.49762226511851       -0.57621895493028       -1.21552511840406
H           -5.77447201382164       -2.32942012634517       -1.25797273278092
H           -3.90665774078470       -5.98374407356696       -1.19689334661662
H           -1.54279034281760       -5.36877052768224       -1.13050982976626
H           -0.86654887176135       -1.18110535078899       -0.05923653149188
H           -0.36594890451222        0.67078417465101        0.01484829823231
H            0.95453176605486        4.72214018914807        1.27660105301084
H           -0.84169129532543        6.36684726306758        1.27098922193854
H           -5.14529220303461        7.30741310427719       -1.29647578038093
H           -7.48815447250555        6.56699652736854       -1.38574282207626
H           -8.19680584566528        4.53585853873615       -0.17271878130730
H           -6.54406672848793        3.25863494698873        1.14760898279214
H           -4.20537018144225        4.01015194991495        1.26022328408045
H           -1.21569288447325        7.39633818553644       -1.21193647399100
H           -0.73361811301603        9.80507558150626       -1.08815261142398
H           -2.15439507696574       11.28730555965044        0.28314737482723
H           -4.06020463494625       10.34137439890939        1.53777247078027
H           -4.53455375748619        7.92971669828954        1.43304057943683
H           -3.18340218280868        3.80447913354897       -1.23488137928488
H           -1.38659140574938        2.16093703645960       -1.23433978057969
H            2.62201700063801        3.70526128076772        0.19958720069021
H            4.35012586781040        2.01663198808178        0.20289038471232
H            7.26821590352652       -0.08760011504435        1.71653207254787
H            8.79481060410348        1.84590755323250        1.57785745128433
H            6.92941620190768        3.04715001683746       -2.09600260698884
H            5.38913817517400        1.12502320621935       -1.93751595774872
H            8.04090849300017       -0.93509731916738       -1.00753205076895
H           10.24836681169252       -1.95585080280076       -1.01700566893722

          :  Hamiltonian                  GFN2-xTB          :
         :: gradient norm              0.000052817710 Eh/a0 ::
         :: HOMO-LUMO gap              0.400187856409 eV    ::
         :: SCC energy              -181.543854270135 Eh    ::
         :: -> dispersion             -0.162964699822 Eh    ::
         :: -> Gsolv                  -0.093493064832 Eh    ::
         :: repulsion energy           3.395599720383 Eh    ::

    * Orbital Energies and Occupations

         #    Occupation            Energy/Eh            Energy/eV
      -------------------------------------------------------------
         1        2.0000           -0.6866477             -18.6846
       ...           ...                  ...                  ...
       155        2.0000           -0.4150931             -11.2953
       156        2.0000           -0.4139987             -11.2655
       157        2.0000           -0.4115180             -11.1980
       158        2.0000           -0.4100756             -11.1587
       159        2.0000           -0.4059411             -11.0462
       160        2.0000           -0.3992160             -10.8632
       161        2.0000           -0.3980557             -10.8316
       162        2.0000           -0.3875900             -10.5469
       163        2.0000           -0.3809897             -10.3673
       164        2.0000           -0.3698897             -10.0652
       165        1.9514           -0.3620003              -9.8505
       166        1.0486           -0.3563500              -9.6968
       167        0.9996           -0.2847148              -7.7475 (HOMO)
       168        0.0004           -0.2700080              -7.3473 (LUMO)
       169        0.0000           -0.2674868              -7.2787
       170                         -0.2530628              -6.8862
       171                         -0.2517127              -6.8494
       172                         -0.2431310              -6.6159
       173                         -0.2416631              -6.5760
       174                         -0.2395853              -6.5194
       175                         -0.2383949              -6.4871
       176                         -0.2375410              -6.4638
       177                         -0.2349111              -6.3923
       178                         -0.2330813              -6.3425
       ...                                ...                  ...
       326                          1.1664959              31.7420
      -------------------------------------------------------------
                  HL-Gap            0.0147067 Eh            0.4002 eV

     #   Z          covCN         q      C6AA      α(0)
     1   7 N        0.911    -0.323    28.308     7.695
     2   6 C        1.911     0.107    28.452     8.614
     3   6 C        2.970    -0.006    28.162     8.705
     4   6 C        2.919    -0.027    28.684     8.783
     5   6 C        2.925    -0.034    28.847     8.808
     6   6 C        2.970    -0.012    28.299     8.726
     7   6 C        3.151     0.130    24.896     8.161
     8   7 N        1.883    -0.321    29.164     8.006
     9   6 C        3.177     0.076    25.917     8.313
    10   6 C        2.984    -0.004    28.126     8.699
    11   6 C        2.919    -0.029    28.734     8.790
    12   6 C        2.920    -0.036    28.904     8.816
    13   6 C        2.974     0.013    27.719     8.636
    14   6 C        2.976     0.010    27.797     8.648
    15   6 C        2.923    -0.031    28.784     8.798
    16   6 C        2.919    -0.045    29.117     8.849
    17   6 C        2.923     0.065    26.535     8.448
    18   7 N        2.752    -0.046    22.133     6.987
    19   6 C        2.925     0.063    26.578     8.455
    20   6 C        2.921    -0.043    29.062     8.840
    21   6 C        2.919    -0.027    28.672     8.781
    22   6 C        2.919    -0.032    28.801     8.800
    23   6 C        2.919    -0.027    28.671     8.781
    24   6 C        2.921    -0.043    29.059     8.840
    25   6 C        2.925     0.063    26.578     8.455
    26   6 C        2.922    -0.043    29.063     8.841
    27   6 C        2.919    -0.027    28.672     8.781
    28   6 C        2.919    -0.033    28.811     8.802
    29   6 C        2.919    -0.027    28.679     8.782
    30   6 C        2.921    -0.043    29.074     8.842
    31   6 C        2.919    -0.045    29.108     8.847
    32   6 C        2.922    -0.030    28.755     8.794
    33   6 C        2.928    -0.041    29.008     8.833
    34   6 C        2.976     0.000    28.024     8.683
    35   6 C        2.975    -0.004    28.114     8.697
    36   6 C        2.927    -0.039    28.976     8.828
    37   6 C        2.971     0.005    27.915     8.666
    38   6 C        2.974     0.010    27.799     8.648
    39   6 C        2.922    -0.032    28.794     8.800
    40   6 C        2.918    -0.044    29.099     8.846
    41   6 C        2.924     0.063    26.592     8.457
    42   7 N        2.752    -0.041    22.029     6.971
    43   6 C        2.926     0.063    26.588     8.456
    44   6 C        2.921    -0.042    29.045     8.838
    45   6 C        2.919    -0.026    28.662     8.779
    46   6 C        2.919    -0.032    28.789     8.799
    47   6 C        2.919    -0.027    28.668     8.780
    48   6 C        2.921    -0.042    29.049     8.838
    49   6 C        2.926     0.063    26.585     8.456
    50   6 C        2.921    -0.042    29.043     8.838
    51   6 C        2.919    -0.027    28.665     8.780
    52   6 C        2.919    -0.031    28.783     8.798
    53   6 C        2.919    -0.026    28.662     8.779
    54   6 C        2.921    -0.042    29.047     8.838
    55   6 C        2.918    -0.045    29.106     8.847
    56   6 C        2.922    -0.033    28.828     8.805
    57   6 C        2.917    -0.037    28.917     8.818
    58   6 C        2.914    -0.041    29.026     8.835
    59   6 C        2.973    -0.011    28.294     8.725
    60   6 C        3.039     0.028    27.339     8.576
    61   7 N        2.818    -0.065    22.492     7.044
    62   6 C        2.908     0.060    26.652     8.465
    63   6 C        2.917    -0.041    29.015     8.833
    64   6 C        2.923    -0.024    28.607     8.771
    65   6 C        2.970    -0.003    28.088     8.693
    66   6 C        1.912     0.109    28.399     8.606
    67   7 N        0.911    -0.308    27.920     7.642
    68   6 C        2.923    -0.026    28.650     8.778
    69   6 C        2.917    -0.041    29.027     8.835
    70   6 C        2.916    -0.041    29.021     8.834
    71   6 C        2.921    -0.027    28.681     8.782
    72   1 H        0.926     0.030     2.585     2.514
    73   1 H        0.926     0.048     2.349     2.397
    74   1 H        0.926     0.046     2.365     2.405
    75   1 H        0.926     0.041     2.435     2.440
    76   1 H        0.926     0.046     2.376     2.411
    77   1 H        0.926     0.044     2.392     2.419
    78   1 H        0.926     0.041     2.438     2.442
    79   1 H        0.926     0.041     2.437     2.441
    80   1 H        0.926     0.039     2.457     2.451
    81   1 H        0.926     0.041     2.433     2.439
    82   1 H        0.926     0.041     2.441     2.443
    83   1 H        0.926     0.039     2.458     2.452
    84   1 H        0.926     0.041     2.440     2.443
    85   1 H        0.926     0.040     2.447     2.446
    86   1 H        0.926     0.042     2.416     2.431
    87   1 H        0.926     0.041     2.432     2.438
    88   1 H        0.926     0.042     2.417     2.431
    89   1 H        0.926     0.044     2.394     2.419
    90   1 H        0.926     0.047     2.353     2.399
    91   1 H        0.926     0.047     2.355     2.400
    92   1 H        0.926     0.041     2.436     2.441
    93   1 H        0.926     0.041     2.437     2.441
    94   1 H        0.926     0.040     2.446     2.446
    95   1 H        0.926     0.042     2.424     2.434
    96   1 H        0.926     0.042     2.428     2.437
    97   1 H        0.926     0.044     2.398     2.422
    98   1 H        0.926     0.042     2.419     2.432
    99   1 H        0.926     0.041     2.434     2.440
   100   1 H        0.926     0.041     2.432     2.439
   101   1 H        0.926     0.040     2.444     2.444
   102   1 H        0.926     0.042     2.417     2.431
   103   1 H        0.926     0.042     2.425     2.435
   104   1 H        0.926     0.044     2.398     2.421
   105   1 H        0.926     0.045     2.381     2.413
   106   1 H        0.926     0.033     2.539     2.492
   107   1 H        0.926     0.026     2.641     2.541
   108   1 H        0.926     0.034     2.529     2.487
   109   1 H        0.926     0.036     2.508     2.477
   110   1 H        0.926     0.038     2.475     2.460
   111   1 H        0.926     0.041     2.438     2.442
   112   1 H        0.926     0.023     2.692     2.566
   113   1 H        0.925     0.024     2.671     2.556

molecular dipole:
                 x           y           z       tot (Debye)
 q only:      -14.321       1.806       0.102
   full:      -14.672       2.021       0.092      37.646

 projected vibrational frequencies (cm⁻¹)
eigval :       -0.00    -0.00    -0.00     0.00     0.00     0.00
eigval :        7.13     8.81    11.54    12.75    14.64    16.80
eigval :       23.65    27.51    32.25    36.81    39.75    45.95
eigval :       48.64    51.59    52.58    54.44    61.49    63.70
eigval :       69.87    74.01    79.37    82.37    93.83    97.16
eigval :      106.78   110.36   112.31   116.04   124.17   125.32
eigval :      135.97   138.85   150.22   158.50   182.87   189.96
eigval :      199.37   208.58   216.48   222.25   229.91   233.60
eigval :      240.26   245.65   251.07   268.39   273.24   295.74
eigval :      305.95   309.10   317.73   326.02   336.24   353.07
eigval :      358.28   366.37   370.44   374.17   376.35   378.38
eigval :      379.20   379.87   382.98   389.70   390.01   399.78
eigval :      400.76   405.04   412.91   416.93   426.49   431.83
eigval :      451.88   452.89   460.00   469.93   480.56   492.85
eigval :      496.89   508.07   509.64   512.22   515.19   520.20
eigval :      530.06   534.76   538.67   554.08   566.88   582.15
eigval :      582.59   583.51   586.04   588.91   592.64   593.22
eigval :      595.55   602.67   603.41   611.03   611.67   620.99
eigval :      626.77   630.32   643.55   649.17   657.44   660.35
eigval :      660.67   664.83   667.27   670.38   674.76   680.80
eigval :      689.07   693.14   697.22   716.28   719.36   727.50
eigval :      754.83   756.55   756.87   759.25   768.06   780.76
eigval :      798.20   804.04   807.25   810.97   812.36   825.57
eigval :      836.35   845.47   846.49   854.81   855.71   860.87
eigval :      862.30   866.78   871.27   872.38   872.73   873.63
eigval :      895.79   896.30   898.39   900.33   905.34   908.86
eigval :      908.91   910.32   911.70   913.17   916.56   917.08
eigval :      917.35   920.74   922.03   923.03   924.14   925.43
eigval :      926.85   927.44   927.90   928.76   929.39   929.92
eigval :      931.52   932.64   934.59   946.82   978.51   982.63
eigval :      987.35   998.31  1002.43  1003.01  1005.63  1013.32
eigval :     1028.90  1058.65  1074.00  1079.60  1079.88  1080.70
eigval :     1080.84  1091.80  1111.34  1119.45  1119.76  1121.51
eigval :     1121.62  1129.31  1135.50  1138.35  1144.60  1147.87
eigval :     1169.76  1172.15  1176.04  1176.36  1177.27  1177.51
eigval :     1178.10  1180.07  1183.09  1190.04  1190.52  1191.16
eigval :     1192.63  1195.77  1212.09  1214.08  1222.31  1229.70
eigval :     1241.02  1245.60  1257.88  1260.07  1263.87  1268.99
eigval :     1271.88  1273.46  1273.76  1274.97  1276.18  1277.43
eigval :     1289.48  1295.71  1297.80  1302.22  1311.97  1312.88
eigval :     1313.84  1315.09  1317.62  1319.19  1321.37  1323.25
eigval :     1323.50  1327.14  1329.22  1337.72  1345.05  1364.21
eigval :     1368.37  1397.04  1410.27  1415.48  1417.66  1420.21
eigval :     1423.18  1430.54  1432.07  1434.41  1436.60  1437.41
eigval :     1438.25  1446.44  1458.42  1459.05  1459.76  1460.23
eigval :     1461.35  1461.56  1463.44  1470.19  1478.73  1485.80
eigval :     1504.63  1517.24  1518.58  1535.36  1540.05  1545.28
eigval :     1550.87  1556.95  1569.23  1570.72  1573.06  1574.48
eigval :     1581.70  1582.24  1583.35  1584.22  1589.27  1590.04
eigval :     1593.64  2282.24  2304.73  3070.69  3075.03  3078.01
eigval :     3078.32  3079.03  3079.13  3079.20  3079.34  3079.62
eigval :     3079.74  3080.32  3081.44  3082.01  3082.62  3083.65
eigval :     3084.04  3084.99  3086.07  3087.25  3087.86  3088.14
eigval :     3088.68  3090.35  3090.55  3090.74  3091.23  3091.69
eigval :     3093.18  3093.97  3094.75  3095.91  3096.73  3098.03
eigval :     3098.42  3099.15  3099.26  3099.85  3103.61  3105.77
eigval :     3106.14  3118.51  3122.00

   temp. (K)  partition function   enthalpy   heat capacity  entropy
                                   cal/mol     cal/K/mol   cal/K/mol   J/K/mol
 298.15  VIB  0.682E+29            34664.496    212.408    220.044
         ROT  0.427E+09              888.752      2.981     42.470
         INT  0.291E+38            35553.249    215.389    262.514
         TR   0.264E+29             1481.254      4.968     46.270
         TOT                       37034.5026   220.3570   308.7843  1291.9535

       T/K    H(0)-H(T)+PV         H(T)/Eh          T*S/Eh         G(T)/Eh
   ------------------------------------------------------------------------
    298.15    0.590182E-01    0.914193E+00    0.146713E+00    0.767479E+00
   ------------------------------------------------------------------------

         :::::::::::::::::::::::::::::::::::::::::::::::::::::
         ::                  THERMODYNAMIC                  ::
         :::::::::::::::::::::::::::::::::::::::::::::::::::::
         :: total free energy        -177.380775100878 Eh   ::
         ::.................................................::
         :: total energy             -178.148254543092 Eh   ::
         :: zero point energy           0.855174585300 Eh   ::
         :: G(RRHO) w/o ZPVE           -0.087695143085 Eh   ::
         :: G(RRHO) contrib.            0.767479442214 Eh   ::
         :::::::::::::::::::::::::::::::::::::::::::::::::::::

           -------------------------------------------------
          | TOTAL ENERGY             -178.148254543092 Eh   |
          | TOTAL ENTHALPY           -177.234061721224 Eh   |
          | TOTAL FREE ENERGY        -177.380775100878 Eh   |
          | GRADIENT NORM               0.000052124488 Eh/α |
          | HOMO-LUMO GAP               0.400190564536 eV   |
           -------------------------------------------------

 * finished run on 2025/08/25 at 04:39:10.713
