   * xtb version 6.7.1 (edcfbbe) compiled by 'albert@albert-system' on 2024-07-22

   ID    Z sym.   atoms
    1    6 C      1-18, 20-41, 43-45
    2   16 S      19
    3    8 O      42
    4    1 H      46-77

          program call               : xtb data2507/gas/DMBFTX/DMBFTX_gas_S0_crest.xyz --gfn 2 --ohess vtight --parallel 40 --molden --ceasefiles --namespace data2507/gas/DMBFTX/DMBFTX_gas_S0_finalOpt
          :  Hamiltonian                  GFN2-xTB          :
 * total energy  :  -115.7641451 Eh     change       -0.1985825E-08 Eh
 * total energy  :  -115.7641467 Eh     change       -0.1599215E-05 Eh
 * total energy  :  -115.7641480 Eh     change       -0.1303208E-05 Eh
 * total energy  :  -115.7641510 Eh     change       -0.3052215E-05 Eh
 * total energy  :  -115.7641530 Eh     change       -0.1983429E-05 Eh
 * total energy  :  -115.7641546 Eh     change       -0.1623286E-05 Eh
 * total energy  :  -115.7641562 Eh     change       -0.1534487E-05 Eh
 * total energy  :  -115.7641575 Eh     change       -0.1368524E-05 Eh
 * total energy  :  -115.7641590 Eh     change       -0.1473779E-05 Eh
 * total energy  :  -115.7641607 Eh     change       -0.1701919E-05 Eh
 * total energy  :  -115.7641636 Eh     change       -0.3093677E-06 Eh
 * total energy  :  -115.7641639 Eh     change       -0.2475749E-06 Eh
 * total energy  :  -115.7641640 Eh     change       -0.1749176E-06 Eh
 * total energy  :  -115.7641642 Eh     change       -0.1417706E-06 Eh
 * total energy  :  -115.7641643 Eh     change       -0.1284446E-06 Eh
 * total energy  :  -115.7641644 Eh     change       -0.1137975E-06 Eh
 * total energy  :  -115.7641645 Eh     change       -0.1100313E-06 Eh
 * total energy  :  -115.7641646 Eh     change       -0.1164723E-06 Eh
 * total energy  :  -115.7641646 Eh     change       -0.2091895E-08 Eh
   *** GEOMETRY OPTIMIZATION CONVERGED AFTER 22 ITERATIONS ***

 final structure:
================
77
 xtb: 6.7.1 (edcfbbe)
C           -4.50751194478951       -0.77586697336198       -1.61668331707634
C           -5.69951604156838       -0.17567971205177       -0.86342920682729
C           -5.83566687292253        1.31644774144288       -1.18412907781349
C           -6.96965956582655       -0.91506930825538       -1.22319111636618
C           -7.57442268439290       -1.04449286995823       -2.45517151475089
C           -8.74649097323600       -1.78222916652526       -2.55151385587193
C           -9.30267664919544       -2.38117959065087       -1.43175943315445
C           -8.70134576665471       -2.25579551574715       -0.19024504795285
C           -7.53234955421519       -1.51940606392657       -0.09218765826766
C           -6.69463528026674       -1.21517959731092        1.05630578717869
C           -6.84204150539472       -1.57785849829508        2.38409131307791
C           -5.89740625469657       -1.14088391933276        3.29730866002725
C           -4.83365324901156       -0.35803807473958        2.88542726106099
C           -4.67410202581945        0.00936570740505        1.54859999070057
C           -3.51170357942765        0.85282651155867        1.18955744324118
C           -3.58331800219821        2.24258477659797        1.31586107274545
C           -2.49554921401800        3.02642195892724        1.00718577118315
C           -1.30422079412583        2.44649833668958        0.56884551615605
S            0.00090847026453        3.55354734672343        0.20581617909261
C            1.30718287331704        2.49846067775592       -0.28527031180949
C            2.50175084267911        3.12674935076835       -0.64022128652656
C            3.59080673264818        2.38590893179843       -1.03770562358397
C            3.51706211653491        0.99139545300969       -1.08728363438920
C            4.68177287671534        0.19795240991266       -1.54052389099546
C            4.85039036804670       -0.00131263285919       -2.91142443369592
C            5.91756725298680       -0.72709389810867       -3.40988686880247
C            6.85683881791175       -1.27319395060847       -2.55151780171311
C            6.70036927857068       -1.07759085912415       -1.19006928777770
C            5.61618104249652       -0.34784940457241       -0.67617467672656
C            5.69056232913779       -0.28535223144336        0.83695256592766
C            4.49471140884181       -0.97725313646595        1.50016413811447
C            5.82048612145032        1.15503048987029        1.34302187744828
C            6.95991405737826       -1.06195469582563        1.11084260820967
C            7.55703807320479       -1.34201470282896        2.32132620214595
C            8.73022444130826       -2.08414963031653        2.33339687112795
C            9.29494304323140       -2.53903379587027        1.15182877664505
C            8.70118870343060       -2.26199095728009       -0.06857645939426
C            7.53114321916770       -1.52088147813696       -0.08250800391497
C            2.32715298158518        0.37802484294478       -0.75243321044294
C            1.20527122455885        1.10761766840992       -0.34098457760597
C           -0.00144702188971        0.33337457577745        0.00254377294563
O           -0.00406115916870       -0.88567669173985       -0.07954509132713
C           -1.20460349270509        1.05960344453485        0.44826205063396
C           -2.32522871916088        0.28525977138128        0.77191211212555
C           -5.61424335210149       -0.42605052515602        0.62956184402071
H           -4.37623298774797       -1.82054326101933       -1.34316289649928
H           -3.59372169141289       -0.23579503352289       -1.38381320614360
H           -4.67992203488124       -0.71904506568105       -2.68910374226283
H           -4.92221767325287        1.84726207502364       -0.92735412663605
H           -6.02888292684093        1.45264785899752       -2.24567577079260
H           -6.66295258726002        1.74810368390728       -0.62417852629200
H           -7.15071647396280       -0.58336079324049       -3.33578154409513
H           -9.23091609624441       -1.89148077069246       -3.51093966061319
H          -10.21487656931211       -2.95163101374451       -1.53006199509268
H           -9.13584627192133       -2.72318894740697        0.68091817323869
H           -7.67567801199487       -2.18632939325044        2.70053465411034
H           -5.98912208544825       -1.40943414410774        4.33950818703873
H           -4.10263585512496       -0.02080788932851        3.60649165420461
H           -4.50044591722957        2.69953416893760        1.65735037605788
H           -2.54697012284793        4.10101770076120        1.10039164200055
H            2.55483368475934        4.20444911269492       -0.59742967140291
H            4.51073083487238        2.88043879647953       -1.31286015068174
H            4.12382092815586        0.42243942661857       -3.59007175419347
H            6.01630858181199       -0.86478713814724       -4.47665719200711
H            7.69327119609811       -1.83749304800879       -2.93527834174694
H            4.36871470374226       -1.97994902813272        1.09750103777854
H            3.58108169113836       -0.41425377575159        1.32911242328343
H            4.65877944967937       -1.05420934553596        2.57263715989069
H            6.64926800313547        1.65553539717307        0.84615967625780
H            4.90674417063971        1.71172116019238        1.15005304157445
H            6.00795820629533        1.15737012260621        2.41428924839395
H            7.12661562623019       -0.99409542480258        3.24940840763705
H            9.20889083389636       -2.31036801980690        3.27510051640381
H           10.20797255184264       -3.11564058002170        1.18479873129397
H            9.14237366878395       -2.61727874502272       -0.98797634352264
H            2.22681052693534       -0.69663184832496       -0.80230592881447
H           -2.22662441591341       -0.78722686205713        0.68541081771095

          :  Hamiltonian                  GFN2-xTB          :
         :: gradient norm              0.000025333324 Eh/a0 ::
         :: HOMO-LUMO gap              2.352059966760 eV    ::
         :: SCC energy              -117.840759435629 Eh    ::
         :: -> dispersion             -0.109753066999 Eh    ::
         :: repulsion energy           2.076594790582 Eh    ::

    * Orbital Energies and Occupations

         #    Occupation            Energy/Eh            Energy/eV
      -------------------------------------------------------------
         1        2.0000           -0.7392138             -20.1150
       ...           ...                  ...                  ...
        96        2.0000           -0.4176790             -11.3656
        97        2.0000           -0.4136961             -11.2572
        98        2.0000           -0.4132733             -11.2457
        99        2.0000           -0.4106807             -11.1752
       100        2.0000           -0.4071739             -11.0798
       101        2.0000           -0.4006820             -10.9031
       102        2.0000           -0.4003218             -10.8933
       103        2.0000           -0.3955805             -10.7643
       104        2.0000           -0.3951594             -10.7528
       105        2.0000           -0.3877884             -10.5523
       106        2.0000           -0.3781880             -10.2910
       107        2.0000           -0.3781347             -10.2896
       108        2.0000           -0.3776289             -10.2758 (HOMO)
       109                         -0.2911923              -7.9237 (LUMO)
       110                         -0.2528799              -6.8812
       111                         -0.2498867              -6.7998
       112                         -0.2497710              -6.7966
       113                         -0.2409748              -6.5573
       114                         -0.2369670              -6.4482
       115                         -0.2234922              -6.0815
       116                         -0.2234788              -6.0812
       117                         -0.2179951              -5.9319
       118                         -0.2179682              -5.9312
       119                         -0.2086647              -5.6781
       ...                                ...                  ...
       217                          0.7309164              19.8892
      -------------------------------------------------------------
                  HL-Gap            0.0864366 Eh            2.3521 eV

     #   Z          covCN         q      C6AA      α(0)
     1   6 C        3.759    -0.098    22.430     6.752
     2   6 C        3.935     0.019    20.183     6.384
     3   6 C        3.758    -0.098    22.414     6.750
     4   6 C        3.056    -0.001    27.996     8.677
     5   6 C        2.915    -0.033    28.829     8.805
     6   6 C        2.922    -0.033    28.812     8.802
     7   6 C        2.921    -0.033    28.823     8.804
     8   6 C        2.915    -0.034    28.840     8.806
     9   6 C        3.036    -0.000    27.997     8.679
    10   6 C        3.039     0.001    27.960     8.673
    11   6 C        2.914    -0.036    28.897     8.815
    12   6 C        2.920    -0.032    28.810     8.802
    13   6 C        2.928    -0.037    28.919     8.819
    14   6 C        2.974     0.005    27.899     8.664
    15   6 C        2.974     0.016    27.658     8.627
    16   6 C        2.925    -0.026    28.654     8.778
    17   6 C        2.992    -0.040    28.984     8.831
    18   6 C        2.968     0.045    26.980     8.520
    19  16 S        2.158    -0.081   144.416    20.226
    20   6 C        2.968     0.045    26.980     8.520
    21   6 C        2.992    -0.040    28.984     8.831
    22   6 C        2.925    -0.026    28.654     8.778
    23   6 C        2.974     0.016    27.658     8.627
    24   6 C        2.974     0.005    27.899     8.664
    25   6 C        2.928    -0.037    28.918     8.819
    26   6 C        2.920    -0.032    28.810     8.802
    27   6 C        2.914    -0.036    28.897     8.815
    28   6 C        3.039     0.001    27.960     8.673
    29   6 C        3.049    -0.006    28.125     8.698
    30   6 C        3.935     0.019    20.183     6.384
    31   6 C        3.759    -0.098    22.430     6.752
    32   6 C        3.758    -0.098    22.414     6.750
    33   6 C        3.056    -0.001    27.996     8.677
    34   6 C        2.915    -0.033    28.829     8.805
    35   6 C        2.922    -0.033    28.812     8.802
    36   6 C        2.921    -0.033    28.823     8.804
    37   6 C        2.915    -0.034    28.840     8.806
    38   6 C        3.036    -0.000    27.997     8.679
    39   6 C        2.935    -0.025    28.619     8.774
    40   6 C        2.995    -0.025    28.614     8.775
    41   6 C        2.833     0.220    23.372     7.922
    42   8 O        0.858    -0.400    21.681     6.243
    43   6 C        2.995    -0.025    28.614     8.775
    44   6 C        2.935    -0.025    28.619     8.774
    45   6 C        3.049    -0.006    28.125     8.698
    46   1 H        0.925     0.039     2.467     2.456
    47   1 H        0.925     0.041     2.433     2.439
    48   1 H        0.925     0.041     2.442     2.444
    49   1 H        0.925     0.037     2.486     2.466
    50   1 H        0.925     0.041     2.436     2.441
    51   1 H        0.925     0.034     2.525     2.485
    52   1 H        0.926     0.027     2.632     2.537
    53   1 H        0.926     0.029     2.600     2.521
    54   1 H        0.926     0.029     2.601     2.522
    55   1 H        0.926     0.030     2.587     2.515
    56   1 H        0.926     0.032     2.555     2.500
    57   1 H        0.926     0.032     2.564     2.504
    58   1 H        0.926     0.028     2.611     2.527
    59   1 H        0.926     0.044     2.394     2.420
    60   1 H        0.926     0.046     2.374     2.409
    61   1 H        0.926     0.046     2.374     2.409
    62   1 H        0.926     0.044     2.394     2.420
    63   1 H        0.926     0.028     2.610     2.526
    64   1 H        0.926     0.032     2.564     2.504
    65   1 H        0.926     0.032     2.555     2.500
    66   1 H        0.925     0.039     2.467     2.456
    67   1 H        0.925     0.041     2.434     2.440
    68   1 H        0.925     0.040     2.442     2.444
    69   1 H        0.925     0.034     2.525     2.485
    70   1 H        0.925     0.037     2.486     2.466
    71   1 H        0.925     0.041     2.436     2.441
    72   1 H        0.926     0.027     2.633     2.537
    73   1 H        0.926     0.029     2.600     2.521
    74   1 H        0.926     0.029     2.601     2.522
    75   1 H        0.926     0.030     2.586     2.515
    76   1 H        0.926     0.071     2.078     2.254
    77   1 H        0.926     0.071     2.078     2.254

molecular dipole:
                 x           y           z       tot (Debye)
 q only:        0.002       0.988       0.070
   full:        0.003       1.011       0.072       2.577

 projected vibrational frequencies (cm⁻¹)
eigval :       -0.00    -0.00    -0.00     0.00     0.00     0.00
eigval :        6.77     7.77    21.27    21.91    23.91    29.30
eigval :       41.82    53.37    72.99    86.16    98.22   103.20
eigval :      107.37   107.93   122.82   142.57   150.88   155.70
eigval :      163.96   167.93   187.13   196.43   218.42   220.40
eigval :      228.70   229.70   233.11   237.16   237.24   263.76
eigval :      265.56   278.86   306.54   309.06   313.78   314.32
eigval :      319.62   334.75   342.11   352.19   362.91   366.42
eigval :      372.94   416.94   420.52   429.54   430.11   438.05
eigval :      445.20   467.85   483.54   510.47   513.98   520.26
eigval :      520.89   532.50   547.73   548.28   549.93   561.35
eigval :      564.94   573.47   579.67   592.56   597.73   606.67
eigval :      612.55   633.52   643.27   669.06   670.61   677.72
eigval :      708.93   711.26   716.00   723.16   724.09   725.89
eigval :      736.34   743.42   766.99   778.60   778.64   802.75
eigval :      803.14   804.45   808.17   826.34   832.56   837.96
eigval :      879.73   879.74   886.15   890.77   891.03   904.25
eigval :      904.48   910.71   910.72   922.44   922.45   926.99
eigval :      927.37   927.91   927.91   951.87   957.96   959.42
eigval :      966.93   966.93  1013.36  1013.37  1017.05  1026.83
eigval :     1045.70  1071.12  1072.12  1076.00  1078.83  1081.22
eigval :     1101.46  1101.82  1125.05  1125.09  1145.13  1146.92
eigval :     1153.71  1157.46  1158.50  1160.16  1172.90  1173.87
eigval :     1173.98  1182.35  1182.49  1195.51  1198.55  1218.95
eigval :     1224.25  1224.96  1231.18  1231.81  1256.95  1256.99
eigval :     1268.69  1269.00  1276.06  1276.23  1295.65  1296.40
eigval :     1329.25  1329.37  1339.87  1340.63  1364.14  1364.48
eigval :     1378.95  1382.66  1396.44  1396.45  1403.76  1403.81
eigval :     1415.41  1415.44  1433.06  1436.39  1449.01  1452.19
eigval :     1466.35  1466.47  1486.65  1487.69  1488.49  1488.54
eigval :     1490.58  1490.65  1499.33  1499.39  1503.43  1503.49
eigval :     1538.42  1552.53  1582.13  1582.91  1589.57  1589.60
eigval :     1591.49  1591.53  1601.26  1601.26  1607.28  1607.29
eigval :     1653.58  3028.28  3028.32  3032.19  3032.22  3034.32
eigval :     3034.36  3036.84  3036.93  3041.26  3041.32  3047.58
eigval :     3047.73  3069.39  3069.42  3072.75  3072.82  3074.35
eigval :     3074.35  3081.34  3081.39  3083.03  3083.30  3083.40
eigval :     3083.51  3090.28  3090.29  3091.71  3091.99  3092.98
eigval :     3093.07  3094.26  3094.42

   temp. (K)  partition function   enthalpy   heat capacity  entropy
                                   cal/mol     cal/K/mol   cal/K/mol   J/K/mol
 298.15  VIB  0.114E+18            22074.101    139.578    136.271
         ROT  0.442E+08              888.752      2.981     37.965
         INT  0.506E+25            22962.853    142.559    174.236
         TR   0.141E+29             1481.254      4.968     45.022
         TOT                       24444.1068   147.5272   219.2584   917.3771

       T/K    H(0)-H(T)+PV         H(T)/Eh          T*S/Eh         G(T)/Eh
   ------------------------------------------------------------------------
    298.15    0.389542E-01    0.641207E+00    0.104177E+00    0.537030E+00
   ------------------------------------------------------------------------

         :::::::::::::::::::::::::::::::::::::::::::::::::::::
         ::                  THERMODYNAMIC                  ::
         :::::::::::::::::::::::::::::::::::::::::::::::::::::
         :: total free energy        -115.227134271941 Eh   ::
         ::.................................................::
         :: total energy             -115.764164645047 Eh   ::
         :: zero point energy           0.602252949455 Eh   ::
         :: G(RRHO) w/o ZPVE           -0.065222576348 Eh   ::
         :: G(RRHO) contrib.            0.537030373107 Eh   ::
         :::::::::::::::::::::::::::::::::::::::::::::::::::::

           -------------------------------------------------
          | TOTAL ENERGY             -115.764164645047 Eh   |
          | TOTAL ENTHALPY           -115.122957531794 Eh   |
          | TOTAL FREE ENERGY        -115.227134271941 Eh   |
          | GRADIENT NORM               0.000025326376 Eh/α |
          | HOMO-LUMO GAP               2.352060154490 eV   |
           -------------------------------------------------

 * finished run on 2025/09/12 at 04:47:44.492
