   * xtb version 6.7.1 (edcfbbe) compiled by 'albert@albert-system' on 2024-07-22

   ID    Z sym.   atoms
    1    6 C      1-18, 20-41, 43-45
    2   16 S      19
    3    8 O      42
    4    1 H      46-77

          program call               : xtb data2507/gas/DMBFTX/DMBFTX_gas_S0_finalOpt.xtbopt.xyz --gfn 2 --spinpol --tblite --uhf 2 --ohess vtight --parallel 40 --molden --ceasefiles --namespace data2507/gas/DMBFTX/DMBFTX_gas_T1_preOpt
 * total energy  :  -115.6760602 Eh     change       -0.2925916E-08 Eh
 * total energy  :  -115.6789801 Eh     change       -0.2919840E-02 Eh
 * total energy  :  -115.6797495 Eh     change       -0.7693885E-03 Eh
 * total energy  :  -115.6797905 Eh     change       -0.4100903E-04 Eh
 * total energy  :  -115.6797974 Eh     change       -0.6918305E-05 Eh
 * total energy  :  -115.6798000 Eh     change       -0.2582041E-05 Eh
 * total energy  :  -115.6798035 Eh     change       -0.3548317E-05 Eh
 * total energy  :  -115.6798051 Eh     change       -0.1569524E-05 Eh
 * total energy  :  -115.6798060 Eh     change       -0.9618922E-06 Eh
 * total energy  :  -115.6798066 Eh     change       -0.5684396E-06 Eh
 * total energy  :  -115.6798083 Eh     change       -0.2062303E-06 Eh
 * total energy  :  -115.6798084 Eh     change       -0.1246241E-06 Eh
 * total energy  :  -115.6798086 Eh     change       -0.2167267E-06 Eh
 * total energy  :  -115.6798088 Eh     change       -0.2095208E-06 Eh
 * total energy  :  -115.6798091 Eh     change       -0.3211569E-06 Eh
 * total energy  :  -115.6798100 Eh     change       -0.8327445E-06 Eh
 * total energy  :  -115.6798102 Eh     change       -0.2466328E-06 Eh
 * total energy  :  -115.6798105 Eh     change       -0.2329310E-06 Eh
 * total energy  :  -115.6798105 Eh     change       -0.5570584E-08 Eh
   *** GEOMETRY OPTIMIZATION CONVERGED AFTER 22 ITERATIONS ***

 final structure:
================
77
 xtb: 6.7.1 (edcfbbe)
C           -4.48630386167521       -0.78106776819856       -1.61251711841319
C           -5.68088191591923       -0.17951953153333       -0.86476740141980
C           -5.81610801905413        1.31189317273787       -1.18789934636672
C           -6.94997261044177       -0.92008805803308       -1.22458857045560
C           -7.55556038135216       -1.04928058645023       -2.45607763076704
C           -8.72793862770795       -1.78686577478387       -2.55155324091757
C           -9.28390134580337       -2.38629717598469       -1.43130183788266
C           -8.68191063142787       -2.26180014793505       -0.19041133587589
C           -7.51208172017544       -1.52559592137714       -0.09286772197975
C           -6.67495170021981       -1.22105785118169        1.05480441843439
C           -6.82089783993268       -1.58544420834924        2.38306258101933
C           -5.87831674193393       -1.14391698898191        3.29576929263789
C           -4.81830753554972       -0.35524452128662        2.88440060640364
C           -4.66006278024165        0.01444068148863        1.54726500493350
C           -3.50483310124753        0.86698467653163        1.19203698941524
C           -3.59437405500687        2.25600316488338        1.31350880876152
C           -2.49812041911201        3.04021815754483        0.99764912665775
C           -1.31242688800209        2.46211243350704        0.56797554106985
S           -0.00048822728475        3.57442592079286        0.20609773090372
C            1.31377117220515        2.51415483849639       -0.28158199003780
C            2.49958149809602        3.14029828001881       -0.63727352090573
C            3.59744825144648        2.40012902914486       -1.04142818440725
C            3.50937731726881        1.00641311500466       -1.08567500172319
C            4.66641201352591        0.20336595036896       -1.53718782517774
C            4.83232826372593        0.00252173013463       -2.90898201151370
C            5.89414365554886       -0.73047649247167       -3.40906722610641
C            6.83119240299938       -1.28304931030169       -2.55290074178187
C            6.67794241858442       -1.08592517662245       -1.19053821399441
C            5.59800561861779       -0.35042483184708       -0.67498397882781
C            5.67440313991144       -0.28809458183069        0.83776858015938
C            4.47628733886902       -0.97582280998768        1.50072377928766
C            5.80850497824666        1.15232229072483        1.34201393437071
C            6.94145531232739       -1.06850974390902        1.10990720339546
C            7.54073331508791       -1.34910764798814        2.31908987576303
C            8.71216593474132       -2.09426988646756        2.32881548054731
C            9.27344826819639       -2.55184014611659        1.14603079643709
C            8.67788519379209       -2.27464400304615       -0.07304526306764
C            7.50898518246898       -1.53062438513654       -0.08498046143589
C            2.32093879643369        0.38431932214412       -0.74996367507491
C            1.19162010836283        1.11162392439992       -0.32894096703280
C            0.00159076149963        0.37250317141508        0.01651962230912
O            0.00212825862048       -0.89616917925031       -0.05961314109376
C           -1.18874297841371        1.06399415865676        0.44864152259656
C           -2.31654852572178        0.29053458418170        0.78246704235867
C           -5.59712846679995       -0.42767718831646        0.62838001294675
H           -4.36447990143724       -1.82909003767676       -1.34737205755954
H           -3.57165424677073       -0.24941821008425       -1.36390642025659
H           -4.64726076324882       -0.71270192255055       -2.68601017036497
H           -4.90526374119606        1.84254564715525       -0.92206600718985
H           -5.99953119331595        1.44743026441315       -2.25123973749948
H           -6.64856957547329        1.74325539655338       -0.63540612035635
H           -7.13246219699064       -0.58794278288699       -3.33671851106129
H           -9.21331449244498       -1.89555866722180       -3.51051859164957
H          -10.19652553872985       -2.95600511644198       -1.52946547213127
H           -9.11594041245601       -2.72911746572496        0.68096963195910
H           -7.65102686130991       -2.19894752176248        2.69892615419742
H           -5.96780684567855       -1.41332213569761        4.33792094897004
H           -4.08896428342919       -0.01491702691076        3.60535489141730
H           -4.51247588233000        2.71196309590353        1.64924832797336
H           -2.55169276088861        4.11536768194684        1.08437828844078
H            2.55195097385298        4.21820391215841       -0.59596652771124
H            4.51577094303262        2.89354064219940       -1.31847277699108
H            4.10738443506315        0.43070775515317       -3.58622424157874
H            5.98952588965866       -0.86849972167098       -4.47608235526376
H            7.66286303782702       -1.85355727580029       -2.93775846555541
H            4.35417978553815       -1.98261293609958        1.10709091109103
H            3.56321782273861       -0.41588041612906        1.31697641146791
H            4.63339696565595       -1.04157779646055        2.57495453771518
H            6.64457336353642        1.64703262392485        0.85153921151366
H            4.89960798702653        1.71272868341164        1.13759015762480
H            5.98541792190785        1.15638397060941        2.41504192038069
H            7.11346445943629       -0.99922005410622        3.24774118488880
H            9.19256010972213       -2.32091348550110        3.26949205604461
H           10.18515896321576       -3.13051154746750        1.17781476288154
H            9.11605531981257       -2.63159667692916       -0.99318888819387
H            2.22684768901135       -0.68981512777915       -0.80512782225777
H           -2.22153943291580       -0.78243796976652        0.70911624417886

 projected vibrational frequencies (cm⁻¹)
eigval :       -0.00    -0.00    -0.00     0.00     0.00     0.00
eigval :        6.26     7.73    21.07    22.73    23.34    29.58
eigval :       40.71    52.62    71.84    72.43    97.24   100.90
eigval :      106.49   107.08   116.16   148.81   152.05   155.06
eigval :      164.16   166.22   185.17   195.24   215.35   218.94
eigval :      227.26   229.15   231.01   235.97   236.19   262.13
eigval :      263.76   275.73   291.02   298.35   311.80   312.12
eigval :      313.94   315.07   325.73   340.52   349.72   360.84
eigval :      360.86   392.71   408.72   423.13   428.96   436.60
eigval :      443.57   465.27   467.37   493.51   506.10   510.24
eigval :      519.19   525.91   544.66   545.83   546.95   557.08
eigval :      561.09   569.07   570.28   580.72   581.01   600.77
eigval :      600.95   627.90   634.15   636.28   655.75   661.75
eigval :      664.92   707.93   709.73   709.88   722.08   723.37
eigval :      725.19   738.14   763.67   777.17   777.26   798.67
eigval :      799.31   802.44   803.14   803.24   809.55   824.83
eigval :      861.50   867.99   878.92   878.93   886.02   886.86
eigval :      887.95   888.86   889.32   910.67   910.67   919.41
eigval :      919.44   927.34   927.34   945.92   957.94   958.43
eigval :      967.08   967.09  1012.54  1012.58  1014.04  1015.45
eigval :     1027.38  1041.52  1071.29  1071.37  1077.35  1077.44
eigval :     1097.00  1097.85  1123.75  1123.93  1141.26  1142.77
eigval :     1147.41  1149.30  1157.32  1157.47  1170.30  1173.72
eigval :     1173.77  1181.90  1182.06  1183.96  1196.96  1197.58
eigval :     1223.11  1223.25  1226.10  1226.61  1255.38  1255.59
eigval :     1264.32  1268.31  1271.09  1274.17  1292.90  1296.07
eigval :     1319.48  1329.22  1329.30  1338.44  1342.84  1355.03
eigval :     1362.18  1363.74  1395.83  1395.88  1398.32  1398.79
eigval :     1404.52  1409.41  1414.31  1414.59  1434.71  1436.10
eigval :     1443.32  1464.25  1464.47  1472.71  1478.80  1485.79
eigval :     1486.87  1488.23  1489.64  1489.77  1497.86  1497.89
eigval :     1499.31  1502.76  1502.94  1520.97  1550.12  1574.75
eigval :     1577.77  1582.34  1582.47  1595.81  1595.88  1601.70
eigval :     1602.76  3028.14  3028.15  3032.26  3032.29  3034.68
eigval :     3034.71  3036.86  3036.92  3041.96  3042.07  3046.83
eigval :     3047.01  3071.12  3071.13  3074.83  3074.86  3075.75
eigval :     3075.78  3082.86  3082.88  3083.23  3084.16  3084.83
eigval :     3084.86  3091.14  3091.17  3093.47  3093.56  3097.11
eigval :     3097.75  3101.64  3101.69

   temp. (K)  partition function   enthalpy   heat capacity  entropy
                                   cal/mol     cal/K/mol   cal/K/mol   J/K/mol
 298.15  VIB  0.219E+18            22390.779    141.145    138.372
         ROT  0.441E+08              888.752      2.981     37.961
         INT  0.968E+25            23279.531    144.126    176.333
         TR   0.141E+29             1481.254      4.968     45.022
         TOT                       24760.7853   149.0942   221.3549   926.1490

       T/K    H(0)-H(T)+PV         H(T)/Eh          T*S/Eh         G(T)/Eh
   ------------------------------------------------------------------------
    298.15    0.394588E-01    0.638061E+00    0.105173E+00    0.532888E+00
   ------------------------------------------------------------------------

         :::::::::::::::::::::::::::::::::::::::::::::::::::::
         ::                  THERMODYNAMIC                  ::
         :::::::::::::::::::::::::::::::::::::::::::::::::::::
         :: total free energy        -115.146922659412 Eh   ::
         ::.................................................::
         :: total energy             -115.679810462377 Eh   ::
         :: zero point energy           0.598601841475 Eh   ::
         :: G(RRHO) w/o ZPVE           -0.065714038510 Eh   ::
         :: G(RRHO) contrib.            0.532887802965 Eh   ::
         :::::::::::::::::::::::::::::::::::::::::::::::::::::

           -------------------------------------------------
          | TOTAL ENERGY             -115.679810462377 Eh   |
          | TOTAL ENTHALPY           -115.041749797862 Eh   |
          | TOTAL FREE ENERGY        -115.146922659412 Eh   |
          | GRADIENT NORM               0.000073415248 Eh/α |
           -------------------------------------------------

 * finished run on 2025/09/12 at 04:47:53.037
