   * xtb version 6.7.1 (edcfbbe) compiled by 'albert@albert-system' on 2024-07-22

   ID    Z sym.   atoms
    1    6 C      1-18, 20-41, 43-45
    2   16 S      19
    3    8 O      42
    4    1 H      46-77

          program call               : xtb data2507/gas/DMBFTX/DMBFTX.xyz --gfn 2 --ohess vtight --parallel 40 --molden --ceasefiles --namespace data2507/gas/DMBFTX/DMBFTX_gas_S0_preOpt
          :  Hamiltonian                  GFN2-xTB          :
 * total energy  :  -115.7512864 Eh     change       -0.2627971E-08 Eh
 * total energy  :  -115.7607807 Eh     change       -0.9494279E-02 Eh
 * total energy  :  -115.7630986 Eh     change       -0.2317901E-02 Eh
 * total energy  :  -115.7636442 Eh     change       -0.5455472E-03 Eh
 * total energy  :  -115.7638816 Eh     change       -0.2374518E-03 Eh
 * total energy  :  -115.7639335 Eh     change       -0.5186909E-04 Eh
 * total energy  :  -115.7639705 Eh     change       -0.3699420E-04 Eh
 * total energy  :  -115.7639871 Eh     change       -0.1661466E-04 Eh
 * total energy  :  -115.7640171 Eh     change       -0.2996039E-04 Eh
 * total energy  :  -115.7640270 Eh     change       -0.9948982E-05 Eh
 * total energy  :  -115.7641584 Eh     change       -0.9988672E-06 Eh
 * total energy  :  -115.7641589 Eh     change       -0.5101764E-06 Eh
 * total energy  :  -115.7641590 Eh     change       -0.1049637E-06 Eh
 * total energy  :  -115.7641592 Eh     change       -0.2335110E-06 Eh
 * total energy  :  -115.7641595 Eh     change       -0.2952497E-06 Eh
 * total energy  :  -115.7641601 Eh     change       -0.5753741E-06 Eh
 * total energy  :  -115.7641604 Eh     change       -0.3337529E-06 Eh
 * total energy  :  -115.7641605 Eh     change       -0.1311685E-06 Eh
 * total energy  :  -115.7641606 Eh     change       -0.1815077E-07 Eh
   *** GEOMETRY OPTIMIZATION CONVERGED AFTER 49 ITERATIONS ***

 final structure:
================
77
 xtb: 6.7.1 (edcfbbe)
C           -4.58847335457606        1.42008649943568       -0.73515662438638
C           -5.74638775615976        0.66970070042928       -0.06816666522065
C           -5.87826957852956        1.08964409184807        1.39941104938907
C           -7.03659982003635        0.93150373703231       -0.81396041493899
C           -7.68915216692485        2.12858977893129       -1.01748142627549
C           -8.87195274954475        2.13130112667269       -1.74430549502212
C           -9.39148947460779        0.95382606791024       -2.25962820509831
C           -8.74177272761962       -0.25309614839184       -2.05989255813912
C           -7.56205500045829       -0.25774783284805       -1.33416109489807
C           -6.67797478733673       -1.35114849571393       -0.96501930291644
C           -6.77672829243795       -2.70444567015756       -1.23905861633502
C           -5.79248881275180       -3.55007121578429       -0.75589432095132
C           -4.73853536423830       -3.04749940873036       -0.01379643796583
C           -4.62879249253615       -1.68463252572017        0.26558059900872
C           -3.47651977043167       -1.22734214669834        1.07485592662297
C           -3.54568837824479       -1.24644659465713        2.47039342560673
C           -2.46866986028593       -0.84447405392746        3.22609907873855
C           -1.29041886011405       -0.41771781026168        2.61185050510937
S            0.00022333500819        0.07360884785571        3.68571199700402
C            1.29158424714309        0.52212618598622        2.59412905270877
C            2.47039312089390        0.97023804872974        3.19187843578360
C            3.54803458693754        1.34169516400739        2.42158431470247
C            3.47888229911290        1.26985540003135        1.02776578440827
C            4.63183043224303        1.69461302510225        0.20189659829016
C            4.74428691549026        3.04609975222308       -0.12727688701593
C            5.79897715487136        3.51896253711562       -0.88762110982751
C            6.78134036752462        2.65417328307908       -1.33967715401060
C            6.67991926856588        1.31204390518177       -1.01615722232915
C            5.60907999938972        0.82357036943400       -0.25015078756201
C            5.74457898839631       -0.67266516470619       -0.04554907796800
C            4.58499751376076       -1.44480439562214       -0.68422459318982
C            5.87609053790434       -1.03863822475689        1.43643879027811
C            7.03403592439381       -0.96424488505651       -0.78154693972551
C            7.68406125784734       -2.16931967727600       -0.94132076846360
C            8.86642058745817       -2.20111674375404       -1.66817555827926
C            9.38806313068548       -1.04440426043567       -2.22658695124527
C            8.74092670446646        0.17036408970307       -2.07090664644130
C            7.56160017637912        0.20403473235003       -1.34530524768202
C            2.30383398341855        0.84353185771614        0.44316240857101
C            1.19316218334392        0.45757599080848        1.20341326299748
C            0.00042456578024        0.01221652784128        0.45970802773364
O           -0.00008537408125       -0.00940679518902       -0.76189868140203
C           -1.19197638905383       -0.40571792073759        1.21969144817562
C           -2.30209368962674       -0.82160657779831        0.47455923950719
C           -5.60797175652633       -0.83276243004272       -0.21773762817793
H           -4.46333065614588        1.08335711157223       -1.76198855676628
H           -3.65993108101285        1.25140428795694       -0.19625305417925
H           -4.79489656041357        2.48794416506893       -0.74479703677881
H           -4.94881136150365        0.90914127585608        1.93373767561029
H           -6.11416785840609        2.14940083209794        1.46305344011681
H           -6.67643406734160        0.52860280593209        1.88151426835107
H           -7.29444292902794        3.05340436795771       -0.62179599316706
H           -9.39388587473547        3.06242459688509       -1.91073541558401
H          -10.31300828379115        0.97940290119170       -2.82295537221921
H           -9.14776631460630       -1.16931057688202       -2.46224636155563
H           -7.60309526696209       -3.09173722792316       -1.81563776823072
H           -5.84553460387100       -4.61022068964950       -0.95575859651434
H           -3.97672894648689       -3.71639580574274        0.36068095710447
H           -4.45253714246515       -1.57868362200841        2.95388163657818
H           -2.51847874086771       -0.85395990239167        4.30476148447208
H            2.52013367656660        1.02060622703263        4.26940837671458
H            4.45531961221071        1.69077069729923        2.89221900567770
H            3.98396841468521        3.72983222760694        0.22262534271787
H            5.85406080371084        4.57094442529623       -1.12632092853949
H            7.60824766547782        3.01833894480803       -1.93037637949856
H            4.46001567900420       -1.14559102341931       -1.72262780011664
H            3.65700187926428       -1.25488471251480       -0.15148530616077
H            4.78950645619542       -2.51267179795676       -0.65492698763864
H            6.10967884782009       -2.09585730998660        1.53897089600852
H            6.67564324618242       -0.46200136927572        1.89737609277814
H            4.94721223377698       -0.83653006515622        1.96400429853699
H            7.28754967814519       -3.07824908653139       -0.51204415091170
H            9.38630020790900       -3.13880844829804       -1.80071444233466
H           10.30930832824929       -1.09248174261631       -2.78889058846194
H            9.14869835984013        1.07042490854791       -2.50655316637449
H            2.20693310563636        0.79797348407634       -0.63202177210625
H           -2.20518233192802       -0.81664561998861       -0.60157632670346

          :  Hamiltonian                  GFN2-xTB          :
         :: gradient norm              0.000143186700 Eh/a0 ::
         :: HOMO-LUMO gap              2.354063904278 eV    ::
         :: SCC energy              -117.840699403839 Eh    ::
         :: -> dispersion             -0.109732880642 Eh    ::
         :: repulsion energy           2.076538849120 Eh    ::

    * Orbital Energies and Occupations

         #    Occupation            Energy/Eh            Energy/eV
      -------------------------------------------------------------
         1        2.0000           -0.7392414             -20.1158
       ...           ...                  ...                  ...
        96        2.0000           -0.4177036             -11.3663
        97        2.0000           -0.4137267             -11.2581
        98        2.0000           -0.4133082             -11.2467
        99        2.0000           -0.4107174             -11.1762
       100        2.0000           -0.4071810             -11.0800
       101        2.0000           -0.4007085             -10.9038
       102        2.0000           -0.4003842             -10.8950
       103        2.0000           -0.3956063             -10.7650
       104        2.0000           -0.3952002             -10.7539
       105        2.0000           -0.3877926             -10.5524
       106        2.0000           -0.3781754             -10.2907
       107        2.0000           -0.3781647             -10.2904
       108        2.0000           -0.3776973             -10.2777 (HOMO)
       109                         -0.2911871              -7.9236 (LUMO)
       110                         -0.2528428              -6.8802
       111                         -0.2499242              -6.8008
       112                         -0.2497809              -6.7969
       113                         -0.2410035              -6.5580
       114                         -0.2369575              -6.4479
       115                         -0.2235368              -6.0827
       116                         -0.2235172              -6.0822
       117                         -0.2180348              -5.9330
       118                         -0.2180223              -5.9327
       119                         -0.2086860              -5.6786
       ...                                ...                  ...
       217                          0.7308774              19.8882
      -------------------------------------------------------------
                  HL-Gap            0.0865103 Eh            2.3541 eV

     #   Z          covCN         q      C6AA      α(0)
     1   6 C        3.759    -0.098    22.428     6.752
     2   6 C        3.935     0.019    20.183     6.384
     3   6 C        3.758    -0.098    22.416     6.750
     4   6 C        3.056    -0.001    27.996     8.677
     5   6 C        2.915    -0.033    28.829     8.805
     6   6 C        2.922    -0.033    28.812     8.802
     7   6 C        2.921    -0.033    28.823     8.804
     8   6 C        2.915    -0.034    28.840     8.806
     9   6 C        3.036    -0.000    27.997     8.679
    10   6 C        3.039     0.001    27.960     8.673
    11   6 C        2.914    -0.036    28.897     8.815
    12   6 C        2.920    -0.032    28.809     8.802
    13   6 C        2.928    -0.037    28.918     8.819
    14   6 C        2.974     0.005    27.898     8.664
    15   6 C        2.974     0.016    27.658     8.626
    16   6 C        2.925    -0.026    28.653     8.778
    17   6 C        2.992    -0.040    28.985     8.831
    18   6 C        2.968     0.045    26.980     8.520
    19  16 S        2.159    -0.081   144.415    20.226
    20   6 C        2.968     0.045    26.980     8.520
    21   6 C        2.992    -0.040    28.985     8.831
    22   6 C        2.925    -0.026    28.653     8.778
    23   6 C        2.974     0.016    27.658     8.626
    24   6 C        2.974     0.005    27.898     8.664
    25   6 C        2.928    -0.037    28.918     8.819
    26   6 C        2.920    -0.032    28.809     8.802
    27   6 C        2.914    -0.036    28.897     8.815
    28   6 C        3.039     0.001    27.960     8.673
    29   6 C        3.049    -0.006    28.126     8.698
    30   6 C        3.935     0.019    20.183     6.384
    31   6 C        3.759    -0.098    22.428     6.752
    32   6 C        3.758    -0.098    22.416     6.750
    33   6 C        3.056    -0.001    27.996     8.677
    34   6 C        2.915    -0.033    28.829     8.805
    35   6 C        2.922    -0.033    28.812     8.802
    36   6 C        2.921    -0.033    28.823     8.804
    37   6 C        2.915    -0.034    28.840     8.806
    38   6 C        3.036    -0.000    27.997     8.679
    39   6 C        2.935    -0.025    28.619     8.774
    40   6 C        2.995    -0.025    28.613     8.775
    41   6 C        2.833     0.220    23.371     7.922
    42   8 O        0.858    -0.400    21.679     6.243
    43   6 C        2.995    -0.025    28.613     8.775
    44   6 C        2.935    -0.025    28.619     8.774
    45   6 C        3.049    -0.006    28.126     8.698
    46   1 H        0.925     0.039     2.468     2.457
    47   1 H        0.925     0.041     2.436     2.441
    48   1 H        0.925     0.041     2.442     2.444
    49   1 H        0.925     0.037     2.484     2.465
    50   1 H        0.925     0.041     2.436     2.441
    51   1 H        0.925     0.034     2.525     2.485
    52   1 H        0.926     0.027     2.633     2.537
    53   1 H        0.926     0.029     2.600     2.521
    54   1 H        0.926     0.029     2.601     2.522
    55   1 H        0.926     0.030     2.586     2.515
    56   1 H        0.926     0.032     2.555     2.500
    57   1 H        0.926     0.032     2.564     2.504
    58   1 H        0.926     0.028     2.610     2.526
    59   1 H        0.926     0.044     2.393     2.419
    60   1 H        0.926     0.046     2.374     2.409
    61   1 H        0.926     0.046     2.374     2.409
    62   1 H        0.926     0.044     2.393     2.419
    63   1 H        0.926     0.028     2.610     2.526
    64   1 H        0.926     0.032     2.564     2.504
    65   1 H        0.926     0.032     2.555     2.500
    66   1 H        0.925     0.039     2.468     2.457
    67   1 H        0.925     0.041     2.436     2.441
    68   1 H        0.925     0.041     2.442     2.444
    69   1 H        0.925     0.041     2.436     2.441
    70   1 H        0.925     0.034     2.525     2.485
    71   1 H        0.925     0.037     2.485     2.465
    72   1 H        0.926     0.027     2.633     2.537
    73   1 H        0.926     0.029     2.600     2.521
    74   1 H        0.926     0.029     2.601     2.522
    75   1 H        0.926     0.030     2.586     2.515
    76   1 H        0.926     0.071     2.080     2.255
    77   1 H        0.926     0.071     2.080     2.255

molecular dipole:
                 x           y           z       tot (Debye)
 q only:        0.000       0.017       0.997
   full:        0.001       0.017       1.018       2.589

 projected vibrational frequencies (cm⁻¹)
eigval :       -0.00    -0.00    -0.00    -0.00     0.00     0.00
eigval :        6.86     7.68    21.34    21.80    23.69    29.39
eigval :       41.96    53.37    73.02    86.48    98.34   103.17
eigval :      107.41   107.99   123.13   142.29   150.55   155.87
eigval :      163.97   167.72   187.06   196.36   218.08   220.45
eigval :      229.45   230.23   232.15   235.90   237.35   263.74
eigval :      265.35   278.71   306.61   309.10   313.71   314.26
eigval :      319.59   334.83   342.08   352.21   363.04   366.37
eigval :      372.60   416.51   420.50   429.54   430.16   438.10
eigval :      445.09   467.82   483.47   510.55   513.97   520.28
eigval :      520.95   532.49   547.78   548.27   550.06   561.14
eigval :      564.96   573.55   579.66   592.55   597.77   606.68
eigval :      612.52   633.61   643.16   669.06   670.57   677.73
eigval :      708.96   711.30   716.06   723.27   724.08   725.75
eigval :      736.31   743.44   766.98   778.61   778.64   802.74
eigval :      803.12   804.46   808.16   826.31   832.67   838.09
eigval :      879.74   879.75   886.12   890.77   891.04   903.73
eigval :      903.99   910.71   910.72   922.42   922.42   927.07
eigval :      927.44   927.92   927.92   951.84   957.98   959.43
eigval :      966.96   966.97  1013.39  1013.40  1017.06  1026.82
eigval :     1045.71  1071.12  1072.14  1076.00  1078.83  1081.21
eigval :     1101.40  1101.79  1125.04  1125.08  1145.07  1146.93
eigval :     1153.73  1157.47  1158.50  1160.17  1172.85  1173.92
eigval :     1174.03  1182.35  1182.49  1195.49  1198.52  1218.85
eigval :     1224.24  1224.93  1230.99  1231.75  1256.97  1257.01
eigval :     1268.67  1268.98  1275.99  1276.15  1295.59  1296.32
eigval :     1329.23  1329.35  1339.92  1340.61  1364.13  1364.47
eigval :     1378.82  1382.49  1396.44  1396.44  1403.75  1403.79
eigval :     1415.40  1415.42  1433.05  1436.39  1449.00  1452.16
eigval :     1466.34  1466.44  1486.64  1487.64  1488.49  1488.56
eigval :     1490.54  1490.61  1499.33  1499.39  1503.42  1503.47
eigval :     1538.37  1552.49  1582.09  1582.85  1589.58  1589.60
eigval :     1591.55  1591.60  1601.26  1601.27  1607.27  1607.28
eigval :     1653.61  3028.26  3028.28  3032.23  3032.26  3034.38
eigval :     3034.42  3036.72  3036.77  3041.52  3041.56  3047.12
eigval :     3047.19  3069.38  3069.41  3072.95  3072.96  3074.34
eigval :     3074.36  3081.40  3081.44  3083.08  3083.35  3083.44
eigval :     3083.55  3090.28  3090.30  3091.51  3091.78  3093.04
eigval :     3093.13  3094.31  3094.47

   temp. (K)  partition function   enthalpy   heat capacity  entropy
                                   cal/mol     cal/K/mol   cal/K/mol   J/K/mol
 298.15  VIB  0.115E+18            22075.742    139.588    136.283
         ROT  0.441E+08              888.752      2.981     37.962
         INT  0.506E+25            22964.495    142.568    174.245
         TR   0.141E+29             1481.254      4.968     45.022
         TOT                       24445.7487   147.5366   219.2676   917.4155

       T/K    H(0)-H(T)+PV         H(T)/Eh          T*S/Eh         G(T)/Eh
   ------------------------------------------------------------------------
    298.15    0.389568E-01    0.641200E+00    0.104181E+00    0.537019E+00
   ------------------------------------------------------------------------

         :::::::::::::::::::::::::::::::::::::::::::::::::::::
         ::                  THERMODYNAMIC                  ::
         :::::::::::::::::::::::::::::::::::::::::::::::::::::
         :: total free energy        -115.227141418809 Eh   ::
         ::.................................................::
         :: total energy             -115.764160554720 Eh   ::
         :: zero point energy           0.602243457365 Eh   ::
         :: G(RRHO) w/o ZPVE           -0.065224321455 Eh   ::
         :: G(RRHO) contrib.            0.537019135911 Eh   ::
         :::::::::::::::::::::::::::::::::::::::::::::::::::::

           -------------------------------------------------
          | TOTAL ENERGY             -115.764160554720 Eh   |
          | TOTAL ENTHALPY           -115.122960317128 Eh   |
          | TOTAL FREE ENERGY        -115.227141418809 Eh   |
          | GRADIENT NORM               0.000143210711 Eh/α |
          | HOMO-LUMO GAP               2.354064408476 eV   |
           -------------------------------------------------

 * finished run on 2025/09/12 at 04:43:28.541
