   * xtb version 6.7.1 (edcfbbe) compiled by 'albert@albert-system' on 2024-07-22

   ID    Z sym.   atoms
    1    6 C      1-18, 20-41, 43-45
    2   16 S      19
    3    8 O      42
    4    1 H      46-77

          program call               : xtb data2507/gas/DMBFTX/DMBFTX_gas_T1_crest.xyz --gfn 2 --spinpol --tblite --uhf 2 --ohess vtight --parallel 40 --molden --ceasefiles --namespace data2507/gas/DMBFTX/DMBFTX_gas_T1_finalOpt
 * total energy  :  -115.6797462 Eh     change       -0.9680036E-08 Eh
 * total energy  :  -115.6797879 Eh     change       -0.4170435E-04 Eh
 * total energy  :  -115.6798013 Eh     change       -0.1334348E-04 Eh
 * total energy  :  -115.6798024 Eh     change       -0.1173200E-05 Eh
 * total energy  :  -115.6798032 Eh     change       -0.7449945E-06 Eh
 * total energy  :  -115.6798042 Eh     change       -0.1030279E-05 Eh
 * total energy  :  -115.6798052 Eh     change       -0.1010319E-05 Eh
 * total energy  :  -115.6798059 Eh     change       -0.7341253E-06 Eh
 * total energy  :  -115.6798065 Eh     change       -0.5525750E-06 Eh
 * total energy  :  -115.6798071 Eh     change       -0.6017996E-06 Eh
 * total energy  :  -115.6798079 Eh     change       -0.7818336E-06 Eh
 * total energy  :  -115.6798086 Eh     change       -0.6721549E-06 Eh
 * total energy  :  -115.6798090 Eh     change       -0.4891255E-06 Eh
 * total energy  :  -115.6798095 Eh     change       -0.4539905E-06 Eh
 * total energy  :  -115.6798099 Eh     change       -0.3718359E-06 Eh
 * total energy  :  -115.6798101 Eh     change       -0.2580069E-06 Eh
 * total energy  :  -115.6798102 Eh     change       -0.3242975E-07 Eh
   *** GEOMETRY OPTIMIZATION CONVERGED AFTER 17 ITERATIONS ***

 final structure:
================
77
 xtb: 6.7.1 (edcfbbe)
C           -4.46474346997634       -0.96104595706555       -1.50905709565295
C           -5.66740404531320       -0.28280244254166       -0.84467756944211
C           -5.80305928358359        1.16217804430704       -1.33542881205276
C           -6.93112043912699       -1.06385065414664       -1.13017812040663
C           -7.52283271306133       -1.33617960979770       -2.34497040196314
C           -8.69186939884779       -2.08482600006050       -2.36740162368901
C           -9.25841152392321       -2.55367201309518       -1.19156820033988
C           -8.67072072014248       -2.28439481464690        0.03310728460476
C           -7.50408379688699       -1.53714494817531        0.05770385191250
C           -6.68018023853467       -1.09956442927379        1.17143380418009
C           -6.84135433074638       -1.30700017984222        2.53135371482255
C           -5.91055994119968       -0.75902006840703        3.39725359901536
C           -4.84681528440377       -0.02084786116398        2.90901177944539
C           -4.67269700102599        0.19010041145422        1.53973942566746
C           -3.51374806718132        0.99743946098022        1.10094787005783
C           -3.59994360312618        2.39170939533804        1.07453881794807
C           -2.50054920804359        3.13564213269829        0.68141928891384
C           -1.31529701998532        2.51259327854742        0.31864804961064
S            0.00132382460314        3.57721587444297       -0.15299199919694
C            1.31126633812831        2.46776081495913       -0.53074231148900
C            2.49785151383984        3.04975895437513       -0.95250729947110
C            3.59249763620717        2.26806911904614       -1.28015483703929
C            3.50030015245958        0.87760528255143       -1.17909116951426
C            4.65381862358566        0.02814403706946       -1.54729094816110
C            4.80463678967655       -0.33140151669307       -2.88804699741088
C            5.86339386175218       -1.11533650839368       -3.31158038443106
C            6.81138251806445       -1.56326119519436       -2.40765274583429
C            6.67201180343993       -1.21021703952371       -1.07561401855915
C            5.59631810760016       -0.42047842856301       -0.63717452021566
C            5.68679060579208       -0.18603547945996        0.85778052873046
C            4.49444498386925       -0.79348658532549        1.60427965404513
C            5.82499285598373        1.30205432926871        1.19463067959437
C            6.95661561322629       -0.93114477144668        1.20539142512834
C            7.56660297330703       -1.07326658010267        2.43326578180392
C            8.73831924931609       -1.81332617915050        2.51708811067828
C            9.28942338236010       -2.40218738210882        1.38884440026006
C            8.68315962327916       -2.26440171596106        0.15145095124670
C            7.51385853792106       -1.52588177872856        0.06554692517839
C            2.31108006797897        0.29755012001705       -0.77733326940588
C            1.18503570442891        1.06823983092612       -0.43134855197024
C           -0.00644164546190        0.37301019439866       -0.00839637538710
O           -0.00943766177593       -0.89663776383584        0.04958794038672
C           -1.19514354824179        1.10930561845833        0.34749136380675
C           -2.32559099532744        0.37821482554699        0.75883151662788
C           -5.59842506479212       -0.35846402461536        0.66785181049189
H           -4.34128803668247       -1.97109398757893       -1.12426729213247
H           -3.55398402948535       -0.40025251532621       -1.31681004962808
H           -4.61755827179225       -1.01733697780759       -2.58444373702653
H           -4.89744940346633        1.72347635679328       -1.11914321954890
H           -5.97270256070391        1.17644319732006       -2.40954059081265
H           -6.64406684990009        1.64920041379382       -0.84568104411892
H           -7.09142197279480       -0.97739158273314       -3.26828786068811
H           -9.16635628533227       -2.30506222096746       -3.31257732287699
H          -10.16812693712350       -3.13484835216565       -1.23321936658867
H           -9.11290867549816       -2.65032351543225        0.94778749529796
H           -7.67452077405813       -1.88148913015705        2.90693773923080
H           -6.01222395075415       -0.90504305733339        4.46262263643733
H           -4.12653447855102        0.40319814973592        3.59379188072413
H           -4.51808768562299        2.88274160920911        1.35640180426534
H           -2.55156116272569        4.21406768616229        0.65437571068412
H            2.55354812220507        4.12591788711699       -1.02405081823256
H            4.51115998562828        2.72715480340738       -1.61007357020272
H            4.07076416110418        0.01350020853018       -3.60220426407111
H            5.94745660034682       -1.37627003755236       -4.35634090555343
H            7.64039499038625       -2.17331467569943       -2.73299321580691
H            3.57885488518994       -0.26080913657339        1.36129210441483
H            4.65779127182032       -0.73235864681073        2.67784240784441
H            4.37273088721218       -1.83974131177610        1.33216826783352
H            6.65526927309560        1.73796647776135        0.64241523424892
H            4.91341169427421        1.83612473998539        0.93841251372760
H            6.01365955256578        1.42704540112116        2.25835133493696
H            7.14730685079757       -0.62022036709798        3.32000564535156
H            9.22711985265959       -1.93211432299016        3.47311363751804
H           10.20161909585911       -2.97406737328456        1.47798531745196
H            9.11332832906310       -2.72371074833568       -0.72608496615541
H            2.21431195717212       -0.77620459210709       -0.71899734797513
H           -2.23276563249958       -0.69662360517990        0.80098094672542

 projected vibrational frequencies (cm⁻¹)
eigval :       -0.00    -0.00    -0.00     0.00     0.00     0.00
eigval :        6.39     7.78    21.15    22.75    23.47    29.32
eigval :       40.73    52.63    71.20    72.51    97.23   100.82
eigval :      106.51   107.30   116.20   148.82   152.09   155.12
eigval :      164.36   166.21   185.13   195.31   215.37   218.86
eigval :      227.17   229.15   231.05   235.83   236.45   262.18
eigval :      263.91   275.72   291.01   298.40   311.71   312.11
eigval :      313.94   315.05   325.44   340.35   349.76   360.73
eigval :      360.83   392.78   408.86   423.03   429.00   436.59
eigval :      443.56   465.47   467.49   493.53   506.10   510.28
eigval :      519.13   525.87   544.58   545.82   546.95   557.11
eigval :      561.15   569.05   570.21   580.74   581.05   600.63
eigval :      600.88   627.80   634.14   636.35   655.73   661.80
eigval :      664.90   707.91   709.63   709.77   722.04   723.42
eigval :      725.16   738.11   763.65   777.19   777.26   798.78
eigval :      799.31   802.31   803.02   803.31   809.49   824.68
eigval :      861.50   868.04   878.90   878.92   885.98   886.87
eigval :      887.96   888.85   889.32   910.65   910.66   919.39
eigval :      919.41   927.31   927.33   945.83   957.93   958.42
eigval :      967.07   967.11  1012.49  1012.58  1013.86  1015.11
eigval :     1027.27  1041.45  1071.21  1071.29  1077.30  1077.35
eigval :     1096.96  1097.81  1123.67  1123.86  1141.13  1142.52
eigval :     1147.45  1149.25  1157.26  1157.43  1170.03  1173.72
eigval :     1173.81  1181.85  1182.02  1184.19  1196.81  1197.52
eigval :     1223.09  1223.19  1226.14  1226.61  1255.27  1255.46
eigval :     1264.34  1268.24  1270.96  1273.99  1292.63  1295.91
eigval :     1319.05  1329.19  1329.22  1337.89  1342.82  1355.17
eigval :     1361.99  1363.45  1395.78  1395.81  1398.20  1398.72
eigval :     1404.45  1408.92  1414.33  1414.51  1434.77  1435.76
eigval :     1443.22  1463.80  1464.15  1472.59  1478.59  1485.81
eigval :     1486.83  1488.27  1489.60  1489.75  1497.86  1497.90
eigval :     1499.27  1502.71  1502.89  1520.70  1550.03  1575.37
eigval :     1577.76  1582.29  1582.44  1595.68  1595.79  1602.09
eigval :     1602.71  3028.08  3028.10  3032.21  3032.28  3034.62
eigval :     3034.69  3036.76  3036.88  3041.84  3042.11  3046.63
eigval :     3047.28  3071.05  3071.12  3074.72  3074.76  3075.69
eigval :     3075.74  3082.75  3082.81  3083.20  3084.12  3084.71
eigval :     3084.76  3091.06  3091.12  3093.40  3093.47  3097.31
eigval :     3097.81  3101.24  3101.47

   temp. (K)  partition function   enthalpy   heat capacity  entropy
                                   cal/mol     cal/K/mol   cal/K/mol   J/K/mol
 298.15  VIB  0.214E+18            22391.184    141.145    138.346
         ROT  0.882E+08              888.752      2.981     39.339
         INT  0.189E+26            23279.937    144.126    177.684
         TR   0.141E+29             1481.254      4.968     45.022
         TOT                       24761.1907   149.0939   222.7066   931.8045

       T/K    H(0)-H(T)+PV         H(T)/Eh          T*S/Eh         G(T)/Eh
   ------------------------------------------------------------------------
    298.15    0.394595E-01    0.638039E+00    0.105815E+00    0.532224E+00
   ------------------------------------------------------------------------

         :::::::::::::::::::::::::::::::::::::::::::::::::::::
         ::                  THERMODYNAMIC                  ::
         :::::::::::::::::::::::::::::::::::::::::::::::::::::
         :: total free energy        -115.147586091514 Eh   ::
         ::.................................................::
         :: total energy             -115.679810176438 Eh   ::
         :: zero point energy           0.598579722478 Eh   ::
         :: G(RRHO) w/o ZPVE           -0.066355637553 Eh   ::
         :: G(RRHO) contrib.            0.532224084925 Eh   ::
         :::::::::::::::::::::::::::::::::::::::::::::::::::::

           -------------------------------------------------
          | TOTAL ENERGY             -115.679810176438 Eh   |
          | TOTAL ENTHALPY           -115.041770984846 Eh   |
          | TOTAL FREE ENERGY        -115.147586091514 Eh   |
          | GRADIENT NORM               0.000166271226 Eh/α |
           -------------------------------------------------

 * finished run on 2025/09/12 at 04:54:11.307
