   * xtb version 6.7.1 (edcfbbe) compiled by 'albert@albert-system' on 2024-07-22

   ID    Z sym.   atoms
    1    8 O      1, 16, 28
    2    6 C      2-8, 10-15, 17-27, 30-35
    3    7 N      9, 29
    4    1 H      36-53

          program call               : xtb data2507/toluene/PXZ-NAI/PXZ-NAI.xyz --gfn 2 --gbsa toluene --ohess vtight --parallel 40 --molden --ceasefiles --namespace data2507/toluene/PXZ-NAI/PXZ-NAI_toluene_S0_preOpt
      * Solvation model:               GBSA
        Solvent                        toluene
        Solvent mass                       9.2140E+01 g/mol
          :  Hamiltonian                  GFN2-xTB          :
 * total energy  :   -91.5483943 Eh     change       -0.1830713E-08 Eh
 * total energy  :   -91.5598076 Eh     change       -0.1141333E-01 Eh
 * total energy  :   -91.5633755 Eh     change       -0.3567887E-02 Eh
 * total energy  :   -91.5649613 Eh     change       -0.1585762E-02 Eh
 * total energy  :   -91.5664764 Eh     change       -0.1515075E-02 Eh
 * total energy  :   -91.5672424 Eh     change       -0.7660707E-03 Eh
 * total energy  :   -91.5676586 Eh     change       -0.4161763E-03 Eh
 * total energy  :   -91.5679866 Eh     change       -0.3279835E-03 Eh
 * total energy  :   -91.5682961 Eh     change       -0.3094832E-03 Eh
 * total energy  :   -91.5686304 Eh     change       -0.3343210E-03 Eh
 * total energy  :   -91.5718317 Eh     change       -0.5400111E-06 Eh
 * total energy  :   -91.5718323 Eh     change       -0.5588018E-06 Eh
 * total energy  :   -91.5718326 Eh     change       -0.3785570E-06 Eh
 * total energy  :   -91.5718329 Eh     change       -0.2428266E-06 Eh
 * total energy  :   -91.5718331 Eh     change       -0.2129195E-06 Eh
 * total energy  :   -91.5718333 Eh     change       -0.1990763E-06 Eh
 * total energy  :   -91.5718335 Eh     change       -0.1483987E-06 Eh
 * total energy  :   -91.5718336 Eh     change       -0.1037806E-06 Eh
 * total energy  :   -91.5718336 Eh     change       -0.6150833E-07 Eh
   *** GEOMETRY OPTIMIZATION CONVERGED AFTER 78 ITERATIONS ***

 final structure:
================
53
 xtb: 6.7.1 (edcfbbe)
O            4.04003160693742        0.57434370717686        2.22143696226702
C            3.24519114520920        0.32908963473778        1.33121053233841
C            1.78990025112465        0.31563149763172        1.53050923303804
C            1.27235535113932        0.56417310845498        2.78713997317765
C           -0.10655402325439        0.53707085367577        2.99761999697743
C           -0.96451083620224        0.29638711399514        1.95393202191993
C           -0.47669971310675        0.06477612124216        0.65186660396673
C           -1.32825883002601       -0.20030584566222       -0.46044347859875
N           -2.72194628182355       -0.15352908562430       -0.30482304616327
C           -3.36372967055028        1.06225928729910       -0.02683987424714
C           -2.66623359832511        2.26003177339768        0.08020168027124
C           -3.32819805923674        3.44351427145344        0.36548285855926
C           -4.69991403533505        3.45456319436360        0.53045413900822
C           -5.41543638984232        2.27700831664839        0.38063868992062
C           -4.75842165616378        1.09226714840719        0.09562260785477
O           -5.53729496642877       -0.02523731026453       -0.07464811541279
C           -4.90487216891344       -1.18617043113554       -0.44610957565568
C           -5.71032182045624       -2.28711113682582       -0.68015811435333
C           -5.14632272663160       -3.50847908992783       -1.01376920059524
C           -3.77191720776351       -3.62394976085662       -1.09213657531063
C           -2.96144600399420       -2.52306201802019       -0.86376265633761
C           -3.51185618336426       -1.28224867605961       -0.56383799427712
C           -0.78108465765053       -0.51309937054348       -1.69204736864778
C            0.59566454924457       -0.53206378940635       -1.87879887867600
C            1.45288565293046       -0.24473912975733       -0.83068288291934
C            0.92760096832798        0.04805860674227        0.44564966763324
C            2.90008467775946       -0.25270407396884       -1.05391448832183
O            3.41405407046201       -0.50849958583257       -2.12914321348429
N            3.68996953166415        0.04764694502948        0.04865406850553
C            5.11274086251647        0.05336935680517       -0.15823559900503
C            5.87969183336288       -0.99411814314701        0.32572174263018
C            7.24953318935060       -0.98157345494645        0.12853680845817
C            7.84487620921341        0.06712818240186       -0.55228255148884
C            7.07094820964511        1.10816480416841       -1.03694964579072
C            5.70121921541359        1.10719154078317       -0.83844690783201
H            1.95684497871423        0.76765158408309        3.59704860923998
H           -0.49610221462887        0.70829710871334        3.98900667159732
H           -2.02927545141227        0.27753352551280        2.12807194411988
H           -1.59730691824660        2.26982638276031       -0.06109192519430
H           -2.76014872522751        4.35671145027466        0.45164750563740
H           -5.21919790416490        4.37179903044881        0.75850835155042
H           -6.48949500038884        2.25391734841710        0.47636351667995
H           -6.77802372056475       -2.16583395656732       -0.58716926953028
H           -5.78181514299494       -4.36046109206444       -1.19631167396595
H           -3.31619554395535       -4.57337976052407       -1.32694004633352
H           -1.88992367679338       -2.63457684860149       -0.91052042543024
H           -1.43659241376872       -0.71891801112365       -2.52486739449916
H            1.01795641770089       -0.75053647775950       -2.84802097262781
H            5.40407943470594       -1.80669552149863        0.85526433822126
H            7.85035028417582       -1.79479631907889        0.50707104102225
H            8.91349601816790        0.07277287270492       -0.70577045022786
H            7.53215986610075        1.92672688345058       -1.56880463239602
H            5.08746321734611        1.91417523842209       -1.21113460727397

          :  Hamiltonian                  GFN2-xTB          :
         :: gradient norm              0.000023310052 Eh/a0 ::
         :: HOMO-LUMO gap              0.941232032265 eV    ::
         :: SCC energy               -93.094387967641 Eh    ::
         :: -> dispersion             -0.074677157641 Eh    ::
         :: -> Gsolv                  -0.041140249142 Eh    ::
         :: repulsion energy           1.522554351800 Eh    ::

    * Orbital Energies and Occupations

         #    Occupation            Energy/Eh            Energy/eV
      -------------------------------------------------------------
         1        2.0000           -0.7383429             -20.0913
       ...           ...                  ...                  ...
        71        2.0000           -0.4411534             -12.0044
        72        2.0000           -0.4365643             -11.8795
        73        2.0000           -0.4311533             -11.7323
        74        2.0000           -0.4269990             -11.6192
        75        2.0000           -0.4235616             -11.5257
        76        2.0000           -0.4210040             -11.4561
        77        2.0000           -0.4191180             -11.4048
        78        2.0000           -0.4186564             -11.3922
        79        2.0000           -0.4151094             -11.2957
        80        2.0000           -0.4121658             -11.2156
        81        2.0000           -0.4119711             -11.2103
        82        2.0000           -0.3986104             -10.8467
        83        2.0000           -0.3547410              -9.6530 (HOMO)
        84                         -0.3201514              -8.7118 (LUMO)
        85                         -0.2609858              -7.1018
        86                         -0.2590147              -7.0481
        87                         -0.2466831              -6.7126
        88                         -0.2390016              -6.5036
        89                         -0.2376438              -6.4666
        90                         -0.2349141              -6.3923
        91                         -0.2346112              -6.3841
        92                         -0.2229339              -6.0663
        93                         -0.2051224              -5.5817
        94                         -0.1717723              -4.6742
       ...                                ...                  ...
       158                          0.7120288              19.3753
      -------------------------------------------------------------
                  HL-Gap            0.0345896 Eh            0.9412 eV

     #   Z          covCN         q      C6AA      α(0)
     1   8 O        0.859    -0.441    22.516     6.362
     2   6 C        2.776     0.276    22.327     7.739
     3   6 C        2.976    -0.028    28.698     8.787
     4   6 C        2.922    -0.008    28.219     8.711
     5   6 C        2.914    -0.022    28.555     8.763
     6   6 C        2.918    -0.018    28.453     8.747
     7   6 C        2.983     0.008    27.823     8.652
     8   6 C        2.917     0.069    26.446     8.433
     9   7 N        2.750    -0.057    22.333     7.019
    10   6 C        2.922     0.039    27.118     8.540
    11   6 C        2.923    -0.057    29.407     8.893
    12   6 C        2.919    -0.036    28.907     8.817
    13   6 C        2.919    -0.037    28.915     8.818
    14   6 C        2.919    -0.055    29.372     8.887
    15   6 C        2.884     0.125    25.251     8.238
    16   8 O        1.709    -0.261    18.324     5.780
    17   6 C        2.884     0.125    25.248     8.238
    18   6 C        2.919    -0.055    29.372     8.887
    19   6 C        2.919    -0.037    28.917     8.818
    20   6 C        2.919    -0.036    28.908     8.817
    21   6 C        2.923    -0.058    29.430     8.896
    22   6 C        2.921     0.039    27.129     8.541
    23   6 C        2.917    -0.039    28.971     8.826
    24   6 C        2.920    -0.011    28.293     8.723
    25   6 C        2.975    -0.035    28.859     8.812
    26   6 C        2.993     0.010    27.783     8.646
    27   6 C        2.775     0.276    22.334     7.740
    28   8 O        0.859    -0.443    22.564     6.369
    29   7 N        2.746    -0.117    23.541     7.206
    30   6 C        2.937     0.086    26.087     8.377
    31   6 C        2.921    -0.030    28.744     8.792
    32   6 C        2.922    -0.026    28.641     8.776
    33   6 C        2.920    -0.027    28.686     8.783
    34   6 C        2.922    -0.026    28.641     8.776
    35   6 C        2.921    -0.030    28.750     8.793
    36   1 H        0.926     0.068     2.112     2.273
    37   1 H        0.926     0.064     2.152     2.294
    38   1 H        0.926     0.060     2.201     2.320
    39   1 H        0.926     0.039     2.468     2.457
    40   1 H        0.926     0.046     2.374     2.410
    41   1 H        0.926     0.048     2.344     2.394
    42   1 H        0.926     0.054     2.267     2.354
    43   1 H        0.926     0.054     2.272     2.357
    44   1 H        0.926     0.048     2.350     2.397
    45   1 H        0.926     0.046     2.369     2.407
    46   1 H        0.926     0.042     2.418     2.431
    47   1 H        0.926     0.064     2.154     2.295
    48   1 H        0.926     0.069     2.094     2.263
    49   1 H        0.926     0.039     2.459     2.452
    50   1 H        0.926     0.051     2.309     2.376
    51   1 H        0.926     0.052     2.293     2.368
    52   1 H        0.926     0.051     2.308     2.376
    53   1 H        0.926     0.039     2.457     2.451

molecular dipole:
                 x           y           z       tot (Debye)
 q only:       -1.968      -0.000       0.253
   full:       -2.031      -0.007       0.240       5.198

 projected vibrational frequencies (cm⁻¹)
eigval :       -0.00    -0.00    -0.00     0.00     0.00     0.00
eigval :       19.87    27.06    28.10    33.39    46.20    49.21
eigval :       64.05    67.79   114.26   121.48   132.00   141.95
eigval :      158.71   183.43   189.11   233.67   236.27   251.17
eigval :      257.92   281.22   304.11   313.97   329.88   375.39
eigval :      381.50   388.78   400.60   412.60   415.24   423.42
eigval :      432.19   443.27   452.74   487.45   492.13   500.06
eigval :      508.43   519.69   529.45   531.73   549.61   580.84
eigval :      589.75   601.41   610.03   628.13   638.19   652.59
eigval :      661.33   665.15   667.38   684.44   705.30   707.63
eigval :      743.83   755.55   772.12   776.49   780.32   799.56
eigval :      803.43   835.24   850.52   854.69   856.27   863.03
eigval :      869.78   871.15   898.28   899.12   901.67   908.89
eigval :      914.52   915.45   918.92   924.02   926.02   929.18
eigval :      930.32   933.95   986.93  1033.00  1079.69  1084.15
eigval :     1089.04  1093.04  1107.09  1117.17  1123.13  1132.17
eigval :     1142.77  1167.75  1172.25  1176.52  1183.38  1183.62
eigval :     1190.34  1195.78  1199.63  1210.57  1229.17  1237.24
eigval :     1241.71  1250.17  1259.07  1277.82  1292.57  1299.73
eigval :     1304.36  1316.86  1317.51  1333.91  1346.64  1362.02
eigval :     1389.08  1407.33  1419.80  1434.70  1437.43  1444.15
eigval :     1468.90  1473.14  1493.85  1502.35  1538.71  1558.19
eigval :     1567.65  1576.57  1584.79  1586.82  1592.45  1594.20
eigval :     1597.19  1649.77  1669.80  3079.63  3080.15  3086.05
eigval :     3091.19  3091.37  3091.43  3093.26  3093.63  3099.27
eigval :     3099.29  3099.44  3100.04  3102.46  3107.17  3107.80
eigval :     3108.81  3111.95  3112.91

   temp. (K)  partition function   enthalpy   heat capacity  entropy
                                   cal/mol     cal/K/mol   cal/K/mol   J/K/mol
 298.15  VIB  0.632E+11            14946.728     97.240     90.633
         ROT  0.283E+08              888.752      2.981     37.078
         INT  0.179E+19            15835.480    100.221    127.711
         TR   0.937E+28             1481.254      4.968     44.211
         TOT                       17316.7343   105.1893   171.9215   719.3195

       T/K    H(0)-H(T)+PV         H(T)/Eh          T*S/Eh         G(T)/Eh
   ------------------------------------------------------------------------
    298.15    0.275960E-01    0.417466E+00    0.816854E-01    0.335780E+00
   ------------------------------------------------------------------------

         :::::::::::::::::::::::::::::::::::::::::::::::::::::
         ::                  THERMODYNAMIC                  ::
         :::::::::::::::::::::::::::::::::::::::::::::::::::::
         :: total free energy         -91.236053227646 Eh   ::
         ::.................................................::
         :: total energy              -91.571833611018 Eh   ::
         :: zero point energy           0.389869854869 Eh   ::
         :: G(RRHO) w/o ZPVE           -0.054089471497 Eh   ::
         :: G(RRHO) contrib.            0.335780383372 Eh   ::
         :::::::::::::::::::::::::::::::::::::::::::::::::::::

           -------------------------------------------------
          | TOTAL ENERGY              -91.571833611018 Eh   |
          | TOTAL ENTHALPY            -91.154367783451 Eh   |
          | TOTAL FREE ENERGY         -91.236053227646 Eh   |
          | GRADIENT NORM               0.000023321763 Eh/α |
          | HOMO-LUMO GAP               0.941230845708 eV   |
           -------------------------------------------------

 * finished run on 2025/07/20 at 09:14:15.466
