   * xtb version 6.7.1 (edcfbbe) compiled by 'albert@albert-system' on 2024-07-22

   ID    Z sym.   atoms
    1    8 O      1, 16, 28
    2    6 C      2-8, 10-15, 17-27, 30-35
    3    7 N      9, 29
    4    1 H      36-53

          program call               : xtb data2507/toluene/PXZ-NAI/PXZ-NAI_toluene_S0_crest.xyz --gfn 2 --gbsa toluene --ohess vtight --parallel 40 --molden --ceasefiles --namespace data2507/toluene/PXZ-NAI/PXZ-NAI_toluene_S0_finalOpt
      * Solvation model:               GBSA
        Solvent                        toluene
        Solvent mass                       9.2140E+01 g/mol
          :  Hamiltonian                  GFN2-xTB          :
 * total energy  :   -91.5716400 Eh     change       -0.8301981E-09 Eh
 * total energy  :   -91.5717227 Eh     change       -0.8276753E-04 Eh
 * total energy  :   -91.5717460 Eh     change       -0.2331178E-04 Eh
 * total energy  :   -91.5717506 Eh     change       -0.4556590E-05 Eh
 * total energy  :   -91.5717556 Eh     change       -0.5024049E-05 Eh
 * total energy  :   -91.5717614 Eh     change       -0.5793131E-05 Eh
 * total energy  :   -91.5717678 Eh     change       -0.6380205E-05 Eh
 * total energy  :   -91.5717737 Eh     change       -0.5866886E-05 Eh
 * total energy  :   -91.5717791 Eh     change       -0.5434607E-05 Eh
 * total energy  :   -91.5717847 Eh     change       -0.5652526E-05 Eh
 * total energy  :   -91.5718081 Eh     change       -0.5575548E-05 Eh
 * total energy  :   -91.5718117 Eh     change       -0.3675178E-05 Eh
 * total energy  :   -91.5718136 Eh     change       -0.1823583E-05 Eh
 * total energy  :   -91.5718144 Eh     change       -0.7843938E-06 Eh
 * total energy  :   -91.5718148 Eh     change       -0.4352590E-06 Eh
 * total energy  :   -91.5718152 Eh     change       -0.3762334E-06 Eh
 * total energy  :   -91.5718154 Eh     change       -0.2736136E-06 Eh
 * total energy  :   -91.5718156 Eh     change       -0.1930733E-06 Eh
 * total energy  :   -91.5718156 Eh     change       -0.8407468E-08 Eh
   *** GEOMETRY OPTIMIZATION CONVERGED AFTER 22 ITERATIONS ***

 final structure:
================
53
 xtb: 6.7.1 (edcfbbe)
O            4.05607874036321        1.48001749597524       -1.64935582714624
C            3.24552629333361        0.84859718037970       -0.99456507715795
C            1.79279615788297        0.97028831561113       -1.17516391238543
C            1.29601334043419        1.81509474272289       -2.14894857233693
C           -0.08051433084066        1.92845231572403       -2.34580254303268
C           -0.95614936024502        1.23007925210938       -1.55275803030448
C           -0.48918523318574        0.37908766783015       -0.53068964662335
C           -1.35996691710962       -0.37431182159364        0.31018817367910
N           -2.74961749045757       -0.21799261932257        0.20042904813709
C           -3.57189487666492       -1.30427229103014       -0.12966056974876
C           -3.05811155416706       -2.55009471195318       -0.47105981123911
C           -3.89963926721543       -3.59602152686808       -0.81593542799461
C           -5.26880415065015       -3.41349236996443       -0.83833745054079
C           -5.79590378106778       -2.16784323638644       -0.53569032894007
C           -4.95923549029867       -1.11906605898246       -0.19531694819387
O           -5.55556227116461        0.09430289622560        0.04486039076412
C           -4.74612556107318        1.12883793599441        0.44340185150931
C           -5.36820962114396        2.32266871154406        0.76640863660019
C           -4.62119752995392        3.40246627560633        1.21021300309928
C           -3.25336298324183        3.27076982444279        1.35434343483424
C           -2.62646523181533        2.07748062549264        1.03304550894538
C           -3.35528879529973        0.99982052713118        0.54291350949694
C           -0.83476843489505       -1.26663740622129        1.22792481826068
C            0.53888863717936       -1.41138674502399        1.37883975174907
C            1.41503663333227       -0.66829851304538        0.60670361046228
C            0.91176062159758        0.22702327066020       -0.36068204169688
C            2.85889324988692       -0.82220513650384        0.79577258745260
O            3.35417283795280       -1.58826636246039        1.60421979144244
N            3.66839299637598       -0.03644772950444       -0.01481605400898
C            5.08812193201156       -0.16359005618905        0.17319829959946
C            5.84460234534376       -0.85424965240946       -0.75967572145023
C            7.21190116407742       -0.96734121696617       -0.57680401544226
C            7.81477574883839       -0.40024483435200        0.53341945929456
C            7.05115147629430        0.28454125980929        1.46381298901061
C            5.68422895244360        0.40837065311205        1.28549927743269
H            1.99457289427961        2.37195146164724       -2.75544324731773
H           -0.45418333596578        2.57133485766089       -3.12746388233715
H           -2.01889061305773        1.32599952265750       -1.71371981096030
H           -1.99083893934972       -2.70387716865843       -0.47806208557078
H           -3.47210499763459       -4.55297503437096       -1.07221708993954
H           -5.92825004246499       -4.22542489040784       -1.10092800468526
H           -6.85804460126051       -1.98263304455705       -0.56551067997265
H           -6.44045551237973        2.38171216318638        0.66616465113266
H           -5.11320929939739        4.33080273495556        1.45350799101862
H           -2.66102385815462        4.09326865684252        1.72400391764035
H           -1.56036983760649        1.98497278346445        1.16584105372346
H           -1.50398447461494       -1.83807737299398        1.85345704892208
H            0.94451958774276       -2.08899090365530        2.11489732753911
H            5.36332147709292       -1.29244030229388       -1.62180431095322
H            7.80465492065073       -1.50212721247053       -1.30362287248027
H            8.88123334936224       -0.49258444593521        0.67394878585194
H            7.51808979658977        0.72736973999687        2.33072418061615
H            5.07839552151141        0.94078269243937        2.00413088404755

          :  Hamiltonian                  GFN2-xTB          :
         :: gradient norm              0.000061152393 Eh/a0 ::
         :: HOMO-LUMO gap              0.944663617937 eV    ::
         :: SCC energy               -93.094324059988 Eh    ::
         :: -> dispersion             -0.074698003204 Eh    ::
         :: -> Gsolv                  -0.041132133436 Eh    ::
         :: repulsion energy           1.522508417431 Eh    ::

    * Orbital Energies and Occupations

         #    Occupation            Energy/Eh            Energy/eV
      -------------------------------------------------------------
         1        2.0000           -0.7384291             -20.0937
       ...           ...                  ...                  ...
        71        2.0000           -0.4411624             -12.0046
        72        2.0000           -0.4365831             -11.8800
        73        2.0000           -0.4310937             -11.7307
        74        2.0000           -0.4269760             -11.6186
        75        2.0000           -0.4236257             -11.5274
        76        2.0000           -0.4210260             -11.4567
        77        2.0000           -0.4190763             -11.4036
        78        2.0000           -0.4186027             -11.3908
        79        2.0000           -0.4150889             -11.2951
        80        2.0000           -0.4121245             -11.2145
        81        2.0000           -0.4119486             -11.2097
        82        2.0000           -0.3986468             -10.8477
        83        2.0000           -0.3547875              -9.6543 (HOMO)
        84                         -0.3200719              -8.7096 (LUMO)
        85                         -0.2609285              -7.1002
        86                         -0.2589481              -7.0463
        87                         -0.2467420              -6.7142
        88                         -0.2389920              -6.5033
        89                         -0.2376940              -6.4680
        90                         -0.2348971              -6.3919
        91                         -0.2346057              -6.3839
        92                         -0.2229451              -6.0666
        93                         -0.2051398              -5.5821
        94                         -0.1717115              -4.6725
       ...                                ...                  ...
       158                          0.7120793              19.3767
      -------------------------------------------------------------
                  HL-Gap            0.0347157 Eh            0.9447 eV

     #   Z          covCN         q      C6AA      α(0)
     1   8 O        0.859    -0.441    22.518     6.362
     2   6 C        2.775     0.276    22.327     7.739
     3   6 C        2.976    -0.028    28.699     8.787
     4   6 C        2.922    -0.008    28.220     8.712
     5   6 C        2.914    -0.022    28.556     8.763
     6   6 C        2.918    -0.018    28.454     8.747
     7   6 C        2.983     0.008    27.825     8.653
     8   6 C        2.917     0.069    26.448     8.433
     9   7 N        2.750    -0.056    22.324     7.017
    10   6 C        2.920     0.039    27.129     8.541
    11   6 C        2.923    -0.058    29.431     8.897
    12   6 C        2.919    -0.036    28.908     8.817
    13   6 C        2.919    -0.037    28.916     8.818
    14   6 C        2.919    -0.055    29.372     8.887
    15   6 C        2.884     0.125    25.247     8.238
    16   8 O        1.709    -0.261    18.322     5.779
    17   6 C        2.884     0.125    25.250     8.238
    18   6 C        2.919    -0.055    29.372     8.887
    19   6 C        2.919    -0.037    28.913     8.818
    20   6 C        2.919    -0.036    28.907     8.817
    21   6 C        2.923    -0.057    29.405     8.893
    22   6 C        2.922     0.039    27.119     8.540
    23   6 C        2.917    -0.039    28.974     8.827
    24   6 C        2.920    -0.011    28.294     8.723
    25   6 C        2.975    -0.035    28.862     8.812
    26   6 C        2.993     0.010    27.784     8.646
    27   6 C        2.775     0.276    22.335     7.740
    28   8 O        0.859    -0.443    22.567     6.369
    29   7 N        2.746    -0.117    23.542     7.206
    30   6 C        2.937     0.086    26.087     8.377
    31   6 C        2.921    -0.030    28.743     8.792
    32   6 C        2.922    -0.026    28.640     8.776
    33   6 C        2.920    -0.027    28.686     8.783
    34   6 C        2.922    -0.026    28.642     8.776
    35   6 C        2.921    -0.030    28.752     8.793
    36   1 H        0.926     0.068     2.113     2.273
    37   1 H        0.926     0.064     2.153     2.295
    38   1 H        0.926     0.060     2.204     2.322
    39   1 H        0.926     0.043     2.415     2.430
    40   1 H        0.926     0.046     2.368     2.406
    41   1 H        0.926     0.048     2.349     2.397
    42   1 H        0.926     0.054     2.271     2.357
    43   1 H        0.926     0.054     2.266     2.354
    44   1 H        0.926     0.048     2.343     2.394
    45   1 H        0.926     0.046     2.374     2.409
    46   1 H        0.926     0.039     2.468     2.457
    47   1 H        0.926     0.064     2.152     2.294
    48   1 H        0.926     0.069     2.094     2.263
    49   1 H        0.926     0.039     2.458     2.452
    50   1 H        0.926     0.051     2.309     2.376
    51   1 H        0.926     0.052     2.293     2.368
    52   1 H        0.926     0.051     2.309     2.376
    53   1 H        0.926     0.039     2.459     2.452

molecular dipole:
                 x           y           z       tot (Debye)
 q only:       -1.977       0.177      -0.215
   full:       -2.039       0.167      -0.209       5.227

 projected vibrational frequencies (cm⁻¹)
eigval :       -0.00    -0.00    -0.00    -0.00     0.00     0.00
eigval :       18.59    23.65    29.80    32.66    45.15    49.22
eigval :       64.55    66.60   114.76   122.37   132.12   142.04
eigval :      159.32   182.82   189.69   232.78   235.88   250.53
eigval :      257.62   280.96   303.57   314.45   328.66   374.23
eigval :      381.64   388.70   399.55   412.37   415.27   423.87
eigval :      432.57   442.85   453.07   486.99   491.61   499.60
eigval :      507.80   518.70   529.11   531.38   549.96   581.01
eigval :      589.68   601.39   609.66   627.91   638.35   652.26
eigval :      660.70   664.38   666.79   686.00   705.62   707.59
eigval :      744.27   755.18   772.03   776.79   778.27   799.57
eigval :      803.50   835.05   849.56   854.78   855.91   866.63
eigval :      868.29   871.37   897.22   899.78   901.50   908.77
eigval :      913.22   914.97   916.38   922.49   924.35   928.46
eigval :      928.90   933.78   986.98  1033.48  1078.08  1083.92
eigval :     1090.14  1093.52  1107.45  1114.37  1122.26  1132.32
eigval :     1143.09  1169.68  1174.48  1176.22  1183.37  1185.30
eigval :     1188.25  1196.59  1200.41  1211.10  1229.47  1236.82
eigval :     1242.20  1250.41  1259.60  1275.25  1292.74  1299.63
eigval :     1304.35  1316.82  1317.29  1334.16  1346.89  1362.11
eigval :     1389.59  1407.19  1420.79  1434.27  1438.01  1444.60
eigval :     1467.82  1473.11  1493.82  1502.17  1538.58  1558.24
eigval :     1567.86  1576.69  1584.69  1587.02  1592.25  1593.75
eigval :     1597.22  1649.72  1669.86  3078.92  3079.20  3085.32
eigval :     3090.46  3091.68  3092.20  3092.54  3093.25  3097.37
eigval :     3098.95  3099.67  3100.81  3102.16  3106.21  3107.74
eigval :     3108.34  3112.19  3113.16

   temp. (K)  partition function   enthalpy   heat capacity  entropy
                                   cal/mol     cal/K/mol   cal/K/mol   J/K/mol
 298.15  VIB  0.759E+11            14959.042     97.218     90.777
         ROT  0.283E+08              888.752      2.981     37.076
         INT  0.215E+19            15847.794    100.199    127.854
         TR   0.937E+28             1481.254      4.968     44.211
         TOT                       17329.0478   105.1669   172.0644   719.9175

       T/K    H(0)-H(T)+PV         H(T)/Eh          T*S/Eh         G(T)/Eh
   ------------------------------------------------------------------------
    298.15    0.276156E-01    0.417423E+00    0.817534E-01    0.335669E+00
   ------------------------------------------------------------------------

         :::::::::::::::::::::::::::::::::::::::::::::::::::::
         ::                  THERMODYNAMIC                  ::
         :::::::::::::::::::::::::::::::::::::::::::::::::::::
         :: total free energy         -91.236146285990 Eh   ::
         ::.................................................::
         :: total energy              -91.571815642184 Eh   ::
         :: zero point energy           0.389807114600 Eh   ::
         :: G(RRHO) w/o ZPVE           -0.054137758406 Eh   ::
         :: G(RRHO) contrib.            0.335669356194 Eh   ::
         :::::::::::::::::::::::::::::::::::::::::::::::::::::

           -------------------------------------------------
          | TOTAL ENERGY              -91.571815642184 Eh   |
          | TOTAL ENTHALPY            -91.154392932119 Eh   |
          | TOTAL FREE ENERGY         -91.236146285990 Eh   |
          | GRADIENT NORM               0.000061151704 Eh/α |
          | HOMO-LUMO GAP               0.944661740132 eV   |
           -------------------------------------------------

 * finished run on 2025/07/20 at 09:16:06.407
