   * xtb version 6.7.1 (edcfbbe) compiled by 'albert@albert-system' on 2024-07-22

   ID    Z sym.   atoms
    1    8 O      1, 16, 28
    2    6 C      2-8, 10-15, 17-27, 30-35
    3    7 N      9, 29
    4    1 H      36-53

          program call               : xtb data2507/toluene/PXZ-NAI/PXZ-NAI_toluene_T1_crest.xyz --gfn 2 --uhf 2 --gbsa toluene --ohess vtight --parallel 40 --molden --ceasefiles --namespace data2507/toluene/PXZ-NAI/PXZ-NAI_toluene_T1_finalOpt
      * Solvation model:               GBSA
        Solvent                        toluene
        Solvent mass                       9.2140E+01 g/mol
          :  Hamiltonian                  GFN2-xTB          :
 * total energy  :   -91.5150646 Eh     change       -0.3080245E-08 Eh
 * total energy  :   -91.5152950 Eh     change       -0.2303868E-03 Eh
 * total energy  :   -91.5153670 Eh     change       -0.7200834E-04 Eh
 * total energy  :   -91.5153746 Eh     change       -0.7614229E-05 Eh
 * total energy  :   -91.5153825 Eh     change       -0.7926338E-05 Eh
 * total energy  :   -91.5153870 Eh     change       -0.4509770E-05 Eh
 * total energy  :   -91.5153932 Eh     change       -0.6202562E-05 Eh
 * total energy  :   -91.5153982 Eh     change       -0.4964848E-05 Eh
 * total energy  :   -91.5154026 Eh     change       -0.4411372E-05 Eh
 * total energy  :   -91.5154074 Eh     change       -0.4779084E-05 Eh
 * total energy  :   -91.5154201 Eh     change       -0.1749354E-05 Eh
 * total energy  :   -91.5154216 Eh     change       -0.1405771E-05 Eh
 * total energy  :   -91.5154227 Eh     change       -0.1182438E-05 Eh
 * total energy  :   -91.5154237 Eh     change       -0.9236754E-06 Eh
 * total energy  :   -91.5154243 Eh     change       -0.6772252E-06 Eh
 * total energy  :   -91.5154249 Eh     change       -0.5780451E-06 Eh
 * total energy  :   -91.5154255 Eh     change       -0.6037313E-06 Eh
 * total energy  :   -91.5154262 Eh     change       -0.6564880E-06 Eh
 * total energy  :   -91.5154262 Eh     change       -0.4059089E-08 Eh
   *** GEOMETRY OPTIMIZATION CONVERGED AFTER 22 ITERATIONS ***

 final structure:
================
53
 xtb: 6.7.1 (edcfbbe)
O            4.05076051501679       -1.51232143239426       -1.62920676251094
C            3.22646942591579       -0.86459950432832       -0.97915468023687
C            1.79463061790057       -0.99299964339087       -1.14917089893404
C            1.28917925700952       -1.85999584558115       -2.13411472461753
C           -0.06865188333724       -1.97277543512926       -2.32372164907668
C           -0.95968827595431       -1.25602860784840       -1.53183458693650
C           -0.49505216581158       -0.40856402311449       -0.51603289102147
C           -1.35271109307766        0.35614125572576        0.32325624011422
N           -2.75312065901666        0.21354697965239        0.23365607375239
C           -3.36163743672771       -0.98112568332826        0.57207549867078
C           -2.63724856221946       -2.07787354534505        1.05169739398008
C           -3.28141444697326       -3.25538453043124        1.36612823371722
C           -4.66150901099190       -3.36978401307222        1.22495686029659
C           -5.40274346318905       -2.28845660941461        0.79060041117793
C           -4.76508350294066       -1.09531632505674        0.47226703226696
O           -5.54187589334541       -0.05260929661042        0.08692619628852
C           -4.94107522178473        1.12675781685968       -0.20807243215813
C           -5.75664677579867        2.18658414266331       -0.58423418958181
C           -5.19376624894165        3.40096324615692       -0.92571236825333
C           -3.81036854540768        3.55340833181869       -0.91594716285931
C           -2.98999391195429        2.50933514842735       -0.54462284065751
C           -3.53779517169043        1.28136829445206       -0.15623782216879
C           -0.83043242888201        1.26046157687349        1.26274190908520
C            0.52163379104542        1.39723061944769        1.42223734999449
C            1.41354955303333        0.64037168916091        0.62871692262768
C            0.91064302247594       -0.25584826983895       -0.33713827927507
C            2.83552042190142        0.80670257776138        0.80984110340007
O            3.33434578498903        1.59256555116932        1.62174272973805
N            3.65417520917927        0.03157568787021       -0.00659978719105
C            5.06670490080403        0.17426328555907        0.16801230937609
C            5.66047674633223       -0.24210547472550        1.34978506414926
C            7.02674492371192       -0.10080707683834        1.51605415596503
C            7.79900108178477        0.44276443909636        0.50340488166270
C            7.20233388305939        0.85216011447917       -0.67714147754927
C            5.83483630972291        0.72602123453579       -0.84590205667492
H            1.99704066184385       -2.41538693653958       -2.73016794756019
H           -0.45269567661454       -2.63008852231805       -3.08965948697175
H           -2.01923171898591       -1.36271097765869       -1.70704605221850
H           -1.57030814892272       -1.99177895035616        1.17398796555458
H           -2.70478075045050       -4.09092626538595        1.72971064347504
H           -5.15625566671443       -4.29646312842315        1.46746368443945
H           -6.47520866376049       -2.33702582909310        0.69351873590113
H           -6.82286660745038        2.02911898767740       -0.60487143443335
H           -5.82807648032031        4.22324101051690       -1.21509665549596
H           -3.36939463887422        4.49307386748370       -1.20848762700746
H           -1.91882311428812        2.62751853655210       -0.55640343280098
H           -1.51382009771454        1.81147978626466        1.89197804816301
H            0.94295029901841        2.06673566491946        2.15535209715315
H            5.04886525365001       -0.66630440155765        2.13282112450264
H            7.48760181619401       -0.42146047501303        2.43872376558163
H            8.86594049392823        0.54662330931961        0.63390544262870
H            7.80050051321619        1.27659537258919       -1.46997524726791
H            5.35882994260727        1.04251324245985       -1.76271291650212

          :  Hamiltonian                  GFN2-xTB          :
         :: gradient norm              0.000052548607 Eh/a0 ::
         :: HOMO-LUMO gap              0.720198654608 eV    ::
         :: SCC energy               -93.024548104021 Eh    ::
         :: -> dispersion             -0.074907262686 Eh    ::
         :: -> Gsolv                  -0.058030765404 Eh    ::
         :: repulsion energy           1.509121922723 Eh    ::

    * Orbital Energies and Occupations

         #    Occupation            Energy/Eh            Energy/eV
      -------------------------------------------------------------
         1        2.0000           -0.7763238             -21.1248
       ...           ...                  ...                  ...
        72        2.0000           -0.4369798             -11.8908
        73        2.0000           -0.4325919             -11.7714
        74        2.0000           -0.4265104             -11.6059
        75        2.0000           -0.4211990             -11.4614
        76        2.0000           -0.4143889             -11.2761
        77        2.0000           -0.4132304             -11.2446
        78        2.0000           -0.4073979             -11.0859
        79        2.0000           -0.3963831             -10.7861
        80        2.0000           -0.3927210             -10.6865
        81        1.9998           -0.3891708             -10.5899
        82        1.9996           -0.3887421             -10.5782
        83        1.0006           -0.3742977             -10.1852
        84        1.0000           -0.3026441              -8.2354 (HOMO)
        85        0.0000           -0.2761768              -7.5152 (LUMO)
        86                         -0.2605225              -7.0892
        87                         -0.2477331              -6.7412
        88                         -0.2428939              -6.6095
        89                         -0.2354039              -6.4057
        90                         -0.2297246              -6.2511
        91                         -0.2257229              -6.1422
        92                         -0.2221791              -6.0458
        93                         -0.2133103              -5.8045
        94                         -0.1506151              -4.0984
        95                         -0.1385738              -3.7708
       ...                                ...                  ...
       158                          0.7090177              19.2934
      -------------------------------------------------------------
                  HL-Gap            0.0264673 Eh            0.7202 eV

     #   Z          covCN         q      C6AA      α(0)
     1   8 O        0.858    -0.507    23.934     6.559
     2   6 C        2.777     0.260    22.624     7.790
     3   6 C        2.978    -0.042    29.034     8.839
     4   6 C        2.918    -0.033    28.829     8.805
     5   6 C        2.912    -0.031    28.763     8.794
     6   6 C        2.917    -0.053    29.319     8.879
     7   6 C        2.976     0.006    27.880     8.661
     8   6 C        2.923     0.014    27.697     8.630
     9   7 N        2.752     0.026    20.793     6.772
    10   6 C        2.927     0.046    26.959     8.515
    11   6 C        2.919    -0.039    28.979     8.828
    12   6 C        2.917    -0.021    28.531     8.759
    13   6 C        2.919    -0.018    28.463     8.749
    14   6 C        2.915    -0.046    29.138     8.852
    15   6 C        2.889     0.138    24.979     8.194
    16   8 O        1.710    -0.189    17.167     5.594
    17   6 C        2.889     0.139    24.973     8.193
    18   6 C        2.915    -0.046    29.133     8.851
    19   6 C        2.918    -0.018    28.461     8.748
    20   6 C        2.917    -0.021    28.540     8.760
    21   6 C        2.919    -0.041    29.015     8.833
    22   6 C        2.928     0.046    26.964     8.516
    23   6 C        2.912    -0.039    28.972     8.826
    24   6 C        2.916    -0.036    28.906     8.816
    25   6 C        2.976    -0.041    29.017     8.836
    26   6 C        2.990     0.006    27.888     8.663
    27   6 C        2.777     0.257    22.669     7.798
    28   8 O        0.858    -0.509    23.981     6.566
    29   7 N        2.748    -0.137    23.971     7.272
    30   6 C        2.935     0.095    25.883     8.344
    31   6 C        2.922    -0.031    28.767     8.796
    32   6 C        2.921    -0.029    28.729     8.790
    33   6 C        2.920    -0.032    28.787     8.799
    34   6 C        2.921    -0.029    28.728     8.790
    35   6 C        2.922    -0.031    28.764     8.795
    36   1 H        0.926     0.036     2.499     2.472
    37   1 H        0.926     0.038     2.479     2.462
    38   1 H        0.926     0.030     2.589     2.516
    39   1 H        0.926     0.065     2.142     2.289
    40   1 H        0.926     0.069     2.098     2.265
    41   1 H        0.926     0.074     2.039     2.233
    42   1 H        0.926     0.081     1.971     2.195
    43   1 H        0.926     0.081     1.973     2.197
    44   1 H        0.926     0.074     2.038     2.232
    45   1 H        0.926     0.070     2.086     2.258
    46   1 H        0.926     0.068     2.105     2.269
    47   1 H        0.926     0.048     2.340     2.392
    48   1 H        0.926     0.047     2.357     2.401
    49   1 H        0.926     0.034     2.529     2.487
    50   1 H        0.926     0.045     2.384     2.414
    51   1 H        0.926     0.047     2.359     2.402
    52   1 H        0.926     0.045     2.388     2.417
    53   1 H        0.926     0.033     2.539     2.492

molecular dipole:
                 x           y           z       tot (Debye)
 q only:       -7.725       0.192       0.329
   full:       -7.670       0.168       0.297      19.514

 projected vibrational frequencies (cm⁻¹)
eigval :       -0.00    -0.00    -0.00    -0.00     0.00     0.00
eigval :       15.19    29.40    31.21    40.98    46.00    57.28
eigval :       69.20    72.78   110.41   128.79   134.58   139.62
eigval :      161.10   179.62   197.11   233.53   239.30   245.44
eigval :      264.17   279.74   300.89   313.86   346.63   373.96
eigval :      385.67   386.82   391.15   405.70   410.68   429.98
eigval :      437.36   449.73   460.49   485.80   486.08   491.15
eigval :      501.41   514.14   524.76   529.90   544.07   569.73
eigval :      588.74   593.91   602.38   612.99   635.61   650.30
eigval :      659.39   664.46   670.14   675.16   684.27   705.09
eigval :      719.29   758.96   764.21   770.63   774.27   780.49
eigval :      800.01   809.75   832.80   846.58   849.34   858.61
eigval :      870.14   872.82   875.92   892.41   900.46   904.94
eigval :      908.25   910.58   912.34   920.59   924.81   928.16
eigval :      930.78   932.46   986.20  1030.25  1077.40  1079.32
eigval :     1079.71  1085.21  1114.60  1118.20  1123.93  1130.51
eigval :     1135.34  1156.77  1166.47  1168.84  1177.12  1184.40
eigval :     1189.54  1192.01  1195.76  1211.67  1213.81  1230.84
eigval :     1235.71  1247.70  1260.24  1278.11  1282.59  1288.27
eigval :     1312.77  1318.66  1324.16  1342.81  1346.85  1359.75
eigval :     1379.13  1403.91  1405.56  1413.47  1416.57  1433.44
eigval :     1434.88  1451.00  1455.59  1472.05  1496.83  1510.96
eigval :     1537.58  1546.65  1555.00  1559.84  1573.53  1575.29
eigval :     1592.44  1596.01  1613.31  3074.28  3075.23  3077.39
eigval :     3080.72  3082.12  3086.04  3089.22  3094.69  3098.18
eigval :     3103.61  3104.07  3104.72  3110.46  3111.49  3118.47
eigval :     3119.48  3120.88  3124.91

   temp. (K)  partition function   enthalpy   heat capacity  entropy
                                   cal/mol     cal/K/mol   cal/K/mol   J/K/mol
 298.15  VIB  0.440E+11            14973.080     98.360     90.747
         ROT  0.281E+08              888.752      2.981     37.065
         INT  0.124E+19            15861.833    101.341    127.813
         TR   0.937E+28             1481.254      4.968     44.211
         TOT                       17343.0866   106.3092   172.0237   719.7473

       T/K    H(0)-H(T)+PV         H(T)/Eh          T*S/Eh         G(T)/Eh
   ------------------------------------------------------------------------
    298.15    0.276380E-01    0.415501E+00    0.817340E-01    0.333767E+00
   ------------------------------------------------------------------------

         :::::::::::::::::::::::::::::::::::::::::::::::::::::
         ::                  THERMODYNAMIC                  ::
         :::::::::::::::::::::::::::::::::::::::::::::::::::::
         :: total free energy         -91.181659582607 Eh   ::
         ::.................................................::
         :: total energy              -91.515426182996 Eh   ::
         :: zero point energy           0.387862662017 Eh   ::
         :: G(RRHO) w/o ZPVE           -0.054096061628 Eh   ::
         :: G(RRHO) contrib.            0.333766600389 Eh   ::
         :::::::::::::::::::::::::::::::::::::::::::::::::::::

           -------------------------------------------------
          | TOTAL ENERGY              -91.515426182996 Eh   |
          | TOTAL ENTHALPY            -91.099925553294 Eh   |
          | TOTAL FREE ENERGY         -91.181659582607 Eh   |
          | GRADIENT NORM               0.000052356200 Eh/α |
          | HOMO-LUMO GAP               0.720211361492 eV   |
           -------------------------------------------------

 * finished run on 2025/07/20 at 09:18:47.330
