   * xtb version 6.7.1 (edcfbbe) compiled by 'albert@albert-system' on 2024-07-22

   ID    Z sym.   atoms
    1    8 O      1, 16, 28
    2    6 C      2-8, 10-15, 17-27, 30-35
    3    7 N      9, 29
    4    1 H      36-53

          program call               : xtb data2507/toluene/PXZ-NAI/PXZ-NAI_toluene_S0_finalOpt.xtbopt.xyz --gfn 2 --uhf 2 --gbsa toluene --ohess vtight --parallel 40 --molden --ceasefiles --namespace data2507/toluene/PXZ-NAI/PXZ-NAI_toluene_T1_preOpt
      * Solvation model:               GBSA
        Solvent                        toluene
        Solvent mass                       9.2140E+01 g/mol
          :  Hamiltonian                  GFN2-xTB          :
 * total energy  :   -91.5104923 Eh     change       -0.3340077E-08 Eh
 * total energy  :   -91.5143691 Eh     change       -0.3876790E-02 Eh
 * total energy  :   -91.5152661 Eh     change       -0.8970181E-03 Eh
 * total energy  :   -91.5153353 Eh     change       -0.6919140E-04 Eh
 * total energy  :   -91.5153735 Eh     change       -0.3826711E-04 Eh
 * total energy  :   -91.5153857 Eh     change       -0.1213111E-04 Eh
 * total energy  :   -91.5154004 Eh     change       -0.1472912E-04 Eh
 * total energy  :   -91.5154099 Eh     change       -0.9532768E-05 Eh
 * total energy  :   -91.5154207 Eh     change       -0.1073294E-04 Eh
 * total energy  :   -91.5154279 Eh     change       -0.7267420E-05 Eh
 * total energy  :   -91.5154461 Eh     change       -0.3137286E-05 Eh
 * total energy  :   -91.5154487 Eh     change       -0.2629701E-05 Eh
 * total energy  :   -91.5154507 Eh     change       -0.1955212E-05 Eh
 * total energy  :   -91.5154520 Eh     change       -0.1325992E-05 Eh
 * total energy  :   -91.5154528 Eh     change       -0.8031964E-06 Eh
 * total energy  :   -91.5154533 Eh     change       -0.4470874E-06 Eh
 * total energy  :   -91.5154536 Eh     change       -0.3088106E-06 Eh
 * total energy  :   -91.5154538 Eh     change       -0.2429200E-06 Eh
 * total energy  :   -91.5154538 Eh     change       -0.6924751E-08 Eh
   *** GEOMETRY OPTIMIZATION CONVERGED AFTER 22 ITERATIONS ***

 final structure:
================
53
 xtb: 6.7.1 (edcfbbe)
O            4.05133282035690        1.41482250557550       -1.71026470780889
C            3.22456546263415        0.80511676689191       -1.02719873069608
C            1.79264245006196        0.93682834625044       -1.19376080582084
C            1.28636062954345        1.77208037742935       -2.20542932892912
C           -0.07196178891580        1.89003466689669       -2.38836161283273
C           -0.96249579747593        1.20687295504154       -1.56674654366021
C           -0.49643799901662        0.38815872740702       -0.52828056141167
C           -1.35377357869805       -0.34820524650533        0.33561148065166
N           -2.75446248003774       -0.20275611364296        0.24656240796022
C           -3.54136882295301       -1.27327355458055       -0.12961397286741
C           -2.99486734440071       -2.50335964843354       -0.51278970398420
C           -3.81682937995325       -3.54918153692289       -0.87548553542765
C           -5.20034525599895       -3.39665454159827       -0.87985927694052
C           -5.76216829662102       -2.18129083615990       -0.54003062810879
C           -4.94504020736623       -1.11953129052715       -0.17288072248362
O           -5.54412938540776        0.06037658787710        0.12330177818214
C           -4.76447735722800        1.10694968588093        0.49216884611010
C           -5.40030491053173        2.30091519914999        0.81108554979489
C           -4.65539477484260        3.38714836854648        1.22649356482596
C           -3.27271480862040        3.27803198806903        1.34540849552996
C           -2.63036621075108        2.09933387326170        1.03159242813901
C           -3.35962077205537        0.99593721485069        0.57548827629274
C           -0.83273920587771       -1.22728382469541        1.29902549739068
C            0.51940992763301       -1.36017725930038        1.46208909879397
C            1.41158886030935       -0.63024075439753        0.64412980991508
C            0.90927586999753        0.23410421130062       -0.35089897634794
C            2.83366345987477       -0.78802708933077        0.83198809001555
O            3.33539224508878       -1.53533773162250        1.67799851799987
N            3.65038096443519       -0.04822145008981       -0.01713143174882
C            5.06380499421444       -0.18009538821811        0.16641046923404
C            5.82419468451465       -0.84698485123139       -0.78151938450194
C            7.19167339244161       -0.96205158779636       -0.60363533523879
C            7.79560517379647       -0.42299766141833        0.51971959484698
C            7.03078627003496        0.23687673511137        1.46678136167720
C            5.66425686612486        0.36430350130987        1.29111681652377
H            1.99414398886869        2.30067907262749       -2.82549337843559
H           -0.45665162357376        2.52463868855079       -3.17292165264666
H           -2.02266082634370        1.31568619677149       -1.73705790390542
H           -1.92360909275118       -2.62077891011164       -0.52787683499334
H           -3.37734040355680       -4.49025379627502       -1.16569033478211
H           -5.83578849228588       -4.22016970751101       -1.16318368763029
H           -6.82860306705295       -2.02464980510349       -0.55502990916953
H           -6.47419076345570        2.34621983124896        0.72930716821515
H           -5.14888638630484        4.31409886749026        1.47055707561814
H           -2.69280252882303        4.11861492550419        1.69174754163165
H           -1.56130366216292        2.01691080893742        1.13703293607920
H           -1.51677324525896       -1.76009375310802        1.94305648497214
H            0.94055672320267       -2.00715313206821        2.21525281677921
H            5.34245066955202       -1.26283625674495       -1.65473489313726
H            7.78447653497464       -1.47736228200204       -1.34494002710913
H            8.86257591697161       -0.51728613663049        0.65711451944319
H            7.49734033168061        0.65895290877807        2.34468284527749
H            5.05740093533841        0.87776819629477        2.02293239610448

          :  Hamiltonian                  GFN2-xTB          :
         :: gradient norm              0.000054179683 Eh/a0 ::
         :: HOMO-LUMO gap              0.712841368028 eV    ::
         :: SCC energy               -93.024724960698 Eh    ::
         :: -> dispersion             -0.074858839200 Eh    ::
         :: -> Gsolv                  -0.058313714422 Eh    ::
         :: repulsion energy           1.509271140971 Eh    ::

    * Orbital Energies and Occupations

         #    Occupation            Energy/Eh            Energy/eV
      -------------------------------------------------------------
         1        2.0000           -0.7764753             -21.1290
       ...           ...                  ...                  ...
        72        2.0000           -0.4367896             -11.8856
        73        2.0000           -0.4323206             -11.7640
        74        2.0000           -0.4265464             -11.6069
        75        2.0000           -0.4212987             -11.4641
        76        2.0000           -0.4139991             -11.2655
        77        2.0000           -0.4123485             -11.2206
        78        2.0000           -0.4076465             -11.0926
        79        2.0000           -0.3980015             -10.8302
        80        2.0000           -0.3928558             -10.6902
        81        1.9997           -0.3888002             -10.5798
        82        1.9995           -0.3885317             -10.5725
        83        1.0008           -0.3744758             -10.1900
        84        1.0000           -0.3025056              -8.2316 (HOMO)
        85        0.0000           -0.2763097              -7.5188 (LUMO)
        86                         -0.2606366              -7.0923
        87                         -0.2476529              -6.7390
        88                         -0.2421701              -6.5898
        89                         -0.2352750              -6.4022
        90                         -0.2297084              -6.2507
        91                         -0.2261869              -6.1549
        92                         -0.2233397              -6.0774
        93                         -0.2132204              -5.8020
        94                         -0.1505021              -4.0954
        95                         -0.1384048              -3.7662
       ...                                ...                  ...
       158                          0.7093018              19.3011
      -------------------------------------------------------------
                  HL-Gap            0.0261959 Eh            0.7128 eV

     #   Z          covCN         q      C6AA      α(0)
     1   8 O        0.858    -0.508    23.959     6.563
     2   6 C        2.777     0.260    22.623     7.790
     3   6 C        2.978    -0.042    29.036     8.839
     4   6 C        2.918    -0.033    28.830     8.805
     5   6 C        2.912    -0.031    28.764     8.795
     6   6 C        2.917    -0.053    29.320     8.879
     7   6 C        2.976     0.006    27.881     8.661
     8   6 C        2.923     0.014    27.702     8.631
     9   7 N        2.752     0.026    20.793     6.772
    10   6 C        2.928     0.046    26.960     8.515
    11   6 C        2.919    -0.041    29.011     8.833
    12   6 C        2.917    -0.021    28.537     8.760
    13   6 C        2.919    -0.018    28.459     8.748
    14   6 C        2.915    -0.046    29.131     8.851
    15   6 C        2.888     0.139    24.972     8.193
    16   8 O        1.710    -0.189    17.162     5.593
    17   6 C        2.889     0.139    24.978     8.194
    18   6 C        2.915    -0.046    29.135     8.851
    19   6 C        2.918    -0.018    28.461     8.748
    20   6 C        2.917    -0.021    28.528     8.759
    21   6 C        2.919    -0.039    28.978     8.828
    22   6 C        2.927     0.047    26.955     8.514
    23   6 C        2.912    -0.039    28.973     8.826
    24   6 C        2.917    -0.036    28.905     8.816
    25   6 C        2.976    -0.041    29.024     8.837
    26   6 C        2.990     0.006    27.890     8.663
    27   6 C        2.777     0.257    22.668     7.798
    28   8 O        0.858    -0.510    24.006     6.569
    29   7 N        2.748    -0.138    23.981     7.273
    30   6 C        2.936     0.096    25.862     8.340
    31   6 C        2.922    -0.031    28.764     8.795
    32   6 C        2.921    -0.029    28.721     8.788
    33   6 C        2.920    -0.031    28.780     8.797
    34   6 C        2.921    -0.029    28.722     8.789
    35   6 C        2.922    -0.031    28.771     8.796
    36   1 H        0.926     0.036     2.502     2.474
    37   1 H        0.926     0.038     2.480     2.463
    38   1 H        0.926     0.030     2.591     2.517
    39   1 H        0.926     0.068     2.107     2.270
    40   1 H        0.926     0.070     2.084     2.258
    41   1 H        0.926     0.075     2.036     2.232
    42   1 H        0.926     0.081     1.972     2.196
    43   1 H        0.926     0.081     1.969     2.195
    44   1 H        0.926     0.074     2.037     2.232
    45   1 H        0.926     0.069     2.096     2.264
    46   1 H        0.926     0.065     2.141     2.288
    47   1 H        0.926     0.048     2.346     2.395
    48   1 H        0.926     0.047     2.360     2.402
    49   1 H        0.926     0.033     2.544     2.494
    50   1 H        0.926     0.045     2.382     2.414
    51   1 H        0.926     0.047     2.353     2.399
    52   1 H        0.926     0.045     2.378     2.412
    53   1 H        0.926     0.033     2.538     2.491

molecular dipole:
                 x           y           z       tot (Debye)
 q only:       -7.735      -0.151       0.367
   full:       -7.680      -0.128       0.334      19.542

 projected vibrational frequencies (cm⁻¹)
eigval :       -0.00    -0.00    -0.00    -0.00    -0.00     0.00
eigval :       16.57    27.83    32.66    36.61    44.05    57.30
eigval :       67.73    72.51   111.00   127.54   132.18   138.19
eigval :      161.11   179.41   195.86   232.82   238.13   243.95
eigval :      263.98   278.43   300.01   312.69   346.06   374.87
eigval :      385.27   386.82   391.02   406.94   410.27   429.98
eigval :      436.55   449.15   460.68   486.07   486.50   491.17
eigval :      501.11   513.30   524.54   529.70   544.51   569.60
eigval :      588.98   594.02   602.36   612.90   635.64   650.50
eigval :      659.53   664.76   669.83   675.08   684.22   704.23
eigval :      718.92   755.09   763.50   770.66   774.35   780.02
eigval :      800.03   808.01   832.77   847.19   849.51   858.57
eigval :      870.00   870.49   871.65   890.31   896.72   903.84
eigval :      908.45   910.36   911.58   921.35   922.90   924.56
eigval :      926.69   932.62   986.23  1030.08  1076.79  1078.97
eigval :     1079.39  1085.09  1114.22  1118.25  1123.90  1130.47
eigval :     1135.46  1157.75  1167.37  1168.82  1176.55  1184.65
eigval :     1189.20  1193.00  1195.67  1211.73  1212.97  1231.01
eigval :     1235.54  1247.26  1260.17  1277.40  1283.50  1288.76
eigval :     1313.42  1317.98  1324.29  1342.87  1347.02  1360.06
eigval :     1379.04  1403.93  1405.98  1413.15  1416.31  1433.83
eigval :     1434.75  1450.78  1455.35  1472.11  1496.55  1510.74
eigval :     1537.78  1546.53  1555.27  1559.80  1573.65  1575.67
eigval :     1592.29  1596.19  1613.31  3074.18  3074.55  3077.43
eigval :     3080.06  3081.36  3085.49  3089.29  3094.65  3098.15
eigval :     3103.73  3104.27  3104.56  3110.44  3111.58  3118.23
eigval :     3119.51  3120.72  3124.88

   temp. (K)  partition function   enthalpy   heat capacity  entropy
                                   cal/mol     cal/K/mol   cal/K/mol   J/K/mol
 298.15  VIB  0.502E+11            14999.198     98.287     90.862
         ROT  0.281E+08              888.752      2.981     37.065
         INT  0.141E+19            15887.950    101.267    127.927
         TR   0.937E+28             1481.254      4.968     44.211
         TOT                       17369.2040   106.2356   172.1381   720.2258

       T/K    H(0)-H(T)+PV         H(T)/Eh          T*S/Eh         G(T)/Eh
   ------------------------------------------------------------------------
    298.15    0.276796E-01    0.415421E+00    0.817884E-01    0.333632E+00
   ------------------------------------------------------------------------

         :::::::::::::::::::::::::::::::::::::::::::::::::::::
         ::                  THERMODYNAMIC                  ::
         :::::::::::::::::::::::::::::::::::::::::::::::::::::
         :: total free energy         -91.181821359482 Eh   ::
         ::.................................................::
         :: total energy              -91.515453822585 Eh   ::
         :: zero point energy           0.387741240009 Eh   ::
         :: G(RRHO) w/o ZPVE           -0.054108776907 Eh   ::
         :: G(RRHO) contrib.            0.333632463103 Eh   ::
         :::::::::::::::::::::::::::::::::::::::::::::::::::::

           -------------------------------------------------
          | TOTAL ENERGY              -91.515453822585 Eh   |
          | TOTAL ENTHALPY            -91.100032994114 Eh   |
          | TOTAL FREE ENERGY         -91.181821359482 Eh   |
          | GRADIENT NORM               0.000054134497 Eh/α |
          | HOMO-LUMO GAP               0.712827104299 eV   |
           -------------------------------------------------

 * finished run on 2025/07/20 at 09:16:08.919
