   * xtb version 6.7.1 (edcfbbe) compiled by 'albert@albert-system' on 2024-07-22

   ID    Z sym.   atoms
    1    6 C      1-56
    2    1 H      57-90

          program call               : xtb data2507/gas/BSBFB/BSBFB.xyz --gfn 2 --ohess vtight --parallel 40 --molden --ceasefiles --namespace data2507/gas/BSBFB/BSBFB_gas_S0_preOpt
          :  Hamiltonian                  GFN2-xTB          :
 * total energy  :  -137.2962236 Eh     change       -0.5488630E-08 Eh
 * total energy  :  -137.3058695 Eh     change       -0.9645824E-02 Eh
 * total energy  :  -137.3077261 Eh     change       -0.1856684E-02 Eh
 * total energy  :  -137.3082990 Eh     change       -0.5728350E-03 Eh
 * total energy  :  -137.3086060 Eh     change       -0.3070638E-03 Eh
 * total energy  :  -137.3086871 Eh     change       -0.8109062E-04 Eh
 * total energy  :  -137.3087589 Eh     change       -0.7176880E-04 Eh
 * total energy  :  -137.3087873 Eh     change       -0.2837087E-04 Eh
 * total energy  :  -137.3088557 Eh     change       -0.6839738E-04 Eh
 * total energy  :  -137.3088876 Eh     change       -0.3197222E-04 Eh
 * total energy  :  -137.3095848 Eh     change       -0.9750503E-06 Eh
 * total energy  :  -137.3095857 Eh     change       -0.9336449E-06 Eh
 * total energy  :  -137.3095865 Eh     change       -0.7692676E-06 Eh
 * total energy  :  -137.3095870 Eh     change       -0.5293954E-06 Eh
 * total energy  :  -137.3095874 Eh     change       -0.3653197E-06 Eh
 * total energy  :  -137.3095877 Eh     change       -0.2919243E-06 Eh
 * total energy  :  -137.3095879 Eh     change       -0.2578830E-06 Eh
 * total energy  :  -137.3095881 Eh     change       -0.2215325E-06 Eh
 * total energy  :  -137.3095881 Eh     change       -0.1814641E-08 Eh
   *** GEOMETRY OPTIMIZATION CONVERGED AFTER 68 ITERATIONS ***

 final structure:
================
90
 xtb: 6.7.1 (edcfbbe)
C            0.00004698370298       -2.65152270064837       -0.00109761891836
C           -1.15990674105068       -1.96509370552762        0.30703533381963
C           -1.16964958079950       -0.57190158427548        0.31677225122709
C           -2.39443334678262        0.16386405405772        0.66272842815660
C           -2.33251966694024        1.28198258283682        1.49520856705639
C           -3.47061232147552        1.98342144569314        1.85041825236674
C           -4.69498475560253        1.56167898827974        1.35825364147084
C           -4.76161882143067        0.44253272449224        0.51527687786434
C           -3.63079398913425       -0.25764331357523        0.16769351828076
C           -6.18837474614085        0.17334668102380        0.10234707697999
C           -6.39747641285374        0.19630083739082       -1.39248249987458
C           -6.13460673141896        1.21965120386570       -2.27616764394052
C           -6.41385035673862        1.01869615661329       -3.62135190086831
C           -6.94488431549228       -0.18317583978449       -4.06478970196772
C           -7.20977805767787       -1.21475797104529       -3.17829303528896
C           -6.93350931522000       -1.02169855354566       -1.83485643617912
C           -7.09925402420018       -1.89687666845007       -0.68501841075013
C           -7.58120169840348       -3.19139878832975       -0.58318517894785
C           -7.62310775619817       -3.78711417445679        0.66729381906994
C           -7.19232450724268       -3.10596235036085        1.79586938991886
C           -6.70831796209054       -1.80791111430081        1.70165969477713
C           -6.66623901149096       -1.21276069224018        0.46010602726454
C           -6.93107346695341        1.27223916135853        0.82373150994436
C           -8.28402759659566        1.52970108793679        0.82645041165580
C           -8.74989168017735        2.60749285232774        1.56780729223318
C           -7.87408031570875        3.40606108052427        2.28788342364729
C           -6.51239155573928        3.14984083175845        2.28713437045401
C           -6.04021078825900        2.07607083676813        1.55022310017740
C           -0.00002609257522        0.11022677576176        0.00015479505676
C            1.16963386227879       -0.57155282464738       -0.31708550554945
C            2.39438485333683        0.16457764686841       -0.66237655510979
C            2.33241663950572        1.28350081848728       -1.49377136013938
C            3.47047961644363        1.98531368123374       -1.84833625268214
C            4.69488005972444        1.56312224939881       -1.35662667257946
C            4.76157317135792        0.44314931086541       -0.51475312939854
C            3.63077621045921       -0.25738520925709       -0.16780370647201
C            6.18835382015194        0.17357817809323       -0.10215979218439
C            6.66625787126900       -1.21212565982645       -0.46143779057603
C            6.70831109331194       -1.80593024370710       -1.70363635411137
C            7.19237885428197       -3.10385436568877       -1.79927184112811
C            7.62324668553855       -3.78620458387383       -0.67145263888532
C            7.58136296169040       -3.19184564635738        0.57967223056697
C            7.09935629175964       -1.89745783917333        0.68292705035361
C            6.93363915931659       -1.02352333467325        1.83371437442121
C            7.20997867788504       -1.21802277529925        3.17692844378706
C            6.94506624800439       -0.18741689844165        4.06455388458854
C            6.41394894943503        1.01490604719579        3.62244127906801
C            6.13463976110225        1.21730510444875        2.27748703546952
C            6.39752387595632        0.19492674979408        1.39268188073963
C            6.93099024716160        1.27324106965281       -0.82243449771928
C            8.28393257105383        1.53076721546704       -0.82491370000689
C            8.74973908529768        2.60931299313959       -1.56520943317224
C            7.87388426674326        3.40854859629536       -2.28449180337944
C            6.51220727799440        3.15226594579949       -2.28398068516538
C            6.04008312839440        2.07774998495287       -1.54812132543396
C            1.15996171411866       -1.96475423910255       -0.30861297776251
H            0.00007486733140       -3.73202070557717       -0.00158648727397
H           -2.05808385516094       -2.50753227141278        0.56362950842068
H           -1.37419188022288        1.58945380427957        1.88817507604983
H           -3.40340013807535        2.84123642445581        2.50321899260105
H           -3.69283228528961       -1.10997060868156       -0.49350605469786
H           -5.72173813422825        2.15600883172382       -1.92959915175561
H           -6.21561750292960        1.80846907693266       -4.33103020514622
H           -7.15481339000695       -0.31599190930384       -5.11624444872032
H           -7.62351427873708       -2.14881622773404       -3.52863012798988
H           -7.91747366477653       -3.72620875387530       -1.45913430596469
H           -7.99630594330461       -4.79626549702924        0.76543938686628
H           -7.23406641750807       -3.59095738264646        2.76010420285742
H           -6.37268019017021       -1.27637005474210        2.58041339390390
H           -8.96578447111054        0.90727746875608        0.26508073279978
H           -9.80743162422035        2.82648308887833        1.58372746075172
H           -8.26005516957990        4.23922147213437        2.85722545312859
H           -5.83415668494714        3.77426371578081        2.84971184682653
H           -0.00005482613908        1.19068688741507        0.00065044261986
H            1.37407002759608        1.59132689822182       -1.88641327204218
H            3.40322345638983        2.84376137684327       -2.50030003587887
H            3.69286114768875       -1.11034981292166        0.49256877878404
H            6.37258750290566       -1.27346311607377       -2.58179642659636
H            7.23409057285610       -3.58780781089816       -2.76403103267064
H            7.99650516982909       -4.79522497020619       -0.77070883996510
H            7.91772689951156       -3.72757621208396        1.45502324192190
H            7.62375219930432       -2.15244916727937        3.52623913553735
H            7.15503790551258       -0.32136481317149        5.11585694734793
H            6.21572036768984        1.80390547932733        4.33298099941221
H            5.72172804067281        2.15402431423137        1.93194826630428
H            8.96572530249484        0.90781436163620       -0.26417497593830
H            9.80726906664003        2.82836574625235       -1.58092654690717
H            8.25981534124717        4.24228708854442       -2.85301668387613
H            5.83393682803730        3.77721541179168       -2.84593029088932
H            2.05816343782294       -2.50691594939724       -0.56570449205810

          :  Hamiltonian                  GFN2-xTB          :
         :: gradient norm              0.000030569188 Eh/a0 ::
         :: HOMO-LUMO gap              3.043496849135 eV    ::
         :: SCC energy              -140.014347183134 Eh    ::
         :: -> dispersion             -0.133105524784 Eh    ::
         :: repulsion energy           2.704759050669 Eh    ::

    * Orbital Energies and Occupations

         #    Occupation            Energy/Eh            Energy/eV
      -------------------------------------------------------------
         1        2.0000           -0.6614103             -17.9979
       ...           ...                  ...                  ...
       117        2.0000           -0.4099675             -11.1558
       118        2.0000           -0.4020034             -10.9391
       119        2.0000           -0.4014730             -10.9246
       120        2.0000           -0.3987191             -10.8497
       121        2.0000           -0.3979077             -10.8276
       122        2.0000           -0.3939796             -10.7207
       123        2.0000           -0.3939247             -10.7192
       124        2.0000           -0.3934721             -10.7069
       125        2.0000           -0.3932259             -10.7002
       126        2.0000           -0.3804339             -10.3521
       127        2.0000           -0.3798386             -10.3359
       128        2.0000           -0.3736269             -10.1669
       129        2.0000           -0.3711781             -10.1003 (HOMO)
       130                         -0.2593317              -7.0568 (LUMO)
       131                         -0.2546645              -6.9298
       132                         -0.2511273              -6.8335
       133                         -0.2511113              -6.8331
       134                         -0.2247259              -6.1151
       135                         -0.2245256              -6.1097
       136                         -0.2243355              -6.1045
       137                         -0.2242238              -6.1014
       138                         -0.2241115              -6.0984
       139                         -0.2240506              -6.0967
       140                         -0.2200284              -5.9873
       ...                                ...                  ...
       258                          0.7357911              20.0219
      -------------------------------------------------------------
                  HL-Gap            0.1118465 Eh            3.0435 eV

     #   Z          covCN         q      C6AA      α(0)
     1   6 C        2.917    -0.030    28.755     8.793
     2   6 C        2.925    -0.036    28.884     8.814
     3   6 C        2.976     0.010    27.790     8.647
     4   6 C        2.980     0.008    27.838     8.655
     5   6 C        2.926    -0.038    28.933     8.821
     6   6 C        2.913    -0.035    28.862     8.810
     7   6 C        3.037    -0.001    28.021     8.682
     8   6 C        3.054     0.006    27.838     8.653
     9   6 C        2.919    -0.038    28.936     8.821
    10   6 C        3.979     0.009    20.350     6.409
    11   6 C        3.057     0.007    27.816     8.649
    12   6 C        2.914    -0.033    28.810     8.802
    13   6 C        2.923    -0.031    28.784     8.798
    14   6 C        2.921    -0.032    28.808     8.802
    15   6 C        2.915    -0.034    28.839     8.806
    16   6 C        3.036     0.001    27.968     8.674
    17   6 C        3.037     0.001    27.967     8.674
    18   6 C        2.915    -0.034    28.841     8.806
    19   6 C        2.921    -0.033    28.811     8.802
    20   6 C        2.923    -0.032    28.789     8.799
    21   6 C        2.914    -0.033    28.813     8.802
    22   6 C        3.057     0.007    27.820     8.650
    23   6 C        3.057     0.007    27.820     8.650
    24   6 C        2.914    -0.033    28.812     8.802
    25   6 C        2.923    -0.032    28.789     8.799
    26   6 C        2.921    -0.032    28.809     8.802
    27   6 C        2.915    -0.034    28.845     8.807
    28   6 C        3.036     0.001    27.960     8.673
    29   6 C        2.931    -0.039    28.976     8.828
    30   6 C        2.976     0.010    27.790     8.647
    31   6 C        2.980     0.008    27.838     8.655
    32   6 C        2.926    -0.038    28.933     8.821
    33   6 C        2.913    -0.035    28.862     8.810
    34   6 C        3.037    -0.001    28.021     8.682
    35   6 C        3.054     0.006    27.838     8.653
    36   6 C        2.919    -0.038    28.936     8.821
    37   6 C        3.979     0.009    20.350     6.409
    38   6 C        3.057     0.007    27.820     8.650
    39   6 C        2.914    -0.033    28.813     8.802
    40   6 C        2.923    -0.032    28.789     8.799
    41   6 C        2.921    -0.033    28.811     8.802
    42   6 C        2.915    -0.034    28.841     8.806
    43   6 C        3.037     0.001    27.967     8.674
    44   6 C        3.036     0.001    27.968     8.674
    45   6 C        2.915    -0.034    28.839     8.806
    46   6 C        2.921    -0.032    28.808     8.802
    47   6 C        2.923    -0.031    28.784     8.798
    48   6 C        2.914    -0.033    28.810     8.802
    49   6 C        3.057     0.007    27.816     8.649
    50   6 C        3.057     0.007    27.820     8.650
    51   6 C        2.914    -0.033    28.812     8.802
    52   6 C        2.923    -0.032    28.789     8.799
    53   6 C        2.921    -0.032    28.809     8.802
    54   6 C        2.915    -0.034    28.845     8.807
    55   6 C        3.036     0.001    27.960     8.673
    56   6 C        2.925    -0.036    28.884     8.814
    57   1 H        0.926     0.030     2.591     2.517
    58   1 H        0.926     0.031     2.572     2.508
    59   1 H        0.926     0.033     2.548     2.496
    60   1 H        0.926     0.032     2.565     2.504
    61   1 H        0.926     0.030     2.590     2.517
    62   1 H        0.926     0.028     2.617     2.530
    63   1 H        0.926     0.031     2.577     2.510
    64   1 H        0.926     0.030     2.580     2.512
    65   1 H        0.926     0.031     2.569     2.506
    66   1 H        0.926     0.031     2.570     2.507
    67   1 H        0.926     0.030     2.582     2.513
    68   1 H        0.926     0.031     2.578     2.511
    69   1 H        0.926     0.028     2.617     2.530
    70   1 H        0.926     0.028     2.619     2.531
    71   1 H        0.926     0.031     2.578     2.511
    72   1 H        0.926     0.030     2.582     2.513
    73   1 H        0.926     0.031     2.570     2.507
    74   1 H        0.926     0.033     2.541     2.493
    75   1 H        0.926     0.033     2.548     2.496
    76   1 H        0.926     0.032     2.565     2.504
    77   1 H        0.926     0.030     2.590     2.517
    78   1 H        0.926     0.028     2.617     2.530
    79   1 H        0.926     0.031     2.578     2.511
    80   1 H        0.926     0.030     2.582     2.513
    81   1 H        0.926     0.031     2.570     2.507
    82   1 H        0.926     0.031     2.569     2.506
    83   1 H        0.926     0.030     2.580     2.512
    84   1 H        0.926     0.031     2.577     2.510
    85   1 H        0.926     0.028     2.617     2.530
    86   1 H        0.926     0.028     2.619     2.531
    87   1 H        0.926     0.031     2.578     2.511
    88   1 H        0.926     0.030     2.582     2.513
    89   1 H        0.926     0.031     2.570     2.507
    90   1 H        0.926     0.031     2.572     2.508

molecular dipole:
                 x           y           z       tot (Debye)
 q only:        0.000      -0.008      -0.000
   full:        0.000      -0.014      -0.000       0.035

 projected vibrational frequencies (cm⁻¹)
eigval :       -0.00    -0.00    -0.00     0.00     0.00     0.00
eigval :      -80.69     7.39    12.11    15.88    22.91    27.86
eigval :       34.43    39.90    45.32    51.41    56.43    67.62
eigval :       72.52    86.00    93.83   105.68   127.20   130.25
eigval :      137.72   142.08   144.93   155.14   156.73   201.58
eigval :      202.86   206.95   226.19   232.80   233.06   240.14
eigval :      246.84   272.29   280.05   287.91   305.04   318.72
eigval :      333.86   346.37   361.21   377.28   381.22   387.39
eigval :      405.64   412.72   414.27   414.44   415.92   420.37
eigval :      430.86   451.63   453.26   460.77   466.26   469.66
eigval :      473.15   480.66   491.03   504.03   505.98   510.42
eigval :      523.24   536.21   538.65   553.35   572.98   585.92
eigval :      587.54   590.81   591.62   596.59   602.58   604.92
eigval :      626.51   633.94   635.57   649.19   663.40   675.15
eigval :      684.11   688.34   688.65   689.96   699.33   703.86
eigval :      706.99   715.90   733.01   738.65   739.84   754.24
eigval :      754.45   766.93   767.76   775.55   776.18   782.11
eigval :      784.81   786.20   794.19   830.96   832.24   839.24
eigval :      878.68   878.70   878.92   878.94   879.74   880.21
eigval :      883.14   885.41   890.85   898.97   900.78   903.49
eigval :      906.50   909.99   910.37   910.46   911.70   911.84
eigval :      916.25   917.34   918.26   927.05   927.18   927.54
eigval :      927.58   927.59   928.16   929.74   930.64   940.08
eigval :      971.30   988.46  1008.82  1009.08  1010.29  1012.22
eigval :     1073.64  1073.85  1073.88  1074.71  1077.19  1077.33
eigval :     1078.83  1079.11  1082.23  1096.61  1133.71  1134.32
eigval :     1135.09  1143.72  1143.73  1155.80  1156.20  1166.90
eigval :     1173.78  1177.59  1178.38  1178.38  1178.91  1181.27
eigval :     1182.23  1191.97  1196.33  1201.16  1210.33  1210.33
eigval :     1222.21  1224.98  1225.05  1230.89  1244.47  1248.19
eigval :     1260.46  1261.11  1261.61  1261.76  1264.58  1273.12
eigval :     1282.58  1285.37  1286.45  1296.17  1315.34  1320.00
eigval :     1326.10  1327.38  1327.47  1330.67  1363.25  1366.72
eigval :     1366.77  1368.16  1401.88  1421.66  1426.70  1429.21
eigval :     1429.25  1431.57  1431.67  1432.16  1440.60  1450.20
eigval :     1459.37  1462.45  1462.56  1466.53  1472.51  1472.56
eigval :     1483.73  1486.61  1571.49  1574.66  1578.94  1585.14
eigval :     1585.52  1588.31  1591.86  1594.33  1596.37  1596.50
eigval :     1598.66  1599.39  1604.00  1604.57  1604.69  1604.70
eigval :     1605.12  1606.24  3071.50  3072.48  3072.48  3072.77
eigval :     3072.78  3073.11  3073.11  3074.71  3075.34  3076.56
eigval :     3076.57  3077.13  3077.23  3077.44  3077.45  3078.85
eigval :     3079.81  3080.95  3083.29  3083.49  3083.50  3084.29
eigval :     3084.39  3085.49  3085.53  3087.37  3087.88  3089.74
eigval :     3091.27  3091.29  3091.97  3092.03  3092.77  3092.86

   temp. (K)  partition function   enthalpy   heat capacity  entropy
                                   cal/mol     cal/K/mol   cal/K/mol   J/K/mol
 298.15  VIB  0.209E+19            24115.066    158.383    148.023
         ROT  0.764E+08              888.752      2.981     39.054
         INT  0.160E+27            25003.818    161.364    187.076
         TR   0.182E+29             1481.254      4.968     45.527
         TOT                       26485.0720   166.3324   232.6031   973.2113

       T/K    H(0)-H(T)+PV         H(T)/Eh          T*S/Eh         G(T)/Eh
   ------------------------------------------------------------------------
    298.15    0.422066E-01    0.736254E+00    0.110517E+00    0.625737E+00
   ------------------------------------------------------------------------

         :::::::::::::::::::::::::::::::::::::::::::::::::::::
         ::                  THERMODYNAMIC                  ::
         :::::::::::::::::::::::::::::::::::::::::::::::::::::
         :: total free energy        -136.683851168541 Eh   ::
         ::.................................................::
         :: total energy             -137.309588132482 Eh   ::
         :: zero point energy           0.694047547934 Eh   ::
         :: G(RRHO) w/o ZPVE           -0.068310583993 Eh   ::
         :: G(RRHO) contrib.            0.625736963940 Eh   ::
         :::::::::::::::::::::::::::::::::::::::::::::::::::::

           -------------------------------------------------
          | TOTAL ENERGY             -137.309588132482 Eh   |
          | TOTAL ENTHALPY           -136.573333935780 Eh   |
          | TOTAL FREE ENERGY        -136.683851168541 Eh   |
          | GRADIENT NORM               0.000030567679 Eh/α |
          | HOMO-LUMO GAP               3.043496875764 eV   |
           -------------------------------------------------

 * finished run on 2025/09/10 at 12:23:50.234
