   * xtb version 6.7.1 (edcfbbe) compiled by 'albert@albert-system' on 2024-07-22

   ID    Z sym.   atoms
    1    6 C      1-56
    2    1 H      57-90

          program call               : xtb data2507/gas/BSBFB/BSBFB_gas_T1_crest.xyz --gfn 2 --spinpol --tblite --uhf 2 --ohess vtight --parallel 40 --molden --ceasefiles --namespace data2507/gas/BSBFB/BSBFB_gas_T1_finalOpt
 * total energy  :  -137.2167998 Eh     change        0.2066213E-07 Eh
 * total energy  :  -137.2168153 Eh     change       -0.1551516E-04 Eh
 * total energy  :  -137.2168196 Eh     change       -0.4294643E-05 Eh
 * total energy  :  -137.2168206 Eh     change       -0.9406556E-06 Eh
 * total energy  :  -137.2168221 Eh     change       -0.1559020E-05 Eh
 * total energy  :  -137.2168239 Eh     change       -0.1749755E-05 Eh
 * total energy  :  -137.2168253 Eh     change       -0.1395785E-05 Eh
 * total energy  :  -137.2168260 Eh     change       -0.7156323E-06 Eh
 * total energy  :  -137.2168264 Eh     change       -0.3674160E-06 Eh
 * total energy  :  -137.2168269 Eh     change       -0.4950674E-06 Eh
 * total energy  :  -137.2168274 Eh     change       -0.4958323E-06 Eh
 * total energy  :  -137.2168277 Eh     change       -0.3001849E-06 Eh
 * total energy  :  -137.2168278 Eh     change       -0.1083599E-06 Eh
 * total energy  :  -137.2168279 Eh     change       -0.1846441E-06 Eh
 * total energy  :  -137.2168280 Eh     change       -0.6184342E-07 Eh
   *** GEOMETRY OPTIMIZATION CONVERGED AFTER 15 ITERATIONS ***

 final structure:
================
90
 xtb: 6.7.1 (edcfbbe)
C            0.33708107198027       -5.69698672260715        0.63099949863639
C           -0.88430683401594       -5.06491548196382        0.42011320383813
C           -0.90939618060037       -3.72912631059963       -0.02272426540534
C           -2.18629151772592       -3.04216314308303       -0.25824456139389
C           -3.28688805176095       -3.74245101155199       -0.75700857824462
C           -4.51197481064126       -3.13005758948859       -0.94497284736575
C           -4.64161244045145       -1.78594756020774       -0.63523504787271
C           -3.53256280194151       -1.06461598650114       -0.16397089127751
C           -2.31892731494250       -1.67903209880922        0.03293030240161
C           -3.90527802435205        0.37560902482767        0.08138745585618
C           -3.60346319832895        0.91023433824029        1.45820629740873
C           -3.93773151553907        0.36903665210476        2.67998892314211
C           -3.57541500929192        1.05814351692875        3.82980724756956
C           -2.90168373232848        2.26760991327030        3.75144877065751
C           -2.56712097505065        2.81736281333222        2.52436874686403
C           -2.91715274307255        2.13097988967074        1.37361657965198
C           -2.69042098939079        2.43562258329901       -0.03002336815098
C           -2.09946965783003        3.52691485242964       -0.64554539824016
C           -2.01296838488206        3.54297726693920       -2.02912556493263
C           -2.49895735891808        2.48668956097405       -2.78487549203313
C           -3.11146694821620        1.39951272227969       -2.17601160816997
C           -3.20831005643820        1.38555250559008       -0.80205951488218
C           -5.38644679317196        0.36913584211294       -0.23522332684137
C           -6.28109993482677        1.41295404050555       -0.15678355424038
C           -7.60017629421560        1.18072530339791       -0.52316920034650
C           -8.00531557508545       -0.07048886508798       -0.96373433314605
C           -7.10670696525941       -1.12160876755235       -1.04602697971975
C           -5.78948708812683       -0.89851418952102       -0.67820557810980
C            0.28268131844160       -3.06779414115561       -0.21727957244964
C            1.54520315460814       -3.66669686387576        0.03901137794454
C            2.74394637037869       -2.92153674843613       -0.05393809244654
C            4.05217519017180       -3.53825544608661       -0.02886118220374
C            5.20498683868400       -2.82758203573629       -0.00973158288008
C            5.15828492867083       -1.40262336189382       -0.00499761034539
C            3.86119807457388       -0.77822240624603       -0.08075314631163
C            2.71563912305449       -1.48256473355326       -0.11599537960009
C            4.01830240516877        0.72891396064730       -0.07219301108815
C            3.15655068599214        1.31596434629371        1.01876913678362
C            3.27948280271128        1.17198834493505        2.38335824151719
C            2.29172537713050        1.71214801115396        3.19616080474001
C            1.19701627019623        2.36441159139388        2.64825897898810
C            1.07285472539849        2.51647892376078        1.27678149583202
C            2.06387021244132        1.99701776051224        0.46060055369217
C            2.21834476764249        2.01025590492759       -0.98511280944634
C            1.43840034190377        2.57362938330591       -1.98086156311251
C            1.85412883258598        2.45018160153718       -3.29679083204391
C            3.02552428581525        1.77910248785621       -3.61502515999217
C            3.80496002522082        1.19916410154678       -2.62295304779345
C            3.39454608415672        1.31985186200619       -1.31349092094167
C            5.50829007033758        0.88154324082464        0.05314700338272
C            6.24550394896947        2.03013593032267        0.12897630216571
C            7.63726367514253        1.93375961058317        0.23005565751304
C            8.26669157928570        0.68525315032604        0.25086535977223
C            7.54524243054235       -0.48053200741984        0.17558721892560
C            6.13836820146048       -0.40642836629785        0.07498890209075
C            1.52305280368782       -5.03412519778892        0.44613569706171
H            0.34762283107125       -6.72626107620880        0.96119817658730
H           -1.80577138039923       -5.59081235813984        0.61415020005527
H           -3.17381795473090       -4.78530999798273       -1.01449333478580
H           -5.35271859326541       -3.69261293200670       -1.32333816584858
H           -1.48677777065252       -1.12152021726217        0.43804487636532
H           -4.46738438771872       -0.57061231312851        2.74122708370558
H           -3.82419053783616        0.64822302688295        4.79763885819687
H           -2.63565512767734        2.78761324716086        4.66056467123098
H           -2.04655937614311        3.76227565742642        2.46831754377893
H           -1.72429547890967        4.35640892385996       -0.06278277220184
H           -1.56538369290171        4.39172722215383       -2.52701866052970
H           -2.41150573841181        2.51619347523924       -3.86090840504507
H           -3.50885307400637        0.58642558621317       -2.76608340903893
H           -5.96442469472149        2.38826579661148        0.18380190478347
H           -8.31908275773167        1.98467355559075       -0.46530158584038
H           -9.03653632380815       -0.22650533709252       -1.24552285886284
H           -7.42681687908403       -2.09428997455716       -1.38910154478299
H            0.24783391389695       -2.06960533102665       -0.62244298621200
H            4.10783341294321       -4.61535251947292       -0.05359569739142
H            6.16294900852966       -3.32651554587971        0.00035302868850
H            1.77472614608546       -0.95683766503879       -0.13607787201122
H            4.12242635683100        0.64744611863297        2.80965009305212
H            2.37098914292125        1.61255461174749        4.26880998006107
H            0.42934779617255        2.75450734954714        3.30048019545676
H            0.21706521169929        3.01700702368489        0.85070438425610
H            0.52326332556059        3.09122765308899       -1.73787302925073
H            1.25781579505606        2.88379055654221       -4.08650126335718
H            3.33269262180405        1.70139951317557       -4.64772054048752
H            4.71217652123169        0.66733587926102       -2.87102827777054
H            5.76440669684574        2.99750015488240        0.11192780285823
H            8.23207151474129        2.83211925293642        0.29187126257464
H            9.34387136326213        0.64450769119699        0.32841806250030
H            8.03489447047347       -1.44246386961669        0.19255152080226
H            2.44732601242431       -5.54734188789393        0.65618168855553

 projected vibrational frequencies (cm⁻¹)
eigval :       -0.00    -0.00    -0.00     0.00     0.00     0.00
eigval :       10.89    15.33    20.36    23.76    30.47    33.07
eigval :       41.95    45.13    48.10    57.07    64.97    72.10
eigval :       84.07    86.57    92.10   100.89   117.32   124.64
eigval :      131.56   139.87   149.92   153.28   171.97   189.10
eigval :      209.23   214.36   219.17   222.01   232.77   242.98
eigval :      253.36   255.55   275.79   285.70   291.04   307.74
eigval :      322.46   343.63   353.36   357.62   386.05   389.42
eigval :      391.91   399.92   407.54   414.18   414.67   416.80
eigval :      432.20   444.49   447.41   454.16   457.17   457.28
eigval :      465.73   476.17   486.61   501.80   503.76   507.01
eigval :      521.12   527.53   539.11   539.76   550.31   566.27
eigval :      576.43   584.62   588.10   592.24   597.48   602.47
eigval :      604.41   624.52   627.81   635.62   640.57   658.10
eigval :      661.40   682.95   686.01   687.23   688.39   695.99
eigval :      706.63   709.54   727.58   728.93   738.73   739.80
eigval :      747.86   753.73   754.21   759.10   770.48   775.66
eigval :      775.97   781.63   784.87   788.43   819.67   821.03
eigval :      826.90   837.01   838.01   845.40   876.96   878.07
eigval :      878.22   880.74   884.54   884.80   888.71   892.22
eigval :      898.61   900.24   901.34   907.05   908.79   909.40
eigval :      911.01   912.02   912.18   912.40   914.59   916.51
eigval :      923.35   925.61   926.93   927.06   928.16   932.67
eigval :      941.00   963.15   982.32  1007.49  1007.94  1008.94
eigval :     1020.75  1051.99  1063.99  1073.14  1073.78  1074.51
eigval :     1077.35  1078.73  1079.89  1084.11  1122.47  1129.03
eigval :     1131.59  1134.00  1143.04  1143.66  1152.65  1158.11
eigval :     1163.30  1171.95  1176.58  1177.11  1177.47  1178.88
eigval :     1181.85  1182.36  1193.76  1200.01  1205.57  1208.83
eigval :     1209.13  1224.70  1227.96  1228.59  1242.85  1247.25
eigval :     1249.29  1254.57  1258.98  1261.50  1263.01  1268.55
eigval :     1272.98  1285.34  1286.87  1294.38  1312.87  1322.07
eigval :     1327.79  1328.79  1329.42  1338.60  1341.15  1351.60
eigval :     1364.14  1366.09  1367.12  1372.41  1386.07  1399.21
eigval :     1422.18  1425.94  1427.40  1428.22  1428.92  1431.23
eigval :     1438.81  1450.90  1462.03  1462.19  1467.18  1470.87
eigval :     1472.37  1473.90  1490.00  1504.53  1534.04  1561.59
eigval :     1567.79  1571.82  1584.02  1584.91  1591.63  1593.59
eigval :     1595.23  1596.28  1601.71  1602.58  1603.45  1603.82
eigval :     1605.05  1639.40  3066.12  3069.43  3071.07  3072.22
eigval :     3072.52  3072.97  3073.44  3074.71  3075.28  3076.01
eigval :     3076.66  3076.81  3077.36  3077.81  3078.92  3079.14
eigval :     3079.63  3082.69  3084.56  3087.85  3088.19  3088.37
eigval :     3089.65  3090.52  3091.77  3092.54  3094.86  3096.04
eigval :     3097.69  3098.44  3098.67  3102.60  3108.46  3111.53

   temp. (K)  partition function   enthalpy   heat capacity  entropy
                                   cal/mol     cal/K/mol   cal/K/mol   J/K/mol
 298.15  VIB  0.402E+19            24918.159    162.387    152.885
         ROT  0.893E+08              888.752      2.981     39.362
         INT  0.358E+27            25806.911    165.368    192.247
         TR   0.182E+29             1481.254      4.968     45.527
         TOT                       27288.1652   170.3365   237.7740   994.8463

       T/K    H(0)-H(T)+PV         H(T)/Eh          T*S/Eh         G(T)/Eh
   ------------------------------------------------------------------------
    298.15    0.434865E-01    0.733680E+00    0.112974E+00    0.620706E+00
   ------------------------------------------------------------------------

         :::::::::::::::::::::::::::::::::::::::::::::::::::::
         ::                  THERMODYNAMIC                  ::
         :::::::::::::::::::::::::::::::::::::::::::::::::::::
         :: total free energy        -136.596122055066 Eh   ::
         ::.................................................::
         :: total energy             -137.216828086485 Eh   ::
         :: zero point energy           0.690193658966 Eh   ::
         :: G(RRHO) w/o ZPVE           -0.069487627546 Eh   ::
         :: G(RRHO) contrib.            0.620706031419 Eh   ::
         :::::::::::::::::::::::::::::::::::::::::::::::::::::

           -------------------------------------------------
          | TOTAL ENERGY             -137.216828086485 Eh   |
          | TOTAL ENTHALPY           -136.483147968216 Eh   |
          | TOTAL FREE ENERGY        -136.596122055066 Eh   |
          | GRADIENT NORM               0.000130951823 Eh/α |
           -------------------------------------------------

 * finished run on 2025/09/10 at 12:51:03.595
