   * xtb version 6.7.1 (edcfbbe) compiled by 'albert@albert-system' on 2024-07-22

   ID    Z sym.   atoms
    1    6 C      1-56
    2    1 H      57-90

          program call               : xtb data2507/gas/BSBFB/BSBFB_gas_S0_crest.xyz --gfn 2 --ohess vtight --parallel 40 --molden --ceasefiles --namespace data2507/gas/BSBFB/BSBFB_gas_S0_finalOpt
          :  Hamiltonian                  GFN2-xTB          :
 * total energy  :  -137.3109942 Eh     change       -0.3487401E-08 Eh
 * total energy  :  -137.3109957 Eh     change       -0.1517025E-05 Eh
 * total energy  :  -137.3109976 Eh     change       -0.1841272E-05 Eh
 * total energy  :  -137.3110005 Eh     change       -0.2966740E-05 Eh
 * total energy  :  -137.3110021 Eh     change       -0.1511393E-05 Eh
 * total energy  :  -137.3110036 Eh     change       -0.1522538E-05 Eh
 * total energy  :  -137.3110061 Eh     change       -0.2529931E-05 Eh
 * total energy  :  -137.3110089 Eh     change       -0.2825993E-05 Eh
 * total energy  :  -137.3110106 Eh     change       -0.1694981E-05 Eh
 * total energy  :  -137.3110118 Eh     change       -0.1175288E-05 Eh
 * total energy  :  -137.3110177 Eh     change       -0.9461224E-06 Eh
 * total energy  :  -137.3110182 Eh     change       -0.5754887E-06 Eh
 * total energy  :  -137.3110187 Eh     change       -0.4977377E-06 Eh
 * total energy  :  -137.3110193 Eh     change       -0.5916658E-06 Eh
 * total energy  :  -137.3110200 Eh     change       -0.7196226E-06 Eh
 * total energy  :  -137.3110208 Eh     change       -0.7753157E-06 Eh
 * total energy  :  -137.3110216 Eh     change       -0.7512585E-06 Eh
 * total energy  :  -137.3110224 Eh     change       -0.7874369E-06 Eh
 * total energy  :  -137.3110224 Eh     change       -0.4794856E-08 Eh
   *** GEOMETRY OPTIMIZATION CONVERGED AFTER 22 ITERATIONS ***

 final structure:
================
90
 xtb: 6.7.1 (edcfbbe)
C            0.01275532148263       -5.46759227935136        0.03921414655482
C           -1.13490848607695       -4.78138947351202        0.39083751768626
C           -1.15270853010427       -3.38855941257859        0.37151016640525
C           -2.35476542233090       -2.63933595724568        0.76454472546683
C           -3.10543185070868       -3.04443672676169        1.86891824757919
C           -4.21306878100980       -2.33202783897418        2.29233039566504
C           -4.57966800042131       -1.19254844207941        1.59486952567973
C           -3.83960541285560       -0.79210714425269        0.47262459127217
C           -2.73709554240344       -1.49856302152322        0.05466315425217
C           -4.41589071757198        0.46986686678803       -0.12100738221017
C           -3.41023472505301        1.58904464611069       -0.23311439777662
C           -2.64116929790410        2.14959160033718        0.76280808504600
C           -1.76758767772725        3.17449334412986        0.42552876736005
C           -1.67417255921650        3.62550758845934       -0.88223175822443
C           -2.44187807221401        3.06030029730633       -1.88751907567634
C           -3.31201089163193        2.03389242226403       -1.55944008515097
C           -4.22225797774233        1.24829312897660       -2.37777040293446
C           -4.50402275014465        1.29317486658891       -3.73313770070762
C           -5.43502588649298        0.40472868624512       -4.24698700340263
C           -6.07331102216945       -0.51264089371855       -3.42591763325065
C           -5.79660210528872       -0.56317634889940       -2.06621735349874
C           -4.87169727054134        0.31882895041708       -1.55269294937776
C           -5.55957472805394        0.75966122044779        0.82140513965816
C           -6.44833969290069        1.81120825462196        0.78846967223777
C           -7.43920251109379        1.86949609928146        1.75957005551289
C           -7.53375648673446        0.89089492122217        2.73766521527890
C           -6.64141941523888       -0.16852227315279        2.77345771978897
C           -5.64888342195014       -0.23233000124353        1.80923921009308
C           -0.00163996995448       -2.70700053936139       -0.00894488879886
C            1.15978317413881       -3.38762054633778       -0.35867008216544
C            2.36978257711813       -2.64590884182139       -0.74130571431609
C            3.18453923215485       -3.10801638696028       -1.77600076649759
C            4.33159873943060       -2.43268396421596       -2.15224184296677
C            4.67205982741391       -1.26985995986291       -1.48062929581119
C            3.85354414780673       -0.79668508686674       -0.44426799795102
C            2.71455055123815       -1.46932859797799       -0.07053134071834
C            4.41169139191188        0.48180305995813        0.13110463214408
C            4.68174520304300        0.42411401934275        1.61456437306610
C            5.48164486284133       -0.46046019940197        2.30374219577421
C            5.59204096845987       -0.31685143487565        3.68041116842399
C            4.91439923860418        0.69364394142051        4.34584860047193
C            4.10872054822662        1.58494645849022        3.65546692317491
C            3.99291840928334        1.44732671787808        2.28215294039989
C            3.23977703671087        2.21241100929018        1.30090455046641
C            2.41704629948873        3.31809132549016        1.43860183147010
C            1.82674380903560        3.85096215949894        0.30405741027648
C            2.04362053954899        3.28728503982759       -0.94400955472678
C            2.86793187632506        2.17986237725426       -1.09007832420001
C            3.46404932517570        1.65350672745413        0.03458111019597
C            5.66168087465450        0.67213331521359       -0.69521483665197
C            6.59427054264144        1.68215567848732       -0.61255468338366
C            7.67574100787268        1.65552889104817       -1.48308520184881
C            7.81297035608150        0.63715424594610       -2.41443680882562
C            6.87592033355598       -0.37988655912319       -2.50075637797219
C            5.79468131355912       -0.36057416755112       -1.63496152517469
C            1.15452589007841       -4.78104841149722       -0.33012870860514
H            0.01870033816572       -6.54799511537159        0.05683656056855
H           -2.02726366115150       -5.32506732441868        0.66397067457102
H           -2.79413654641634       -3.91927891618404        2.42121758546819
H           -4.77311371714656       -2.65446194204935        3.15770509194059
H           -2.18041360525233       -1.18372883235743       -0.81620342407411
H           -2.71632068102356        1.79844188546553        1.78186310689640
H           -1.15285877997964        3.62347996202094        1.19131323762944
H           -0.99312850834360        4.42895464930495       -1.12072161014875
H           -2.36225659824180        3.41228426220578       -2.90551961528327
H           -4.01004648859588        2.00603977463000       -4.37674545148880
H           -5.66803174937124        0.42644862682749       -5.30174874141945
H           -6.79555496788325       -1.19530526616278       -3.84895637427037
H           -6.29502297939023       -1.27616555410380       -1.42545134507416
H           -6.37501318192473        2.57237125928839        0.02517559831907
H           -8.14544334673810        2.68668401764850        1.75254957265952
H           -8.31409600100326        0.95678687946605        3.48197596053910
H           -6.71864890080004       -0.92793029403222        3.53750088281373
H           -0.00996441974495       -1.62668344780223       -0.02886092557131
H            2.89970241502349       -4.00449891462917       -2.30733101324046
H            4.94722918198725       -2.80611332109780       -2.95726710531364
H            2.10616257526548       -1.10530784830846        0.74468127625820
H            6.01044102918647       -1.24663288883994        1.78449490125125
H            6.21410698791411       -1.00007520812325        4.23975753645038
H            5.01688260197878        0.78650520471110        5.41737429685403
H            3.58302942261719        2.37024088381051        4.17835636102259
H            2.24292019141471        3.75909880104966        2.40911375178910
H            1.19237005939333        4.72090165260219        0.39271784542314
H            1.57015062461154        3.71584757569083       -1.81488629353748
H            3.04180774255682        1.74308560518667       -2.06288444584001
H            6.48649984041465        2.47511138896957        0.11339496295726
H            8.41929643637910        2.43740041653599       -1.43398004320297
H            8.66303539605461        0.63765159030903       -3.08125116131252
H            6.98731743717608       -1.17092000714717       -3.22757164873084
H            2.05397696751850       -5.32573003614775       -0.57636730137948

          :  Hamiltonian                  GFN2-xTB          :
         :: gradient norm              0.000056029758 Eh/a0 ::
         :: HOMO-LUMO gap              3.024958692287 eV    ::
         :: SCC energy              -140.016132327245 Eh    ::
         :: -> dispersion             -0.135765765278 Eh    ::
         :: repulsion energy           2.705109964121 Eh    ::

    * Orbital Energies and Occupations

         #    Occupation            Energy/Eh            Energy/eV
      -------------------------------------------------------------
         1        2.0000           -0.6610958             -17.9893
       ...           ...                  ...                  ...
       117        2.0000           -0.4095835             -11.1453
       118        2.0000           -0.4019502             -10.9376
       119        2.0000           -0.4016200             -10.9286
       120        2.0000           -0.3984365             -10.8420
       121        2.0000           -0.3974793             -10.8160
       122        2.0000           -0.3937336             -10.7140
       123        2.0000           -0.3936163             -10.7108
       124        2.0000           -0.3930629             -10.6958
       125        2.0000           -0.3926731             -10.6852
       126        2.0000           -0.3797883             -10.3346
       127        2.0000           -0.3794800             -10.3262
       128        2.0000           -0.3731566             -10.1541
       129        2.0000           -0.3708390             -10.0910 (HOMO)
       130                         -0.2596738              -7.0661 (LUMO)
       131                         -0.2545746              -6.9273
       132                         -0.2508643              -6.8264
       133                         -0.2504424              -6.8149
       134                         -0.2244517              -6.1076
       135                         -0.2243608              -6.1052
       136                         -0.2241602              -6.0997
       137                         -0.2239198              -6.0932
       138                         -0.2235921              -6.0843
       139                         -0.2234301              -6.0798
       140                         -0.2198429              -5.9822
       ...                                ...                  ...
       258                          0.7352445              20.0070
      -------------------------------------------------------------
                  HL-Gap            0.1111652 Eh            3.0250 eV

     #   Z          covCN         q      C6AA      α(0)
     1   6 C        2.916    -0.031    28.768     8.795
     2   6 C        2.924    -0.036    28.900     8.816
     3   6 C        2.976     0.010    27.788     8.647
     4   6 C        2.980     0.008    27.840     8.655
     5   6 C        2.926    -0.038    28.933     8.821
     6   6 C        2.913    -0.035    28.865     8.810
     7   6 C        3.037    -0.001    28.022     8.683
     8   6 C        3.054     0.006    27.837     8.653
     9   6 C        2.919    -0.038    28.933     8.821
    10   6 C        3.979     0.009    20.349     6.409
    11   6 C        3.056     0.006    27.827     8.651
    12   6 C        2.914    -0.033    28.813     8.802
    13   6 C        2.923    -0.031    28.775     8.797
    14   6 C        2.921    -0.032    28.791     8.799
    15   6 C        2.915    -0.034    28.842     8.807
    16   6 C        3.037     0.001    27.972     8.675
    17   6 C        3.036     0.001    27.967     8.674
    18   6 C        2.915    -0.034    28.839     8.806
    19   6 C        2.921    -0.032    28.810     8.802
    20   6 C        2.923    -0.032    28.786     8.799
    21   6 C        2.914    -0.033    28.811     8.802
    22   6 C        3.057     0.007    27.813     8.649
    23   6 C        3.058     0.007    27.817     8.649
    24   6 C        2.914    -0.033    28.812     8.802
    25   6 C        2.923    -0.032    28.790     8.799
    26   6 C        2.921    -0.033    28.810     8.802
    27   6 C        2.915    -0.034    28.846     8.807
    28   6 C        3.036     0.001    27.959     8.673
    29   6 C        2.931    -0.038    28.949     8.824
    30   6 C        2.975     0.010    27.790     8.647
    31   6 C        2.979     0.008    27.841     8.655
    32   6 C        2.926    -0.038    28.933     8.821
    33   6 C        2.913    -0.035    28.866     8.810
    34   6 C        3.037    -0.001    28.020     8.682
    35   6 C        3.053     0.006    27.841     8.653
    36   6 C        2.919    -0.037    28.932     8.821
    37   6 C        3.979     0.009    20.349     6.409
    38   6 C        3.056     0.007    27.821     8.650
    39   6 C        2.914    -0.032    28.809     8.801
    40   6 C        2.923    -0.031    28.784     8.798
    41   6 C        2.921    -0.032    28.809     8.802
    42   6 C        2.915    -0.034    28.839     8.806
    43   6 C        3.037     0.001    27.967     8.674
    44   6 C        3.036     0.001    27.969     8.674
    45   6 C        2.915    -0.034    28.840     8.806
    46   6 C        2.921    -0.031    28.780     8.797
    47   6 C        2.923    -0.031    28.766     8.795
    48   6 C        2.914    -0.033    28.813     8.802
    49   6 C        3.057     0.007    27.816     8.649
    50   6 C        3.058     0.007    27.815     8.649
    51   6 C        2.914    -0.033    28.813     8.802
    52   6 C        2.923    -0.032    28.789     8.799
    53   6 C        2.921    -0.033    28.810     8.802
    54   6 C        2.915    -0.034    28.845     8.807
    55   6 C        3.036     0.001    27.959     8.673
    56   6 C        2.925    -0.036    28.903     8.816
    57   1 H        0.926     0.030     2.591     2.517
    58   1 H        0.926     0.031     2.569     2.507
    59   1 H        0.926     0.033     2.550     2.497
    60   1 H        0.926     0.031     2.565     2.505
    61   1 H        0.926     0.030     2.590     2.517
    62   1 H        0.926     0.027     2.625     2.533
    63   1 H        0.926     0.031     2.573     2.508
    64   1 H        0.926     0.031     2.578     2.511
    65   1 H        0.926     0.031     2.577     2.510
    66   1 H        0.926     0.031     2.570     2.507
    67   1 H        0.926     0.030     2.581     2.512
    68   1 H        0.926     0.031     2.577     2.510
    69   1 H        0.926     0.028     2.617     2.530
    70   1 H        0.926     0.028     2.618     2.530
    71   1 H        0.926     0.031     2.579     2.511
    72   1 H        0.926     0.030     2.582     2.513
    73   1 H        0.926     0.031     2.571     2.507
    74   1 H        0.926     0.033     2.545     2.495
    75   1 H        0.926     0.033     2.547     2.496
    76   1 H        0.926     0.031     2.566     2.505
    77   1 H        0.926     0.030     2.587     2.515
    78   1 H        0.926     0.028     2.617     2.530
    79   1 H        0.926     0.031     2.577     2.510
    80   1 H        0.926     0.030     2.581     2.512
    81   1 H        0.926     0.031     2.572     2.508
    82   1 H        0.926     0.030     2.580     2.512
    83   1 H        0.926     0.030     2.586     2.515
    84   1 H        0.926     0.030     2.581     2.512
    85   1 H        0.926     0.028     2.620     2.531
    86   1 H        0.926     0.028     2.620     2.531
    87   1 H        0.926     0.031     2.578     2.511
    88   1 H        0.926     0.030     2.581     2.512
    89   1 H        0.926     0.031     2.570     2.507
    90   1 H        0.926     0.031     2.568     2.506

molecular dipole:
                 x           y           z       tot (Debye)
 q only:        0.012      -0.013      -0.001
   full:        0.021      -0.008       0.004       0.059

 projected vibrational frequencies (cm⁻¹)
eigval :       -0.00    -0.00    -0.00    -0.00     0.00     0.00
eigval :        7.59    17.89    22.12    22.91    25.64    31.64
eigval :       43.69    45.22    46.46    53.25    57.39    69.72
eigval :       83.47    87.62    95.24   107.01   122.37   128.52
eigval :      133.45   141.48   151.45   154.94   188.32   205.63
eigval :      206.59   213.91   224.92   233.14   234.29   250.57
eigval :      253.20   267.59   281.34   285.14   299.40   317.57
eigval :      336.22   346.09   351.26   379.00   387.12   387.21
eigval :      403.33   414.06   414.51   414.89   415.86   422.14
eigval :      440.81   451.71   457.15   459.08   467.33   471.90
eigval :      474.17   479.82   490.92   504.32   506.10   512.37
eigval :      523.74   538.59   539.83   551.72   572.29   585.81
eigval :      588.40   588.99   591.73   596.42   604.41   604.83
eigval :      624.89   632.26   637.91   652.54   665.15   674.88
eigval :      685.38   688.33   688.66   690.72   700.62   706.61
eigval :      707.80   715.99   733.23   739.63   739.78   754.27
eigval :      754.66   765.50   767.86   775.53   776.16   782.83
eigval :      784.17   787.05   793.12   829.82   831.71   839.46
eigval :      877.52   878.41   878.70   878.72   879.11   879.42
eigval :      879.81   885.45   896.57   897.17   900.85   902.38
eigval :      906.08   907.92   910.08   910.66   911.43   911.68
eigval :      915.93   916.31   917.34   924.34   927.20   927.46
eigval :      927.47   927.48   927.69   929.84   930.01   940.12
eigval :      969.81   988.78  1008.95  1009.16  1010.47  1012.13
eigval :     1073.73  1074.03  1074.17  1074.34  1077.29  1077.41
eigval :     1078.97  1079.28  1082.92  1095.67  1133.41  1134.41
eigval :     1135.61  1144.03  1145.12  1155.63  1157.55  1170.48
eigval :     1174.30  1177.46  1178.06  1178.82  1179.89  1181.63
eigval :     1183.79  1194.28  1197.83  1201.44  1210.37  1211.17
eigval :     1224.95  1225.41  1227.79  1230.75  1246.30  1249.04
eigval :     1257.19  1260.45  1261.92  1262.28  1263.33  1277.19
eigval :     1282.47  1285.26  1287.61  1296.06  1319.44  1320.53
eigval :     1325.62  1327.48  1327.84  1327.93  1360.57  1365.76
eigval :     1367.15  1367.56  1415.33  1420.42  1425.84  1429.25
eigval :     1429.88  1431.96  1432.25  1432.35  1445.67  1447.42
eigval :     1453.50  1462.75  1463.06  1465.98  1472.68  1473.05
eigval :     1477.95  1493.03  1571.52  1574.87  1579.51  1585.73
eigval :     1585.95  1587.52  1593.89  1594.26  1596.77  1596.78
eigval :     1598.84  1599.77  1604.61  1604.85  1604.95  1605.18
eigval :     1605.42  1606.37  3071.38  3072.14  3072.65  3072.69
eigval :     3072.73  3073.04  3075.23  3075.28  3075.62  3076.17
eigval :     3076.62  3076.98  3077.04  3077.18  3077.60  3077.88
eigval :     3080.62  3082.96  3083.26  3083.50  3083.96  3084.16
eigval :     3084.39  3085.04  3086.05  3087.31  3088.05  3090.87
eigval :     3091.37  3091.74  3091.89  3092.23  3092.82  3095.23

   temp. (K)  partition function   enthalpy   heat capacity  entropy
                                   cal/mol     cal/K/mol   cal/K/mol   J/K/mol
 298.15  VIB  0.375E+19            24544.407    159.858    150.780
         ROT  0.105E+09              888.752      2.981     39.675
         INT  0.392E+27            25433.159    162.839    190.456
         TR   0.182E+29             1481.254      4.968     45.527
         TOT                       26914.4134   167.8072   235.9825   987.3506

       T/K    H(0)-H(T)+PV         H(T)/Eh          T*S/Eh         G(T)/Eh
   ------------------------------------------------------------------------
    298.15    0.428908E-01    0.737366E+00    0.112123E+00    0.625244E+00
   ------------------------------------------------------------------------

         :::::::::::::::::::::::::::::::::::::::::::::::::::::
         ::                  THERMODYNAMIC                  ::
         :::::::::::::::::::::::::::::::::::::::::::::::::::::
         :: total free energy        -136.685778775384 Eh   ::
         ::.................................................::
         :: total energy             -137.311022363124 Eh   ::
         :: zero point energy           0.694475621789 Eh   ::
         :: G(RRHO) w/o ZPVE           -0.069232034049 Eh   ::
         :: G(RRHO) contrib.            0.625243587740 Eh   ::
         :::::::::::::::::::::::::::::::::::::::::::::::::::::

           -------------------------------------------------
          | TOTAL ENERGY             -137.311022363124 Eh   |
          | TOTAL ENTHALPY           -136.573655893542 Eh   |
          | TOTAL FREE ENERGY        -136.685778775384 Eh   |
          | GRADIENT NORM               0.000056029741 Eh/α |
          | HOMO-LUMO GAP               3.024958674507 eV   |
           -------------------------------------------------

 * finished run on 2025/09/10 at 12:35:17.932
