   * xtb version 6.7.1 (edcfbbe) compiled by 'albert@albert-system' on 2024-07-22

   ID    Z sym.   atoms
    1    6 C      1-56
    2    1 H      57-90

          program call               : xtb data2507/gas/BSBFB/BSBFB_gas_S0_finalOpt.xtbopt.xyz --gfn 2 --spinpol --tblite --uhf 2 --ohess vtight --parallel 40 --molden --ceasefiles --namespace data2507/gas/BSBFB/BSBFB_gas_T1_preOpt
 * total energy  :  -137.2025636 Eh     change        0.3340733E-07 Eh
 * total energy  :  -137.2084593 Eh     change       -0.5895671E-02 Eh
 * total energy  :  -137.2118043 Eh     change       -0.3344975E-02 Eh
 * total energy  :  -137.2129327 Eh     change       -0.1128382E-02 Eh
 * total energy  :  -137.2138469 Eh     change       -0.9142614E-03 Eh
 * total energy  :  -137.2141636 Eh     change       -0.3166929E-03 Eh
 * total energy  :  -137.2142939 Eh     change       -0.1302956E-03 Eh
 * total energy  :  -137.2145043 Eh     change       -0.2104215E-03 Eh
 * total energy  :  -137.2146386 Eh     change       -0.1342884E-03 Eh
 * total energy  :  -137.2147367 Eh     change       -0.9806126E-04 Eh
 * total energy  :  -137.2150665 Eh     change       -0.2087437E-05 Eh
 * total energy  :  -137.2150683 Eh     change       -0.1736019E-05 Eh
 * total energy  :  -137.2150701 Eh     change       -0.1852899E-05 Eh
 * total energy  :  -137.2150713 Eh     change       -0.1223911E-05 Eh
 * total energy  :  -137.2150722 Eh     change       -0.8353896E-06 Eh
 * total energy  :  -137.2150728 Eh     change       -0.6593762E-06 Eh
 * total energy  :  -137.2150734 Eh     change       -0.5861780E-06 Eh
 * total energy  :  -137.2150739 Eh     change       -0.4955726E-06 Eh
 * total energy  :  -137.2150739 Eh     change       -0.8604133E-08 Eh
   *** GEOMETRY OPTIMIZATION CONVERGED AFTER 44 ITERATIONS ***

 final structure:
================
90
 xtb: 6.7.1 (edcfbbe)
C           -0.08348705825453       -5.49769609433338       -0.23063329549705
C           -1.20237712263243       -4.79539940225434        0.20353830875732
C           -1.13929292572718       -3.39803848921307        0.32663976301204
C           -2.32441638233133       -2.63818534984851        0.74966885022298
C           -3.09851044919439       -3.07960343301039        1.82330862948930
C           -4.20442555091976       -2.37056472082198        2.25630627207233
C           -4.55238854111895       -1.20569310531447        1.59128380637273
C           -3.78941686109500       -0.77003017886365        0.49713135000909
C           -2.68100394914343       -1.46617384487500        0.07804078070427
C           -4.37088098855030        0.49457991432409       -0.08519910312436
C           -3.39064322997541        1.63564069079921       -0.19194206741387
C           -2.63772804723952        2.21343355330015        0.80656541579791
C           -1.79779070566877        3.26816247100914        0.47528919100309
C           -1.72136340824203        3.73164205293169       -0.82918094162182
C           -2.47104552893486        3.14844455796584       -1.83754415324284
C           -3.30750945353652        2.09287087076105       -1.51536567930515
C           -4.19623572381220        1.28846118282929       -2.33865076058291
C           -4.47760926030700        1.33260445348636       -3.69415009226385
C           -5.38401034455039        0.42221554921909       -4.21341658825614
C           -5.99864066651627       -0.51571415586514       -3.39749308248348
C           -5.72245716195436       -0.56524561251270       -2.03768247739221
C           -4.82183516086224        0.33855078871576       -1.51898382196573
C           -5.52925985492176        0.75924322121975        0.84705372680525
C           -6.42447567318077        1.80537481071800        0.82146598621574
C           -7.43337139653553        1.83505510409217        1.77519909219240
C           -7.53935869150198        0.83326755093783        2.72843948379899
C           -6.64085010097265       -0.22105029720641        2.75642632759000
C           -5.62986358955453       -0.25624707119035        1.80976251580832
C            0.03867094292151       -2.74361405367922        0.03852577000675
C            1.19673565836394       -3.43366890219023       -0.40011895709287
C            2.40368297946529       -2.74581687492340       -0.68597868593272
C            3.40651220926339       -3.31716616083561       -1.55405852777999
C            4.54789252092115       -2.66894927483317       -1.88175756925587
C            4.81054608431051       -1.38207075453991       -1.32574514716688
C            3.83611144682451       -0.81729819950208       -0.41665830139912
C            2.68113153727444       -1.44740567960561       -0.12556422309788
C            4.34679650397876        0.50489044113608        0.10534797822621
C            4.59404836021353        0.49990787636789        1.59722694328444
C            5.38222767111886       -0.35989874720720        2.33018212489033
C            5.47704537525537       -0.16229710871700        3.70103450397054
C            4.79674978642694        0.87736077692081        4.31770234198245
C            4.00346930644390        1.74395178804885        3.58322678492223
C            3.90277198577520        1.55189414271540        2.21505963936228
C            3.16408330379263        2.27851181695300        1.19519093281183
C            2.34609968375638        3.39269271773610        1.28179767453516
C            1.76620521207967        3.88058606497248        0.12234064747868
C            1.98659548993258        3.26299396282237       -1.09957388471666
C            2.80900590662053        2.14862736187657       -1.19466514564429
C            3.39790198966911        1.66681913034780       -0.04588426592488
C            5.63428655710940        0.66923238462004       -0.66857498091100
C            6.51473945801525        1.71318489186216       -0.64736840032364
C            7.66915726213931        1.63703227830497       -1.43496463234979
C            7.92037804815215        0.51093052819272       -2.22720165931059
C            7.04836225688390       -0.54737159782903       -2.26265597306717
C            5.87210258258828       -0.48837596019992       -1.47882884045615
C            1.08461761967974       -4.84645795879544       -0.53637667228422
H           -0.13661673199782       -6.57315400163508       -0.32501368817788
H           -2.12382501617563       -5.31393063092161        0.41879274692595
H           -2.80775264058836       -3.98206484607837        2.34160999226119
H           -4.78297826504054       -2.71949948234911        3.09892714144399
H           -2.10368937661595       -1.12617859677811       -0.76977384977758
H           -2.70085269229549        1.85408376252960        1.82357160393957
H           -1.19773395799167        3.73227007746307        1.24379268304857
H           -1.06935585377300        4.55988945338975       -1.06376500474777
H           -2.40499022161179        3.51046326128280       -2.85297297889226
H           -4.00173520384236        2.06122330417662       -4.33373484725210
H           -5.61605041387760        0.44257694826710       -5.26841190275586
H           -6.70168407418636       -1.21555354596948       -3.82478269964726
H           -6.20232143456641       -1.29437662420592       -1.40091117374333
H           -6.34252675820482        2.58404428185007        0.07692141934996
H           -8.14505958634698        2.64752614113472        1.77364394698785
H           -8.33405151091007        0.87672939945772        3.45909250886177
H           -6.72747231006920       -0.99860884724389        3.50094726802057
H            0.06561095501890       -1.66817487109016        0.12518131626864
H            3.20382274883665       -4.27834677168668       -2.00029137686576
H            5.26322713223600       -3.10842369994660       -2.56100388871014
H            1.98484058286070       -1.00762659450610        0.57200644348180
H            5.91373160696717       -1.16812959367634        1.84894975796185
H            6.08922380614069       -0.82529659441440        4.29458505653951
H            4.88782574556379        1.01247226927260        5.38575368431010
H            3.47608071148923        2.55199058573681        4.06835465255525
H            2.16807848520834        3.87436654497316        2.23204343914031
H            1.13694902848033        4.75705160091812        0.17105169300010
H            1.51684299365749        3.65562592698156       -1.98927413843058
H            2.98700558004288        1.67149137181933       -2.14753659099017
H            6.32843828358247        2.58309809812730       -0.03396220218460
H            8.37483968690690        2.45331558109829       -1.42890054851618
H            8.82243157823994        0.48237976201175       -2.82173869187673
H            7.24398418978198       -1.41337682402829       -2.87660170243499
H            1.94521820306679       -5.42379418338371       -0.83460139000336

 projected vibrational frequencies (cm⁻¹)
eigval :       -0.00    -0.00    -0.00     0.00     0.00     0.00
eigval :        5.93    18.21    21.02    21.89    25.89    30.87
eigval :       42.83    43.47    48.02    53.67    57.02    69.15
eigval :       82.25    86.93    90.27   100.64   119.64   123.97
eigval :      132.96   137.20   145.96   154.37   184.29   188.04
eigval :      204.12   209.55   221.21   223.06   233.32   246.54
eigval :      252.32   254.66   273.28   282.54   290.13   298.10
eigval :      327.09   343.59   346.77   357.30   384.51   386.93
eigval :      387.55   404.26   410.18   414.38   414.67   415.64
eigval :      435.91   439.50   448.50   453.14   454.81   460.35
eigval :      464.76   473.55   485.43   501.22   503.27   507.48
eigval :      518.85   524.31   538.92   539.79   554.58   565.34
eigval :      578.54   585.20   589.13   592.39   597.78   604.01
eigval :      605.95   624.01   634.21   634.81   644.10   657.72
eigval :      662.50   681.76   683.39   687.93   689.97   694.90
eigval :      706.55   709.09   726.21   729.22   736.60   739.40
eigval :      753.12   754.49   755.49   761.94   765.56   775.27
eigval :      776.04   783.57   784.23   786.63   822.55   826.99
eigval :      831.08   839.33   844.53   856.60   877.57   878.15
eigval :      878.42   878.87   879.58   886.06   887.14   894.15
eigval :      899.79   900.33   902.72   903.40   907.43   909.71
eigval :      910.39   910.95   911.29   913.39   913.86   916.77
eigval :      924.19   925.32   926.67   927.17   927.52   927.75
eigval :      940.84   965.49   980.90  1007.45  1009.00  1009.18
eigval :     1019.30  1050.00  1062.66  1073.85  1074.11  1074.43
eigval :     1077.25  1079.14  1079.30  1085.98  1120.49  1127.79
eigval :     1134.19  1136.33  1143.58  1145.16  1153.80  1155.25
eigval :     1162.41  1171.68  1176.51  1177.94  1178.13  1178.80
eigval :     1181.56  1182.65  1191.70  1198.13  1202.43  1208.69
eigval :     1210.27  1224.79  1224.86  1226.98  1242.65  1246.96
eigval :     1248.25  1253.62  1259.22  1260.31  1263.02  1263.95
eigval :     1270.16  1285.48  1287.54  1295.35  1306.34  1323.92
eigval :     1328.04  1328.11  1328.81  1334.67  1337.35  1350.33
eigval :     1363.85  1366.56  1367.58  1372.50  1386.52  1400.66
eigval :     1419.43  1422.84  1428.24  1429.04  1429.23  1432.45
eigval :     1439.49  1452.59  1462.10  1462.73  1470.43  1471.38
eigval :     1473.02  1475.62  1493.74  1507.29  1537.60  1562.53
eigval :     1566.69  1573.68  1584.25  1585.70  1592.82  1594.15
eigval :     1595.27  1596.79  1601.57  1603.35  1603.95  1604.36
eigval :     1605.13  1636.39  3070.02  3072.46  3072.61  3072.64
eigval :     3072.74  3073.70  3074.60  3075.06  3075.74  3076.17
eigval :     3076.52  3076.96  3077.26  3077.47  3078.04  3078.64
eigval :     3083.26  3083.83  3083.94  3085.10  3086.08  3086.46
eigval :     3086.82  3088.54  3091.26  3091.66  3092.04  3093.06
eigval :     3093.39  3095.07  3095.57  3096.04  3096.90  3103.92

   temp. (K)  partition function   enthalpy   heat capacity  entropy
                                   cal/mol     cal/K/mol   cal/K/mol   J/K/mol
 298.15  VIB  0.104E+20            24963.878    162.082    153.750
         ROT  0.104E+09              888.752      2.981     39.673
         INT  0.109E+28            25852.631    165.063    193.423
         TR   0.182E+29             1481.254      4.968     45.527
         TOT                       27333.8846   170.0309   238.9497   999.7654

       T/K    H(0)-H(T)+PV         H(T)/Eh          T*S/Eh         G(T)/Eh
   ------------------------------------------------------------------------
    298.15    0.435593E-01    0.733592E+00    0.113533E+00    0.620060E+00
   ------------------------------------------------------------------------

         :::::::::::::::::::::::::::::::::::::::::::::::::::::
         ::                  THERMODYNAMIC                  ::
         :::::::::::::::::::::::::::::::::::::::::::::::::::::
         :: total free energy        -136.595014167266 Eh   ::
         ::.................................................::
         :: total energy             -137.215073921883 Eh   ::
         :: zero point energy           0.690033137619 Eh   ::
         :: G(RRHO) w/o ZPVE           -0.069973383002 Eh   ::
         :: G(RRHO) contrib.            0.620059754616 Eh   ::
         :::::::::::::::::::::::::::::::::::::::::::::::::::::

           -------------------------------------------------
          | TOTAL ENERGY             -137.215073921883 Eh   |
          | TOTAL ENTHALPY           -136.481481466441 Eh   |
          | TOTAL FREE ENERGY        -136.595014167266 Eh   |
          | GRADIENT NORM               0.000064474389 Eh/α |
           -------------------------------------------------

 * finished run on 2025/09/10 at 12:35:56.461
