   * xtb version 6.7.1 (edcfbbe) compiled by 'albert@albert-system' on 2024-07-22

   ID    Z sym.   atoms
    1    6 C      1, 3-6, 8-11, 13-26, 28-35, 37-40, 42-48, 50-57, 59-62
    2    8 O      2, 12, 27, 41, 49, 58
    3    7 N      7, 36
    4    1 H      63-104

          program call               : xtb data2507/gas/MPPA/MPPA_gas_S0_finalOpt.xtbopt.xyz --gfn 2 --spinpol --tblite --uhf 2 --ohess vtight --parallel 40 --molden --ceasefiles --namespace data2507/gas/MPPA/MPPA_gas_T1_preOpt
 * total energy  :  -167.2655737 Eh     change       -0.4218694E-07 Eh
 * total energy  :  -167.2680921 Eh     change       -0.2518420E-02 Eh
 * total energy  :  -167.2686699 Eh     change       -0.5777985E-03 Eh
 * total energy  :  -167.2687231 Eh     change       -0.5316903E-04 Eh
 * total energy  :  -167.2687639 Eh     change       -0.4078928E-04 Eh
 * total energy  :  -167.2687860 Eh     change       -0.2213560E-04 Eh
 * total energy  :  -167.2688166 Eh     change       -0.3059672E-04 Eh
 * total energy  :  -167.2688445 Eh     change       -0.2787495E-04 Eh
 * total energy  :  -167.2688798 Eh     change       -0.3530079E-04 Eh
 * total energy  :  -167.2688961 Eh     change       -0.1633576E-04 Eh
 * total energy  :  -167.2690086 Eh     change       -0.8896279E-07 Eh
 * total energy  :  -167.2690088 Eh     change       -0.2348609E-06 Eh
 * total energy  :  -167.2690092 Eh     change       -0.3287035E-06 Eh
 * total energy  :  -167.2690095 Eh     change       -0.3215022E-06 Eh
 * total energy  :  -167.2690098 Eh     change       -0.3574953E-06 Eh
 * total energy  :  -167.2690104 Eh     change       -0.5380156E-06 Eh
 * total energy  :  -167.2690109 Eh     change       -0.4906391E-06 Eh
 * total energy  :  -167.2690111 Eh     change       -0.2054183E-06 Eh
 * total energy  :  -167.2690112 Eh     change       -0.9867608E-07 Eh
   *** GEOMETRY OPTIMIZATION CONVERGED AFTER 35 ITERATIONS ***

 final structure:
================
104
 xtb: 6.7.1 (edcfbbe)
C           12.49399457157378        5.48245730375092       -0.36137564816312
O           12.75877964931359        4.25640935939009        0.27605837179001
C           11.85160595667484        3.25001440522325        0.15565044058952
C           10.66303985620283        3.32366672842796       -0.56444826018106
C            9.81520369921450        2.23366320351800       -0.61965582546419
C           10.12461722247514        1.04925971987409        0.04510068710895
N            9.25929473321401       -0.04694741255485       -0.01040191920463
C            9.77886184702118       -1.34389142993898       -0.06453178028094
C            9.14557922916238       -2.39159719932433        0.60013600105073
C            9.64883755910085       -3.67736891089729        0.54470442544122
C           10.80959733350833       -3.94426080246837       -0.17531273314669
O           11.39320917830397       -5.16655821947172       -0.29580728242039
C           10.78661311218902       -6.26834337040863        0.33553559516657
C           11.45009944610213       -2.89356084158552       -0.83822421777875
C           10.94357402133341       -1.61617660439970       -0.78759096797979
C            7.87667476177156        0.15142187645251       -0.01008744875788
C            7.03911446336762       -0.67689199027398       -0.76062672695548
C            5.67572657078045       -0.48374413488459       -0.75142118233704
C            5.09705577660665        0.54522017234608       -0.00484569413311
C            3.64696968556158        0.74428330190320        0.00101225643404
C            3.09234666783864        2.03908240164461        0.02705015651293
C            1.73530554739314        2.21583794280834        0.03740292020263
C            0.85899645751315        1.11815306792218        0.02295038092413
C            1.40191067312704       -0.17958822345074        0.01053540464156
C            2.79056861278775       -0.34101753929164       -0.00815895261998
C            0.56851320248400       -1.37398361043107        0.01335682252434
O            1.04840148952948       -2.51930673142348        0.00457697535917
C           -0.86051172030479       -1.12475711041097        0.01589356561881
C           -1.73700160668906       -2.22233509487915        0.00370204598360
C           -3.09402676570387       -2.04543453129908        0.01153513899487
C           -3.64889594174463       -0.75052087978428        0.03125754574312
C           -5.09886349608986       -0.55090295923760        0.02902038184596
C           -5.68063356371311        0.48775025024063        0.75978909248389
C           -7.04368005379143        0.68348310656489        0.75776570442720
C           -7.87792391158880       -0.15293611086931        0.01267514780044
N           -9.26022928446749        0.04882738805881        0.00072593159812
C           -9.77581346481028        1.34813193579144        0.02427883183490
C          -10.94616040950883        1.63902734351988        0.73083558123823
C          -11.44891719133691        2.91876089053273        0.75023050936812
C          -10.79895815068287        3.95348439766103        0.07156639461749
O          -11.38004054850103        5.17968709795564        0.16056138310323
C          -10.76487731231021        6.26583953912512       -0.48931392429207
C           -9.63213582886684        3.66823227818711       -0.63140479606836
C           -9.13261971272938        2.38006058973641       -0.65546370531559
C          -10.12739150593245       -1.04640519902275       -0.03937358825173
C           -9.82322706778629       -2.21894024984882        0.64851794042851
C          -10.67267116757321       -3.30836564263488        0.60931869625885
C          -11.85760577229008       -3.24605679234966       -0.11780249439503
O          -12.76608595373287       -4.25290437950858       -0.22381103758877
C          -12.50694017148511       -5.46710096018127        0.43814938213429
C          -12.16741422232815       -2.06916058369016       -0.80508595533153
C          -11.31746060318789       -0.98883999703227       -0.77030558020224
C           -7.30420872970718       -1.19243105841457       -0.72217628329699
C           -5.94033133932551       -1.38615349387700       -0.70878054345838
C           -2.79210044261991        0.33456882091078        0.04008425627283
C           -1.40344635174874        0.17300316139266        0.02582436923869
C           -0.57006519898597        1.36736923770149        0.02470603027895
O           -1.04994671105775        2.51270426972003        0.03398930642140
C            5.94140362543742        1.37217611642783        0.73879842761748
C            7.30555822502326        1.17993427513809        0.74221510241907
C           11.31854688131109        0.98011039479459        0.76865638509467
C           12.16691437036931        2.06105596989174        0.81925562468765
H           12.42564638141521        5.36468487308176       -1.44766970620273
H           11.57303523784241        5.94022983258004        0.01378288000304
H           13.33856290563086        6.12672827328230       -0.12256016950315
H           10.38831820252154        4.22119581216983       -1.09528728668339
H            8.90185188146729        2.29852138738761       -1.19200434535848
H            8.25088442966946       -2.19512259473742        1.17174367094371
H            9.12969835942354       -4.45989742368840        1.07454970726663
H            9.77414508043774       -6.44127600265295       -0.04286851104205
H           10.75226143809842       -6.14046080130417        1.42225520770066
H           11.41194320578350       -7.12642291472922        0.09457119279894
H           12.34528614541005       -3.11219440900599       -1.39807065490386
H           11.44106715586170       -0.81676368730960       -1.31572164754756
H            7.47228383884752       -1.46397584333872       -1.36032877191900
H            5.04585822888644       -1.12048192266335       -1.35381186707184
H            3.74681210259042        2.89826719779782        0.00946603070022
H            1.29571155443152        3.20274159604534        0.04614248939896
H            3.17112447951390       -1.35218993514626        0.00011357126802
H           -1.29759315577777       -3.20934534572227       -0.00172312871274
H           -3.74822962708325       -2.90475088331866        0.03124598879429
H           -5.05373478761818        1.13090193167291        1.35840663865959
H           -7.47933159639100        1.47924438020579        1.34409317753514
H          -11.45117871704763        0.85232372971475        1.27077111324535
H          -12.34858692819079        3.15171147295866        1.29696551328783
H          -11.39039930226189        7.13043045773952       -0.27343138853110
H           -9.75560818477252        6.44494908295295       -0.10527839152253
H          -10.72058123284211        6.11372181551737       -1.57254975418650
H           -9.10532482648546        4.43803375745735       -1.17220434027185
H           -8.23314304324968        2.16911055648059       -1.21426090790310
H           -8.91273510804664       -2.27473143773156        1.22635086971895
H          -10.40209483678050       -4.19638149207162        1.15798500532292
H          -12.44373610462073       -5.32878434042330        1.52233259534470
H          -13.35161659836684       -6.11417251719346        0.20742587263591
H          -11.58505952223468       -5.93371215065980        0.07638438303270
H          -13.08489223006140       -2.03360425058326       -1.37035941033579
H          -11.56316127862137       -0.09072162554075       -1.31655638661747
H           -7.93862904432678       -1.83498616525314       -1.31522532973581
H           -5.51399391528175       -2.17849237217879       -1.30564086532585
H           -3.17201796898520        1.34592394603459        0.02783327327251
H            5.51715812764734        2.15650505570952        1.34765469134561
H            7.94233207024746        1.81546243827598        1.34027149677737
H           11.56852751039784        0.07231450722237        1.29667188842666
H           13.08733011721275        2.01657854455895        1.37909361698209

 projected vibrational frequencies (cm⁻¹)
eigval :       -0.00    -0.00    -0.00    -0.00     0.00     0.00
eigval :        5.65     6.06     9.03    14.15    18.26    24.29
eigval :       28.53    30.42    31.85    35.47    35.65    42.36
eigval :       52.18    56.47    60.96    61.65    67.87    77.95
eigval :       79.66    98.48    99.99   105.81   108.97   116.93
eigval :      116.96   130.42   139.72   148.33   156.59   158.29
eigval :      165.61   169.05   174.37   181.62   192.52   192.67
eigval :      210.21   213.80   229.53   232.69   232.92   233.45
eigval :      237.18   252.22   269.42   279.49   288.78   300.01
eigval :      306.12   314.57   316.83   337.55   339.70   350.14
eigval :      351.36   363.43   363.92   378.25   381.21   381.36
eigval :      385.15   387.21   390.31   392.33   392.97   403.90
eigval :      405.32   418.63   423.82   431.81   438.69   448.91
eigval :      462.42   463.42   466.47   470.35   472.13   496.21
eigval :      500.02   504.67   504.99   510.06   516.64   538.07
eigval :      540.47   549.37   563.94   572.59   588.02   601.05
eigval :      604.46   609.53   610.14   612.11   615.41   619.77
eigval :      626.63   632.88   637.51   649.88   665.29   667.62
eigval :      668.47   670.43   672.16   681.90   692.42   694.88
eigval :      702.81   724.38   735.79   782.54   782.57   803.07
eigval :      805.55   805.98   806.30   810.78   812.62   813.53
eigval :      815.90   831.47   833.38   847.57   858.11   858.18
eigval :      859.85   860.33   866.80   867.09   888.40   888.91
eigval :      902.03   902.19   902.47   902.87   906.48   914.91
eigval :      915.10   917.36   917.41   919.52   919.65   920.68
eigval :      920.83   924.55   928.29   929.11   929.69   929.71
eigval :      942.90   965.81  1000.40  1001.47  1018.96  1019.00
eigval :     1019.02  1020.91  1064.10  1064.14  1064.58  1064.59
eigval :     1074.00  1076.24  1094.95  1120.89  1120.92  1121.23
eigval :     1121.24  1128.66  1128.68  1130.89  1130.95  1136.29
eigval :     1141.07  1143.90  1157.39  1157.40  1157.67  1158.04
eigval :     1166.03  1180.82  1183.91  1187.94  1188.01  1188.29
eigval :     1188.33  1189.86  1194.45  1203.88  1205.49  1220.92
eigval :     1227.76  1234.88  1235.01  1252.42  1253.35  1258.21
eigval :     1266.50  1266.55  1270.31  1270.40  1272.29  1272.42
eigval :     1279.75  1294.77  1314.84  1314.99  1319.06  1320.21
eigval :     1320.99  1322.66  1337.22  1338.02  1340.33  1340.37
eigval :     1363.86  1367.39  1377.73  1381.23  1401.58  1401.61
eigval :     1401.79  1401.90  1410.31  1410.42  1421.55  1421.73
eigval :     1424.74  1425.34  1431.02  1444.62  1470.56  1470.93
eigval :     1470.98  1471.10  1471.16  1471.18  1473.14  1474.66
eigval :     1475.99  1483.08  1483.29  1483.60  1483.61  1485.82
eigval :     1487.12  1511.33  1527.08  1542.02  1546.35  1548.14
eigval :     1556.14  1558.53  1558.78  1563.18  1563.43  1567.29
eigval :     1587.48  1589.70  1596.57  1596.64  1600.20  1602.72
eigval :     2932.36  2932.36  2933.58  2933.61  2946.24  2946.27
eigval :     2947.39  2947.42  3028.98  3029.02  3029.10  3029.15
eigval :     3075.18  3075.29  3079.71  3079.72  3082.05  3082.14
eigval :     3085.74  3085.94  3088.19  3088.33  3089.20  3089.22
eigval :     3090.26  3090.29  3091.35  3091.37  3092.78  3093.04
eigval :     3093.21  3093.29  3097.19  3097.46  3107.93  3108.05
eigval :     3109.42  3109.50  3111.85  3111.99  3112.10  3112.27

   temp. (K)  partition function   enthalpy   heat capacity  entropy
                                   cal/mol     cal/K/mol   cal/K/mol   J/K/mol
 298.15  VIB  0.139E+28            32550.196    195.724    206.522
         ROT  0.403E+09              888.752      2.981     42.359
         INT  0.562E+36            33438.948    198.705    248.881
         TR   0.225E+29             1481.254      4.968     45.951
         TOT                       34920.2018   203.6735   294.8316  1233.5754

       T/K    H(0)-H(T)+PV         H(T)/Eh          T*S/Eh         G(T)/Eh
   ------------------------------------------------------------------------
    298.15    0.556489E-01    0.852713E+00    0.140084E+00    0.712629E+00
   ------------------------------------------------------------------------

         :::::::::::::::::::::::::::::::::::::::::::::::::::::
         ::                  THERMODYNAMIC                  ::
         :::::::::::::::::::::::::::::::::::::::::::::::::::::
         :: total free energy        -166.556381743821 Eh   ::
         ::.................................................::
         :: total energy             -167.269011165603 Eh   ::
         :: zero point energy           0.797064548183 Eh   ::
         :: G(RRHO) w/o ZPVE           -0.084435126401 Eh   ::
         :: G(RRHO) contrib.            0.712629421781 Eh   ::
         :::::::::::::::::::::::::::::::::::::::::::::::::::::

           -------------------------------------------------
          | TOTAL ENERGY             -167.269011165603 Eh   |
          | TOTAL ENTHALPY           -166.416297733570 Eh   |
          | TOTAL FREE ENERGY        -166.556381743821 Eh   |
          | GRADIENT NORM               0.000053637683 Eh/α |
           -------------------------------------------------

 * finished run on 2025/07/17 at 03:39:14.415
