   * xtb version 6.7.1 (edcfbbe) compiled by 'albert@albert-system' on 2024-07-22

   ID    Z sym.   atoms
    1    6 C      1, 3-6, 8-11, 13-26, 28-35, 37-40, 42-48, 50-57, 59-62
    2    8 O      2, 12, 27, 41, 49, 58
    3    7 N      7, 36
    4    1 H      63-104

          program call               : xtb data2507/gas/MPPA/MPPA_gas_S0_crest.xyz --gfn 2 --ohess vtight --parallel 40 --molden --ceasefiles --namespace data2507/gas/MPPA/MPPA_gas_S0_finalOpt
          :  Hamiltonian                  GFN2-xTB          :
 * total energy  :  -167.3183308 Eh     change       -0.3129855E-08 Eh
 * total energy  :  -167.3183316 Eh     change       -0.8366016E-06 Eh
 * total energy  :  -167.3183327 Eh     change       -0.1053953E-05 Eh
 * total energy  :  -167.3183346 Eh     change       -0.1879101E-05 Eh
 * total energy  :  -167.3183369 Eh     change       -0.2328940E-05 Eh
 * total energy  :  -167.3183384 Eh     change       -0.1498932E-05 Eh
 * total energy  :  -167.3183393 Eh     change       -0.8922453E-06 Eh
 * total energy  :  -167.3183402 Eh     change       -0.8962048E-06 Eh
 * total energy  :  -167.3183417 Eh     change       -0.1480226E-05 Eh
 * total energy  :  -167.3183436 Eh     change       -0.1931941E-05 Eh
 * total energy  :  -167.3183487 Eh     change       -0.1416492E-05 Eh
 * total energy  :  -167.3183505 Eh     change       -0.1782806E-05 Eh
 * total energy  :  -167.3183521 Eh     change       -0.1636655E-05 Eh
 * total energy  :  -167.3183534 Eh     change       -0.1224628E-05 Eh
 * total energy  :  -167.3183544 Eh     change       -0.1011176E-05 Eh
 * total energy  :  -167.3183554 Eh     change       -0.1068146E-05 Eh
 * total energy  :  -167.3183567 Eh     change       -0.1247074E-05 Eh
 * total energy  :  -167.3183582 Eh     change       -0.1464933E-05 Eh
 * total energy  :  -167.3183582 Eh     change       -0.4096421E-08 Eh
   *** GEOMETRY OPTIMIZATION CONVERGED AFTER 22 ITERATIONS ***

 final structure:
================
104
 xtb: 6.7.1 (edcfbbe)
C           12.65144250995243        5.42374727861778       -0.32825307714971
O           12.85976282784578        4.20847781494729        0.34742373647305
C           11.93135063085400        3.21937385408739        0.20822034513011
C           10.77109102952931        3.31145617140531       -0.55215417721026
C            9.90111548310076        2.23837086498990       -0.62543914525192
C           10.15908026764413        1.05870245354354        0.06481015710861
N            9.27754231188414       -0.02985257488203       -0.01482277199063
C            9.80781056029654       -1.32778834895305       -0.08812704124166
C            9.21942199002825       -2.37817345154363        0.60816672702328
C            9.73784713286616       -3.65857594525561        0.53708051278875
C           10.87159079296937       -3.91154206985675       -0.22697161689592
O           11.46842313656185       -5.12938841943554       -0.36623158898072
C           10.90697516904021       -6.23148149850452        0.30287029127715
C           11.47042778246858       -2.85613197775938       -0.91779487005346
C           10.94552993625524       -1.58556657329569       -0.85413276334253
C            7.90357092609823        0.16923719248306       -0.01892357480575
C            7.05702291311262       -0.70028008757091       -0.71373004307541
C            5.69385457747184       -0.51057451126017       -0.70363453318387
C            5.11868425648815        0.56108762940432       -0.01772349470614
C            3.66927796336373        0.75922246708973       -0.01444149720025
C            3.11424794953327        2.04227270347040       -0.04554116350827
C            1.74735030086766        2.21821471960349       -0.04395667229735
C            0.88154503365116        1.12559201029314       -0.00866712861317
C            1.42476154478036       -0.16650316602160        0.02547701215805
C            2.80276115653559       -0.33190930674067        0.02061980986382
C            0.56890849635236       -1.37338207177599        0.06991797967769
O            1.04235560021449       -2.49674403276573        0.10211125115982
C           -0.88417521717543       -1.13470828981730        0.06946763310846
C           -1.75034333797737       -2.22695057073958        0.10765478316160
C           -3.11722950772945       -2.05084741930963        0.10546543973425
C           -3.67244048034066       -0.76800859652486        0.06522551609792
C           -5.12167950124046       -0.56907051313025        0.05697717516127
C           -5.70081537743027        0.51467339146447        0.72049394065687
C           -7.06346579399094        0.70807686016704        0.71424980334354
C           -7.90568676858590       -0.17119004186320        0.02662293140678
N           -9.27900303065776        0.03243590575543        0.00487983296648
C           -9.80409782069730        1.33399254627398        0.03736462090425
C          -10.95048436800558        1.61717669545070        0.78116590010377
C          -11.47080894880627        2.89103699458334        0.80294842189941
C          -10.85876000952949        3.92468985212270        0.09112247145174
O          -11.45295232020519        5.14794936769544        0.18794905817511
C          -10.88010950653532        6.22824774565464       -0.50655601675949
C           -9.71566760177287        3.64664975337072       -0.64992420836807
C           -9.20168521381167        2.36283563949894       -0.67887391660706
C          -10.16292873452799       -1.05519957203495       -0.05587718504412
C           -9.91304634993931       -2.21843642952600        0.66462560567910
C          -10.78477592683170       -3.29120484507118        0.61036401128489
C          -11.93867371061338       -3.21521094971247       -0.16137384316755
O          -12.86792967293815       -4.20569572201852       -0.28442080074920
C          -12.66495015475355       -5.40664874622352        0.41793730928486
C          -12.19587141466374       -2.04529810722575       -0.87886510204782
C          -11.32124697358473       -0.98401835391873       -0.83153821838517
C           -7.33008194786036       -1.25616199766933       -0.64124956775303
C           -5.96734633712752       -1.45136545937173       -0.61804728632854
C           -2.80530240717043        0.32273372954006        0.02977649790184
C           -1.42736239127966        0.15725254668011        0.03116818977471
C           -0.57153151922878        1.36420057159618       -0.01025980775264
O           -1.04501179937125        2.48758334113279       -0.04143046962538
C            5.96808338167217        1.43350392661996        0.66512764149212
C            7.33130563657159        1.24039876349126        0.67382148179656
C           11.32370843562426        0.97139619794859        0.82928501055494
C           12.19659644425273        2.03310089181684        0.89527830474145
H           12.61612648299324        5.28071689652184       -1.41333505152871
H           11.73160995734736        5.91686360949072        0.00326108976886
H           13.50530119648766        6.05092254353528       -0.07676560741638
H           10.53437256792066        4.20874653600564       -1.10176170017676
H            9.00928424267069        2.31728617638030       -1.22959086556944
H            8.34464071168613       -2.19178679661878        1.21353608429484
H            9.25080203057800       -4.44586312957265        1.09023026606363
H            9.88160947902201       -6.42475085404761       -0.02912015414069
H           10.91692814056270       -6.09149726605905        1.38885133438591
H           11.53425103682652       -7.08342382477520        0.04527307664836
H           12.34843721079494       -3.06345959826685       -1.50841496754169
H           11.41374192666011       -0.77941709341040       -1.39874131742995
H            7.48378177675471       -1.52191423073165       -1.26951051987854
H            5.06346892318218       -1.18288457508647       -1.26607985816918
H            3.76466938019758        2.90305052807810       -0.09361209887858
H            1.31452852965760        3.20747706080241       -0.07485738009730
H            3.18866858795949       -1.33974001209702        0.06773996990284
H           -1.31784583359267       -3.21620059431423        0.14328541295267
H           -3.76737314396236       -2.91163793421678        0.15644518540749
H           -5.07442955150607        1.19470762003687        1.27803198292256
H           -7.49348843653506        1.54049925878766        1.25118404562293
H          -11.42924766135129        0.82811825831431        1.34139825027532
H          -12.35565819999202        3.11786925840697        1.37592922750423
H          -11.50847471277496        7.08889950491280       -0.28278647704207
H           -9.85860639100409        6.42922282874212       -0.16731746445784
H          -10.87645656561956        6.05569660633872       -1.58788544907646
H           -9.21784871341077        4.41662299554557       -1.21766127321029
H           -8.31959298252105        2.15664867568670       -1.26697422449584
H           -9.02617819682071       -2.28449653927795        1.27756772685274
H          -10.55454428081934       -4.17530838659365        1.18358768654482
H          -12.63993701488710       -5.24146126495966        1.50016102914270
H          -13.51586088757340       -6.03974430937588        0.17134361221505
H          -11.74160722676528       -5.90543237818062        0.10519689694770
H          -13.09243335400543       -1.99760585862433       -1.47603546651192
H          -11.52862129009813       -0.08743828877843       -1.39610216229230
H           -7.96425483707909       -1.93593114277458       -1.19089016043763
H           -5.54543171456684       -2.28011780806212       -1.16727489823805
H           -3.19027862149434        1.33062051225393       -0.02276153548619
H            5.54889417258683        2.25224440887287        1.23126307128821
H            7.96859393978199        1.91162375819203        1.23028180089265
H           11.53739587884721        0.06181490017908        1.37020842194809
H           13.09800300384721        1.97298753132132        1.48396953963151

          :  Hamiltonian                  GFN2-xTB          :
         :: gradient norm              0.000046901565 Eh/a0 ::
         :: HOMO-LUMO gap              0.874030697315 eV    ::
         :: SCC energy              -170.034841031537 Eh    ::
         :: -> dispersion             -0.134555579067 Eh    ::
         :: repulsion energy           2.716482873358 Eh    ::

    * Orbital Energies and Occupations

         #    Occupation            Energy/Eh            Energy/eV
      -------------------------------------------------------------
         1        2.0000           -0.7168527             -19.5066
       ...           ...                  ...                  ...
       140        2.0000           -0.4104485             -11.1689
       141        2.0000           -0.4080628             -11.1040
       142        2.0000           -0.4079220             -11.1001
       143        2.0000           -0.4076975             -11.0940
       144        2.0000           -0.4076383             -11.0924
       145        2.0000           -0.3964157             -10.7870
       146        2.0000           -0.3908476             -10.6355
       147        2.0000           -0.3899184             -10.6102
       148        2.0000           -0.3845590             -10.4644
       149        2.0000           -0.3845164             -10.4632
       150        2.0000           -0.3785491             -10.3008
       151        2.0000           -0.3443798              -9.3711
       152        2.0000           -0.3442702              -9.3681 (HOMO)
       153        0.0000           -0.3121502              -8.4940 (LUMO)
       154                         -0.2695293              -7.3343
       155                         -0.2485783              -6.7642
       156                         -0.2434177              -6.6237
       157                         -0.2302431              -6.2652
       158                         -0.2302170              -6.2645
       159                         -0.2251597              -6.1269
       160                         -0.2250565              -6.1241
       161                         -0.2236756              -6.0865
       162                         -0.2236336              -6.0854
       163                         -0.2231472              -6.0721
       ...                                ...                  ...
       290                          0.7422632              20.1980
      -------------------------------------------------------------
                  HL-Gap            0.0321200 Eh            0.8740 eV

     #   Z          covCN         q      C6AA      α(0)
     1   6 C        3.644     0.038    20.266     6.471
     2   8 O        1.705    -0.271    18.485     5.805
     3   6 C        2.865     0.137    24.998     8.196
     4   6 C        2.917    -0.066    29.655     8.930
     5   6 C        2.923    -0.049    29.208     8.863
     6   6 C        2.923     0.053    26.808     8.491
     7   7 N        2.752    -0.068    22.551     7.053
     8   6 C        2.924     0.053    26.814     8.492
     9   6 C        2.923    -0.048    29.194     8.861
    10   6 C        2.917    -0.066    29.648     8.929
    11   6 C        2.865     0.138    24.990     8.194
    12   8 O        1.705    -0.270    18.480     5.804
    13   6 C        3.644     0.038    20.271     6.471
    14   6 C        2.920    -0.054    29.343     8.883
    15   6 C        2.922    -0.046    29.146     8.853
    16   6 C        2.922     0.066    26.533     8.447
    17   6 C        2.920    -0.050    29.245     8.868
    18   6 C        2.924    -0.032    28.806     8.802
    19   6 C        2.976    -0.002    28.062     8.689
    20   6 C        2.974     0.020    27.558     8.611
    21   6 C        2.922    -0.031    28.765     8.795
    22   6 C        2.921    -0.018    28.466     8.749
    23   6 C        2.974    -0.019    28.487     8.755
    24   6 C        2.973    -0.015    28.382     8.739
    25   6 C        2.930    -0.024    28.608     8.772
    26   6 C        2.830     0.222    23.327     7.914
    27   8 O        0.858    -0.379    21.260     6.182
    28   6 C        2.974    -0.019    28.486     8.755
    29   6 C        2.921    -0.018    28.467     8.749
    30   6 C        2.922    -0.031    28.765     8.795
    31   6 C        2.974     0.020    27.559     8.611
    32   6 C        2.976    -0.002    28.060     8.689
    33   6 C        2.924    -0.032    28.807     8.802
    34   6 C        2.920    -0.050    29.242     8.868
    35   6 C        2.923     0.066    26.533     8.447
    36   7 N        2.752    -0.068    22.552     7.053
    37   6 C        2.924     0.053    26.814     8.492
    38   6 C        2.922    -0.046    29.147     8.853
    39   6 C        2.920    -0.054    29.343     8.883
    40   6 C        2.865     0.138    24.990     8.194
    41   8 O        1.705    -0.270    18.481     5.804
    42   6 C        3.644     0.038    20.271     6.471
    43   6 C        2.917    -0.066    29.647     8.929
    44   6 C        2.923    -0.048    29.196     8.861
    45   6 C        2.923     0.053    26.808     8.491
    46   6 C        2.923    -0.049    29.209     8.863
    47   6 C        2.917    -0.066    29.655     8.930
    48   6 C        2.865     0.137    24.999     8.196
    49   8 O        1.705    -0.271    18.486     5.805
    50   6 C        3.644     0.038    20.265     6.471
    51   6 C        2.920    -0.054    29.340     8.883
    52   6 C        2.922    -0.046    29.150     8.854
    53   6 C        2.920    -0.051    29.260     8.871
    54   6 C        2.923    -0.033    28.822     8.804
    55   6 C        2.930    -0.024    28.609     8.772
    56   6 C        2.973    -0.015    28.383     8.739
    57   6 C        2.831     0.222    23.327     7.914
    58   8 O        0.858    -0.379    21.261     6.182
    59   6 C        2.923    -0.033    28.822     8.804
    60   6 C        2.920    -0.051    29.264     8.871
    61   6 C        2.922    -0.046    29.148     8.854
    62   6 C        2.920    -0.054    29.340     8.883
    63   1 H        0.924     0.039     2.457     2.451
    64   1 H        0.924     0.039     2.457     2.451
    65   1 H        0.925     0.062     2.180     2.309
    66   1 H        0.926     0.037     2.486     2.466
    67   1 H        0.926     0.037     2.485     2.465
    68   1 H        0.926     0.038     2.470     2.458
    69   1 H        0.926     0.038     2.470     2.458
    70   1 H        0.924     0.040     2.446     2.446
    71   1 H        0.924     0.040     2.454     2.450
    72   1 H        0.925     0.062     2.180     2.309
    73   1 H        0.926     0.051     2.308     2.376
    74   1 H        0.926     0.040     2.450     2.448
    75   1 H        0.926     0.035     2.517     2.481
    76   1 H        0.926     0.039     2.459     2.452
    77   1 H        0.926     0.043     2.414     2.430
    78   1 H        0.926     0.062     2.173     2.305
    79   1 H        0.926     0.065     2.146     2.291
    80   1 H        0.926     0.062     2.173     2.305
    81   1 H        0.926     0.043     2.414     2.430
    82   1 H        0.926     0.039     2.456     2.451
    83   1 H        0.926     0.035     2.517     2.481
    84   1 H        0.926     0.040     2.449     2.447
    85   1 H        0.926     0.051     2.308     2.376
    86   1 H        0.925     0.062     2.180     2.309
    87   1 H        0.924     0.040     2.446     2.446
    88   1 H        0.924     0.040     2.455     2.450
    89   1 H        0.926     0.038     2.470     2.458
    90   1 H        0.926     0.038     2.472     2.459
    91   1 H        0.926     0.037     2.487     2.466
    92   1 H        0.926     0.037     2.487     2.466
    93   1 H        0.924     0.039     2.457     2.451
    94   1 H        0.925     0.062     2.180     2.309
    95   1 H        0.924     0.039     2.457     2.451
    96   1 H        0.926     0.051     2.308     2.375
    97   1 H        0.926     0.040     2.445     2.445
    98   1 H        0.926     0.034     2.535     2.490
    99   1 H        0.926     0.035     2.520     2.483
   100   1 H        0.926     0.065     2.145     2.290
   101   1 H        0.926     0.035     2.522     2.483
   102   1 H        0.926     0.034     2.535     2.490
   103   1 H        0.926     0.040     2.445     2.445
   104   1 H        0.926     0.051     2.307     2.375

molecular dipole:
                 x           y           z       tot (Debye)
 q only:        0.005      -0.001      -0.012
   full:        0.006      -0.002      -0.011       0.032

 projected vibrational frequencies (cm⁻¹)
eigval :       -0.00    -0.00    -0.00     0.00     0.00     0.00
eigval :        5.04     6.25     9.11    14.78    18.48    24.17
eigval :       27.83    28.14    31.14    35.51    35.55    41.87
eigval :       50.64    52.57    59.33    60.37    61.44    76.78
eigval :       78.18    96.03    97.74   104.76   105.66   112.90
eigval :      114.83   123.64   134.70   144.71   155.28   157.52
eigval :      159.09   164.70   173.27   181.85   191.65   191.95
eigval :      210.90   211.17   231.60   235.07   235.20   235.56
eigval :      238.26   249.68   264.94   281.40   287.73   297.80
eigval :      308.59   314.86   315.53   335.86   339.37   346.75
eigval :      347.30   367.24   371.41   380.46   383.08   385.11
eigval :      386.13   388.93   391.76   392.99   395.25   402.43
eigval :      408.35   409.94   423.34   429.38   433.05   448.29
eigval :      462.88   463.40   469.09   471.07   482.96   496.23
eigval :      499.86   505.33   505.98   508.47   521.95   538.86
eigval :      542.27   550.99   567.57   574.09   590.41   604.87
eigval :      606.10   611.44   611.59   614.42   620.50   623.49
eigval :      640.10   647.00   657.78   666.45   666.77   670.69
eigval :      673.98   674.61   680.07   681.88   693.29   705.10
eigval :      711.31   742.68   770.96   781.93   781.98   801.23
eigval :      804.07   804.55   804.59   812.56   813.66   815.54
eigval :      816.94   842.03   846.06   849.48   860.53   860.56
eigval :      860.84   860.90   867.90   868.12   895.84   897.58
eigval :      902.18   902.36   902.66   902.90   908.85   917.08
eigval :      917.11   918.96   919.03   919.79   919.97   926.40
eigval :      926.67   926.80   929.78   929.83   931.01   932.83
eigval :      945.62   977.06  1001.63  1003.63  1020.04  1020.87
eigval :     1020.88  1022.55  1065.81  1065.82  1066.13  1066.16
eigval :     1077.15  1080.44  1093.54  1122.55  1122.55  1122.75
eigval :     1122.76  1128.60  1128.63  1130.52  1130.57  1131.60
eigval :     1144.77  1145.99  1158.35  1158.35  1158.90  1158.91
eigval :     1175.38  1186.00  1186.64  1188.44  1189.77  1189.82
eigval :     1192.99  1193.08  1205.63  1206.01  1227.02  1230.44
eigval :     1230.51  1235.87  1249.25  1252.24  1257.82  1263.18
eigval :     1267.66  1267.75  1271.49  1271.57  1275.15  1275.37
eigval :     1300.41  1309.41  1314.84  1315.05  1323.82  1324.27
eigval :     1330.82  1332.26  1336.38  1342.03  1345.08  1345.39
eigval :     1348.21  1350.26  1397.20  1397.84  1402.40  1402.40
eigval :     1403.04  1403.06  1412.98  1413.25  1423.87  1423.96
eigval :     1425.40  1425.72  1461.61  1462.95  1472.46  1472.47
eigval :     1472.62  1472.63  1476.54  1476.64  1478.84  1479.83
eigval :     1486.24  1486.31  1486.79  1486.82  1500.18  1501.30
eigval :     1541.93  1545.37  1552.48  1556.09  1563.41  1566.36
eigval :     1566.39  1567.88  1571.32  1571.33  1599.25  1599.58
eigval :     1607.97  1607.99  1608.94  1608.97  1661.77  1675.95
eigval :     2928.05  2928.08  2929.05  2929.09  2942.78  2942.81
eigval :     2943.64  2943.67  3027.19  3027.19  3027.39  3027.40
eigval :     3078.43  3078.58  3083.09  3083.16  3083.65  3083.76
eigval :     3085.08  3085.10  3086.29  3086.32  3089.64  3089.67
eigval :     3091.28  3091.41  3091.56  3091.61  3092.13  3092.24
eigval :     3094.07  3094.20  3095.51  3095.65  3104.83  3104.84
eigval :     3106.25  3106.26  3110.54  3110.55  3110.81  3110.85

   temp. (K)  partition function   enthalpy   heat capacity  entropy
                                   cal/mol     cal/K/mol   cal/K/mol   J/K/mol
 298.15  VIB  0.249E+28            32537.157    194.631    207.017
         ROT  0.405E+09              888.752      2.981     42.369
         INT  0.101E+37            33425.909    197.612    249.386
         TR   0.225E+29             1481.254      4.968     45.951
         TOT                       34907.1632   202.5801   295.3366  1235.6885

       T/K    H(0)-H(T)+PV         H(T)/Eh          T*S/Eh         G(T)/Eh
   ------------------------------------------------------------------------
    298.15    0.556281E-01    0.855042E+00    0.140324E+00    0.714718E+00
   ------------------------------------------------------------------------

         :::::::::::::::::::::::::::::::::::::::::::::::::::::
         ::                  THERMODYNAMIC                  ::
         :::::::::::::::::::::::::::::::::::::::::::::::::::::
         :: total free energy        -166.603639879026 Eh   ::
         ::.................................................::
         :: total energy             -167.318358158178 Eh   ::
         :: zero point energy           0.799414137850 Eh   ::
         :: G(RRHO) w/o ZPVE           -0.084695858698 Eh   ::
         :: G(RRHO) contrib.            0.714718279152 Eh   ::
         :::::::::::::::::::::::::::::::::::::::::::::::::::::

           -------------------------------------------------
          | TOTAL ENERGY             -167.318358158178 Eh   |
          | TOTAL ENTHALPY           -166.463315914936 Eh   |
          | TOTAL FREE ENERGY        -166.603639879026 Eh   |
          | GRADIENT NORM               0.000046917498 Eh/α |
          | HOMO-LUMO GAP               0.874030020326 eV   |
           -------------------------------------------------

 * finished run on 2025/07/17 at 03:38:54.695
