   * xtb version 6.7.1 (edcfbbe) compiled by 'albert@albert-system' on 2024-07-22

   ID    Z sym.   atoms
    1    6 C      1, 3-6, 8-11, 13-26, 28-35, 37-40, 42-48, 50-57, 59-62
    2    8 O      2, 12, 27, 41, 49, 58
    3    7 N      7, 36
    4    1 H      63-104

          program call               : xtb data2507/gas/MPPA/MPPA.xyz --gfn 2 --ohess vtight --parallel 40 --molden --ceasefiles --namespace data2507/gas/MPPA/MPPA_gas_S0_preOpt
          :  Hamiltonian                  GFN2-xTB          :
 * total energy  :  -167.2856948 Eh     change       -0.5642136E-08 Eh
 * total energy  :  -167.3013491 Eh     change       -0.1565440E-01 Eh
 * total energy  :  -167.3073131 Eh     change       -0.5963972E-02 Eh
 * total energy  :  -167.3094376 Eh     change       -0.2124456E-02 Eh
 * total energy  :  -167.3111253 Eh     change       -0.1687766E-02 Eh
 * total energy  :  -167.3120957 Eh     change       -0.9703604E-03 Eh
 * total energy  :  -167.3126138 Eh     change       -0.5180648E-03 Eh
 * total energy  :  -167.3129024 Eh     change       -0.2886320E-03 Eh
 * total energy  :  -167.3130860 Eh     change       -0.1836473E-03 Eh
 * total energy  :  -167.3132231 Eh     change       -0.1370387E-03 Eh
 * total energy  :  -167.3176644 Eh     change       -0.7750059E-06 Eh
 * total energy  :  -167.3176652 Eh     change       -0.7735591E-06 Eh
 * total energy  :  -167.3176660 Eh     change       -0.7713594E-06 Eh
 * total energy  :  -167.3176668 Eh     change       -0.7686111E-06 Eh
 * total energy  :  -167.3176675 Eh     change       -0.7666907E-06 Eh
 * total energy  :  -167.3176683 Eh     change       -0.7640149E-06 Eh
 * total energy  :  -167.3176690 Eh     change       -0.7624340E-06 Eh
 * total energy  :  -167.3176698 Eh     change       -0.7600195E-06 Eh
 * total energy  :  -167.3176698 Eh     change       -0.7246399E-08 Eh
   *** GEOMETRY OPTIMIZATION CONVERGED AFTER 580 ITERATIONS ***

 final structure:
================
104
 xtb: 6.7.1 (edcfbbe)
C           13.36620143861532       -2.37321070926948       -4.33429198977625
O           12.08968538154313       -2.78017280552921       -3.90890425047657
C           11.44641852522246       -2.02782551651333       -2.97012401334111
C           11.95086179486087       -0.87064251616928       -2.38794100910086
C           11.20635304829641       -0.18579122276531       -1.44415185575119
C            9.95256546003780       -0.64214041785602       -1.05170198386172
N            9.21166431831972        0.04482610735210       -0.07945114997949
C            9.87368818700596        0.61432859958844        1.01784923520651
C           10.94521013003589       -0.03720272120845        1.61906226783040
C           11.61442435454896        0.52956272957304        2.68907839028330
C           11.21423777706126        1.76340990030579        3.18912234647867
O           11.79734222093742        2.41350260769541        4.23707560368904
C           12.88875986930431        1.80414000600398        4.88027998431489
C           10.13486427164884        2.41678560169733        2.59127408649877
C            9.47842768968877        1.85573419133836        1.51998002344073
C            7.83038760382654        0.15941049207592       -0.20044045654641
C            7.23229787292057        0.29142513437970       -1.45629320578424
C            5.86525617842942        0.41702829388108       -1.57056914229978
C            5.04418214170196        0.39619454943052       -0.44304555213548
C            3.59016054568965        0.52455020004958       -0.56566055310059
C            3.02095012806401        1.42226406398182       -1.47276348850888
C            1.65169235345677        1.54863303094171       -1.57056734618284
C            0.80096637939259        0.77481001257341       -0.78213536736446
C            1.35987444303137       -0.14160410147684        0.11967409923025
C            2.74027623834588       -0.24737800055991        0.22299302563220
C            0.51849581266045       -1.01669052068632        0.96691970997003
O            1.00494655158969       -1.80323293998500        1.76142336669615
C           -0.93693843456593       -0.88150603018208        0.78837873975153
C           -1.78970651189700       -1.70821247041620        1.51888287908069
C           -3.15820436641989       -1.61173446671825        1.38813070542347
C           -3.73125782479410       -0.66996290822734        0.52684627585803
C           -5.18301584691188       -0.54925419171080        0.39338155985983
C           -5.76616939267240       -0.17901731739290       -0.82096463294208
C           -7.13143668868372       -0.06179429900531       -0.95024197173984
C           -7.97385572975756       -0.30706074068111        0.13788017781240
N           -9.35218289611242       -0.18292904240243        0.01183837568657
C          -10.20879608551975       -1.03053580473792        0.72874216013538
C           -9.89121036260117       -2.37877541014948        0.90439932376944
C          -10.73783710011547       -3.21040689091966        1.60073817397524
C          -11.93447187025473       -2.72728898971896        2.13388095228091
O          -12.70179720486592       -3.63921206424556        2.79696461813972
C          -13.92365856244829       -3.21366974957933        3.34701725119898
C          -12.25725179378203       -1.38679969779608        1.95626746284502
C          -11.39844962341547       -0.55041261177642        1.26581871109282
C           -9.89908971300741        0.79822282525396       -0.82873108261821
C           -9.32630943505561        2.06332687962305       -0.90865126884172
C           -9.86318216322602        3.03804442429102       -1.73015149453814
C          -10.99982263578938        2.76776797034709       -2.48368810625378
O          -11.61760712875936        3.65256876950766       -3.31740015789187
C          -11.07916930873498        4.94587759966874       -3.43951365541217
C          -11.57937704143610        1.50002915215382       -2.40142125591512
C          -11.03626750467347        0.52871984961109       -1.59172299964699
C           -7.39648371750283       -0.67720091641792        1.35564784949880
C           -6.03027297076422       -0.79661938715443        1.47593107645385
C           -2.87620854683315        0.15438533463011       -0.20355689062078
C           -1.49645753146337        0.05598355511802       -0.09104731534486
C           -0.65561184829464        0.94953593630985       -0.91860750211360
O           -1.14210835833777        1.77380724903133       -1.67390477909443
C            5.64411776081513        0.25178855509417        0.80833531994642
C            7.01161153059515        0.14528196369656        0.93187596885967
C            9.45194119051339       -1.80760772438830       -1.63531431778916
C           10.18515312881998       -2.48449636002668       -2.58274051723974
H           13.33817522700314       -1.38580564947108       -4.80697584366130
H           14.08169830655631       -2.35868156358537       -3.50531886873731
H           13.68229504826883       -3.11318800692831       -5.06794505994441
H           12.91935957362291       -0.48433721498462       -2.66372013675093
H           11.60523441212326        0.71604131484909       -1.00361913666664
H           11.26007101875982       -0.99964633050251        1.24358728910965
H           12.44100526040549       -0.00768411551338        3.12653337024650
H           12.60959697453194        0.84326635106259        5.32509830797007
H           13.18698631863762        2.49190188741721        5.67007277738902
H           13.72957609275386        1.65615707162476        4.19435646876650
H            9.83541145015138        3.37557976020262        2.98353429550188
H            8.65245391444840        2.37734406509083        1.06002270508865
H            7.85292675516809        0.30242731538609       -2.34008556966511
H            5.42263243439366        0.51180280705052       -2.55128708195358
H            3.66291051778455        2.03932644758812       -2.08407290888695
H            1.20610656549309        2.25196630583081       -2.25879873083554
H            3.14171796460428       -0.96908302709899        0.91950838832316
H           -1.34561932128892       -2.43226042968724        2.18629158513349
H           -3.79444551115802       -2.28426247019232        1.94375176942270
H           -5.14115034307567       -0.01417528703663       -1.68550701114035
H           -7.56363859865251        0.21038525594555       -1.90179905887896
H           -8.97564577095835       -2.76887383425023        0.48559239286258
H          -10.49962180416193       -4.25299699426300        1.73887849865112
H          -14.36036094354882       -4.09579122484585        3.81269884731067
H          -13.77578304102622       -2.44003090054649        4.10777678424047
H          -14.60410084439322       -2.83876318622338        2.57526637423607
H          -13.17094802290309       -0.97574346747573        2.35540164425536
H          -11.65680222707130        0.49057339992337        1.13967405687676
H           -8.44978318631681        2.28878463536625       -0.31929300169194
H           -9.38837777024240        4.00573676152140       -1.76399598166962
H          -11.08894880487021        5.47839562364969       -2.48268796687766
H          -10.05696813526690        4.92162144379932       -3.83116173166955
H          -11.72222247159129        5.46731903370886       -4.14678348794961
H          -12.45773854428146        1.29932955957375       -2.99390276162466
H          -11.48953805354148       -0.45000092954062       -1.54287288902491
H           -8.03275697172668       -0.85633552839906        2.20974991835341
H           -5.60963758041262       -1.04950620974192        2.43775213725955
H           -3.27081928208585        0.90934080109400       -0.86752775832963
H            5.02890747709140        0.24220463425011        1.69569878921588
H            7.46052147782835        0.04112779374034        1.90850807866707
H            8.48334795917267       -2.17908029304344       -1.33596764642455
H            9.80517135148162       -3.38594164499778       -3.03641525518763

          :  Hamiltonian                  GFN2-xTB          :
         :: gradient norm              0.000068830896 Eh/a0 ::
         :: HOMO-LUMO gap              0.858224147760 eV    ::
         :: SCC energy              -170.034080077407 Eh    ::
         :: -> dispersion             -0.134451637367 Eh    ::
         :: repulsion energy           2.716410265908 Eh    ::

    * Orbital Energies and Occupations

         #    Occupation            Energy/Eh            Energy/eV
      -------------------------------------------------------------
         1        2.0000           -0.7162494             -19.4901
       ...           ...                  ...                  ...
       140        2.0000           -0.4096849             -11.1481
       141        2.0000           -0.4082199             -11.1082
       142        2.0000           -0.4074407             -11.0870
       143        2.0000           -0.4068873             -11.0720
       144        2.0000           -0.4066823             -11.0664
       145        2.0000           -0.3959968             -10.7756
       146        2.0000           -0.3903818             -10.6228
       147        2.0000           -0.3893838             -10.5957
       148        2.0000           -0.3843938             -10.4599
       149        2.0000           -0.3843165             -10.4578
       150        2.0000           -0.3781142             -10.2890
       151        2.0000           -0.3439542              -9.3595
       152        2.0000           -0.3432507              -9.3403 (HOMO)
       153        0.0000           -0.3117115              -8.4821 (LUMO)
       154                         -0.2690755              -7.3219
       155                         -0.2482699              -6.7558
       156                         -0.2428227              -6.6075
       157                         -0.2297830              -6.2527
       158                         -0.2295046              -6.2451
       159                         -0.2251728              -6.1273
       160                         -0.2244281              -6.1070
       161                         -0.2235882              -6.0841
       162                         -0.2233749              -6.0783
       163                         -0.2226294              -6.0581
       ...                                ...                  ...
       290                          0.7429266              20.2161
      -------------------------------------------------------------
                  HL-Gap            0.0315392 Eh            0.8582 eV

     #   Z          covCN         q      C6AA      α(0)
     1   6 C        3.644     0.039    20.259     6.470
     2   8 O        1.705    -0.271    18.497     5.807
     3   6 C        2.865     0.137    25.012     8.198
     4   6 C        2.917    -0.067    29.656     8.930
     5   6 C        2.923    -0.049    29.228     8.866
     6   6 C        2.923     0.053    26.804     8.490
     7   7 N        2.752    -0.069    22.585     7.058
     8   6 C        2.923     0.053    26.803     8.490
     9   6 C        2.923    -0.049    29.221     8.865
    10   6 C        2.917    -0.066    29.653     8.930
    11   6 C        2.865     0.137    25.009     8.197
    12   8 O        1.705    -0.271    18.495     5.806
    13   6 C        3.644     0.039    20.261     6.470
    14   6 C        2.920    -0.054    29.345     8.883
    15   6 C        2.922    -0.047    29.157     8.855
    16   6 C        2.924     0.065    26.535     8.448
    17   6 C        2.920    -0.050    29.234     8.867
    18   6 C        2.923    -0.033    28.816     8.803
    19   6 C        2.976    -0.000    28.035     8.685
    20   6 C        2.974     0.020    27.545     8.609
    21   6 C        2.922    -0.030    28.749     8.793
    22   6 C        2.921    -0.018    28.461     8.749
    23   6 C        2.974    -0.019    28.473     8.753
    24   6 C        2.973    -0.015    28.373     8.737
    25   6 C        2.930    -0.024    28.597     8.770
    26   6 C        2.830     0.222    23.325     7.914
    27   8 O        0.858    -0.377    21.230     6.178
    28   6 C        2.974    -0.019    28.482     8.754
    29   6 C        2.921    -0.018    28.464     8.749
    30   6 C        2.922    -0.031    28.763     8.795
    31   6 C        2.973     0.020    27.560     8.611
    32   6 C        2.975    -0.001    28.045     8.687
    33   6 C        2.924    -0.032    28.807     8.802
    34   6 C        2.920    -0.049    29.224     8.865
    35   6 C        2.924     0.066    26.532     8.447
    36   7 N        2.752    -0.068    22.556     7.054
    37   6 C        2.923     0.053    26.807     8.491
    38   6 C        2.922    -0.046    29.154     8.855
    39   6 C        2.920    -0.054    29.346     8.883
    40   6 C        2.865     0.137    25.003     8.196
    41   8 O        1.705    -0.271    18.488     5.805
    42   6 C        3.644     0.038    20.265     6.470
    43   6 C        2.917    -0.066    29.649     8.929
    44   6 C        2.923    -0.049    29.219     8.864
    45   6 C        2.923     0.053    26.811     8.491
    46   6 C        2.923    -0.049    29.205     8.862
    47   6 C        2.917    -0.066    29.646     8.929
    48   6 C        2.865     0.137    24.998     8.196
    49   8 O        1.705    -0.271    18.489     5.805
    50   6 C        3.644     0.038    20.269     6.471
    51   6 C        2.920    -0.054    29.348     8.884
    52   6 C        2.922    -0.047    29.155     8.855
    53   6 C        2.920    -0.050    29.241     8.868
    54   6 C        2.924    -0.033    28.818     8.803
    55   6 C        2.930    -0.024    28.610     8.772
    56   6 C        2.973    -0.015    28.385     8.739
    57   6 C        2.831     0.223    23.320     7.913
    58   8 O        0.858    -0.378    21.243     6.179
    59   6 C        2.924    -0.032    28.799     8.801
    60   6 C        2.920    -0.049    29.213     8.863
    61   6 C        2.922    -0.047    29.158     8.855
    62   6 C        2.920    -0.054    29.344     8.883
    63   1 H        0.924     0.039     2.462     2.454
    64   1 H        0.924     0.039     2.466     2.456
    65   1 H        0.925     0.061     2.184     2.311
    66   1 H        0.926     0.036     2.499     2.472
    67   1 H        0.926     0.036     2.502     2.473
    68   1 H        0.926     0.036     2.496     2.471
    69   1 H        0.926     0.037     2.495     2.470
    70   1 H        0.924     0.039     2.457     2.451
    71   1 H        0.925     0.061     2.184     2.311
    72   1 H        0.924     0.039     2.467     2.456
    73   1 H        0.926     0.051     2.312     2.378
    74   1 H        0.926     0.040     2.449     2.447
    75   1 H        0.926     0.034     2.526     2.486
    76   1 H        0.926     0.035     2.516     2.481
    77   1 H        0.926     0.043     2.405     2.425
    78   1 H        0.926     0.063     2.166     2.302
    79   1 H        0.926     0.065     2.140     2.287
    80   1 H        0.926     0.063     2.168     2.302
    81   1 H        0.926     0.044     2.401     2.423
    82   1 H        0.926     0.040     2.444     2.445
    83   1 H        0.926     0.035     2.513     2.479
    84   1 H        0.926     0.040     2.444     2.445
    85   1 H        0.926     0.051     2.309     2.376
    86   1 H        0.925     0.062     2.181     2.310
    87   1 H        0.924     0.039     2.460     2.453
    88   1 H        0.924     0.039     2.457     2.451
    89   1 H        0.926     0.037     2.488     2.467
    90   1 H        0.926     0.037     2.493     2.469
    91   1 H        0.926     0.038     2.479     2.462
    92   1 H        0.926     0.038     2.473     2.459
    93   1 H        0.924     0.039     2.459     2.452
    94   1 H        0.924     0.040     2.445     2.445
    95   1 H        0.925     0.061     2.182     2.310
    96   1 H        0.926     0.050     2.315     2.379
    97   1 H        0.926     0.040     2.450     2.448
    98   1 H        0.926     0.034     2.526     2.486
    99   1 H        0.926     0.036     2.505     2.475
   100   1 H        0.926     0.065     2.142     2.289
   101   1 H        0.926     0.039     2.456     2.451
   102   1 H        0.926     0.036     2.508     2.476
   103   1 H        0.926     0.041     2.438     2.442
   104   1 H        0.926     0.051     2.309     2.376

molecular dipole:
                 x           y           z       tot (Debye)
 q only:        0.344       0.443       0.138
   full:        0.574       0.640       0.219       2.254

 projected vibrational frequencies (cm⁻¹)
eigval :       -0.00    -0.00    -0.00     0.00     0.00     0.00
eigval :        4.46     5.88     9.77    14.25    17.99    21.92
eigval :       25.13    27.97    32.52    38.46    42.07    43.17
eigval :       48.59    50.29    54.12    57.92    61.80    85.23
eigval :       86.85    91.71    92.13    99.69   102.69   110.01
eigval :      116.32   122.91   134.92   146.76   152.66   156.24
eigval :      158.58   160.26   169.01   175.14   202.34   205.50
eigval :      214.18   220.29   222.39   231.83   235.98   238.05
eigval :      241.41   241.91   259.79   263.58   282.54   301.66
eigval :      305.71   323.07   328.51   334.95   343.80   345.08
eigval :      347.95   364.36   368.65   380.34   382.11   384.68
eigval :      385.32   386.55   391.06   391.79   392.07   400.41
eigval :      402.85   408.83   425.03   434.37   437.81   450.39
eigval :      452.36   459.97   468.86   471.30   483.11   496.21
eigval :      499.60   503.93   505.78   510.42   522.40   534.80
eigval :      547.54   557.85   567.04   573.02   594.40   605.06
eigval :      605.23   607.48   610.01   614.65   615.25   622.76
eigval :      641.26   647.32   659.80   665.82   666.18   669.97
eigval :      673.19   674.92   680.33   682.17   693.37   706.80
eigval :      711.23   743.94   771.22   778.63   780.36   802.32
eigval :      803.94   804.22   804.82   812.24   813.16   815.50
eigval :      816.58   842.43   845.98   850.11   861.00   861.29
eigval :      861.40   861.56   867.28   869.80   895.15   898.47
eigval :      900.05   900.35   901.34   902.07   908.87   916.55
eigval :      916.63   919.33   919.64   920.49   920.69   926.15
eigval :      926.47   926.82   929.54   929.87   930.79   932.96
eigval :      945.85   977.16  1001.80  1003.90  1019.59  1020.14
eigval :     1021.24  1023.52  1065.73  1066.33  1066.43  1066.62
eigval :     1076.85  1080.49  1093.36  1122.61  1122.87  1122.95
eigval :     1123.01  1129.24  1129.72  1129.79  1130.34  1131.57
eigval :     1143.23  1145.61  1158.51  1158.82  1158.93  1158.97
eigval :     1175.40  1185.72  1186.49  1188.30  1189.13  1189.70
eigval :     1193.00  1193.62  1203.70  1206.32  1226.35  1230.86
eigval :     1230.99  1236.04  1248.49  1251.66  1256.97  1262.52
eigval :     1267.60  1268.37  1271.68  1272.22  1273.06  1276.14
eigval :     1299.36  1308.65  1313.55  1317.26  1322.60  1327.80
eigval :     1330.28  1331.36  1336.27  1341.37  1344.33  1346.11
eigval :     1347.84  1349.65  1396.37  1397.22  1402.56  1402.70
eigval :     1403.01  1403.04  1412.37  1413.29  1423.53  1424.08
eigval :     1424.51  1425.43  1461.38  1462.76  1472.48  1472.52
eigval :     1472.68  1472.72  1477.23  1477.40  1478.67  1479.56
eigval :     1486.51  1486.82  1486.90  1486.92  1499.41  1500.53
eigval :     1542.39  1546.52  1553.31  1556.99  1563.56  1567.23
eigval :     1567.48  1568.40  1570.79  1571.41  1599.10  1599.47
eigval :     1608.22  1608.84  1609.14  1609.47  1663.06  1676.89
eigval :     2927.06  2927.31  2927.83  2928.74  2941.95  2942.25
eigval :     2942.56  2943.41  3026.77  3026.86  3026.98  3027.21
eigval :     3078.50  3080.09  3082.91  3083.12  3083.50  3084.86
eigval :     3085.24  3086.13  3086.48  3086.67  3089.28  3089.44
eigval :     3089.86  3090.38  3090.68  3092.13  3092.18  3093.12
eigval :     3093.87  3094.98  3095.43  3096.71  3104.31  3104.80
eigval :     3105.44  3106.13  3109.98  3110.14  3110.22  3110.35

   temp. (K)  partition function   enthalpy   heat capacity  entropy
                                   cal/mol     cal/K/mol   cal/K/mol   J/K/mol
 298.15  VIB  0.328E+28            32562.427    194.712    207.512
         ROT  0.402E+09              888.752      2.981     42.352
         INT  0.132E+37            33451.179    197.693    249.864
         TR   0.225E+29             1481.254      4.968     45.951
         TOT                       34932.4329   202.6612   295.8148  1237.6891

       T/K    H(0)-H(T)+PV         H(T)/Eh          T*S/Eh         G(T)/Eh
   ------------------------------------------------------------------------
    298.15    0.556684E-01    0.854992E+00    0.140551E+00    0.714441E+00
   ------------------------------------------------------------------------

         :::::::::::::::::::::::::::::::::::::::::::::::::::::
         ::                  THERMODYNAMIC                  ::
         :::::::::::::::::::::::::::::::::::::::::::::::::::::
         :: total free energy        -166.603228649008 Eh   ::
         ::.................................................::
         :: total energy             -167.317669811454 Eh   ::
         :: zero point energy           0.799323944992 Eh   ::
         :: G(RRHO) w/o ZPVE           -0.084882782546 Eh   ::
         :: G(RRHO) contrib.            0.714441162446 Eh   ::
         :::::::::::::::::::::::::::::::::::::::::::::::::::::

           -------------------------------------------------
          | TOTAL ENERGY             -167.317669811454 Eh   |
          | TOTAL ENTHALPY           -166.462677491146 Eh   |
          | TOTAL FREE ENERGY        -166.603228649008 Eh   |
          | GRADIENT NORM               0.000068831375 Eh/α |
          | HOMO-LUMO GAP               0.858224192572 eV   |
           -------------------------------------------------

 * finished run on 2025/07/17 at 03:21:10.833
