   * xtb version 6.7.1 (edcfbbe) compiled by 'albert@albert-system' on 2024-07-22

   ID    Z sym.   atoms
    1    6 C      1, 3-6, 8-11, 13-26, 28-35, 37-40, 42-48, 50-57, 59-62
    2    8 O      2, 12, 27, 41, 49, 58
    3    7 N      7, 36
    4    1 H      63-104

          program call               : xtb data2507/gas/MPPA/MPPA_gas_T1_crest.xyz --gfn 2 --spinpol --tblite --uhf 2 --ohess vtight --parallel 40 --molden --ceasefiles --namespace data2507/gas/MPPA/MPPA_gas_T1_finalOpt
 * total energy  :  -167.2689419 Eh     change        0.6280138E-07 Eh
 * total energy  :  -167.2689553 Eh     change       -0.1337590E-04 Eh
 * total energy  :  -167.2689598 Eh     change       -0.4486291E-05 Eh
 * total energy  :  -167.2689608 Eh     change       -0.9957677E-06 Eh
 * total energy  :  -167.2689622 Eh     change       -0.1419079E-05 Eh
 * total energy  :  -167.2689639 Eh     change       -0.1717180E-05 Eh
 * total energy  :  -167.2689658 Eh     change       -0.1836362E-05 Eh
 * total energy  :  -167.2689675 Eh     change       -0.1739962E-05 Eh
 * total energy  :  -167.2689694 Eh     change       -0.1920335E-05 Eh
 * total energy  :  -167.2689716 Eh     change       -0.2167512E-05 Eh
 * total energy  :  -167.2689994 Eh     change       -0.3482932E-06 Eh
 * total energy  :  -167.2689998 Eh     change       -0.4637545E-06 Eh
 * total energy  :  -167.2690001 Eh     change       -0.2948467E-06 Eh
 * total energy  :  -167.2690005 Eh     change       -0.3364381E-06 Eh
 * total energy  :  -167.2690009 Eh     change       -0.4165920E-06 Eh
 * total energy  :  -167.2690014 Eh     change       -0.4946608E-06 Eh
 * total energy  :  -167.2690019 Eh     change       -0.5596006E-06 Eh
 * total energy  :  -167.2690019 Eh     change        0.1186504E-07 Eh
 * total energy  :  -167.2690019 Eh     change       -0.1187504E-07 Eh
   *** GEOMETRY OPTIMIZATION CONVERGED AFTER 45 ITERATIONS ***

 final structure:
================
104
 xtb: 6.7.1 (edcfbbe)
C           12.46411594766447        5.48740993785315       -0.58612381483749
O           12.74337762446905        4.28496513242141        0.08902634827550
C           11.83851344076105        3.27188064455611        0.01663047164521
C           10.63793870875197        3.31790492395696       -0.68559997706765
C            9.79504889320415        2.22278933714181       -0.69355846543828
C           10.12136693212153        1.06058327201810        0.00176122402630
N            9.26127766503883       -0.04067085157722       -0.00895560673270
C            9.78283404736015       -1.33737582117216       -0.02647911952386
C            9.15256063446931       -2.36521831925951        0.67144980622244
C            9.65749244472399       -3.65136332707108        0.65437016181049
C           10.81686032242518       -3.93869241622534       -0.06001620500448
O           11.40257262976907       -5.16310923164246       -0.14344525033408
C           10.80188201444167       -6.24477491178032        0.52709348116371
C           11.45345880738330       -2.90826044303952       -0.75758985653790
C           10.94533734308480       -1.63056833749810       -0.74500385439375
C            7.87750993982651        0.15364601067789       -0.00345052687566
C            7.03813127958509       -0.68828634007166       -0.73622786222747
C            5.67451523745168       -0.49675595360211       -0.72423263642064
C            5.09701324939577        0.54154580170253        0.01066015608578
C            3.64681707692558        0.73890172372498        0.02056027624370
C            3.09099540278562        2.03326574849024        0.05509711758842
C            1.73402349629990        2.20932772437726        0.07190352536180
C            0.85801128976492        1.11151259981117        0.05223601906256
C            1.40158787337322       -0.18579438931234        0.02728721756724
C            2.79025814295584       -0.34643954706550        0.00652175522698
C            0.56865800964320       -1.38051389241075        0.01733163384874
O            1.04898439383099       -2.52547480458653       -0.00249410551428
C           -0.86059751146358       -1.13185157420298        0.01881447438161
C           -1.73661240045080       -2.22941409012158       -0.01291976566600
C           -3.09378169916137       -2.05303279700256       -0.00736382460553
C           -3.64867471753489       -0.75874966633656        0.03201755493537
C           -5.09861688005350       -0.55861074930377        0.02893173124241
C           -5.68251020537140        0.46026048730500        0.78518959209777
C           -7.04536004000957        0.65713676636238        0.78255609761915
C           -7.87688525863591       -0.15666860271904        0.00972438358394
N           -9.25855599892062        0.04799007944145       -0.00399896017835
C           -9.77219550289852        1.34677666309043        0.06220492611982
C          -10.94440077341645        1.61511857378243        0.77452717994281
C          -11.44441187494906        2.89453110925674        0.83764596073582
C          -10.78968308833833        3.95120985938324        0.19858441095511
O          -11.36765081134065        5.17502191275892        0.33021029398131
C          -10.74669518875387        6.28254327567936       -0.27668212396307
C           -9.62156423986534        3.68820458318451       -0.51092567857998
C           -9.12496486139824        2.40050049349268       -0.57920176717520
C          -10.12825825480900       -1.04293799015347       -0.08663261070738
C           -9.83180697800021       -2.23927480217025        0.56252810077055
C          -10.68409724826941       -3.32409622571224        0.48072043411016
C          -11.86453099244983       -3.23313313613542       -0.25070138396852
O          -12.77545862390700       -4.23279564536630       -0.39623250740629
C          -12.52363325408345       -5.46984620111207        0.22498847236143
C          -12.16671327177175       -2.03238442651300       -0.89901444415634
C          -11.31370562911988       -0.95665318672940       -0.82224640353875
C           -7.30059338424761       -1.17606990723504       -0.75096892772997
C           -5.93709557044642       -1.37251215764573       -0.73539577432871
C           -2.79261125771029        0.32644882590310        0.06042769512032
C           -1.40389051667708        0.16549906698289        0.04591618965416
C           -0.57097387405356        1.36008621008763        0.06069543276921
O           -1.05133743958902        2.50506509895366        0.08621548223691
C            5.94379661696565        1.38037063357773        0.73846361153485
C            7.30849350561784        1.19220287186227        0.73607229725731
C           11.32611981968665        1.02014225491137        0.70945161091617
C           12.16960739915246        2.10609523067545        0.71290648633263
H           12.37366474013129        5.33102229987668       -1.66590348555478
H           11.55041906183311        5.95772349402352       -0.20868064519672
H           13.31257499791043        6.14023311466975       -0.38782307392351
H           10.34989940780996        4.19737890568607       -1.23909745853525
H            8.87240958196148        2.26572969392820       -1.25291722328380
H            8.25904564313450       -2.15243767853963        1.23906228377835
H            9.14083535770461       -4.41789660702492        1.20942644647157
H            9.78890931873218       -6.43418146336447        0.15805029297918
H           10.77035931739977       -6.07984929878247        1.60890348877015
H           11.42961799971910       -7.10837159001552        0.31368216019423
H           12.34711218671054       -3.14297935937332       -1.31336532459029
H           11.43986316926358       -0.84747755394169       -1.29968817466722
H            7.47023294039506       -1.48417711464858       -1.32503210463655
H            5.04375897715498       -1.14292369445672       -1.31543191967999
H            3.74415900836540        2.89340274401890        0.03941664279213
H            1.29414362789912        3.19599302590126        0.08927686566086
H            3.17019931585062       -1.35784126636656        0.00804502131810
H           -1.29674026999533       -3.21605336419441       -0.03204425343997
H           -3.74833341031719       -2.91234423558399       -0.00437085656416
H           -5.05735152293451        1.08604493843444        1.40374494383037
H           -7.48291773347190        1.43631314246594        1.38934989798162
H          -11.45295161953029        0.81092824840240        1.28455920935131
H          -12.34537438298704        3.11005077257028        1.38937949143328
H          -11.37068110118041        7.14044096272510       -0.03162427967407
H           -9.73855171428665        6.44433846833420        0.11786584683885
H          -10.69825014037348        6.17036919415658       -1.36459076990660
H           -9.09136586732836        4.47544518340227       -1.02252607181953
H           -8.22434915400245        2.20732179949225       -1.14257683585847
H           -8.92514201993849       -2.31770662496531        1.14374104021768
H          -10.41925123363113       -4.23137940166290        0.99986767583133
H          -12.46290987149967       -5.36865195350399        1.31339567546941
H          -13.37051003655609       -6.10490999297083       -0.02977275523932
H          -11.60277741366317       -5.92806758105962       -0.14991334017569
H          -13.08071577081160       -1.97447948967879       -1.46806012983596
H          -11.55346010214256       -0.03955468581062       -1.33879943139069
H           -7.93253512386305       -1.80065394684702       -1.36545365480429
H           -5.50831694532214       -2.14911195527923       -1.35096511474160
H           -3.17335254500395        1.33758145779401        0.06338526821164
H            5.52168697949539        2.17181138505450        1.33944593999437
H            7.94760125332392        1.83873946155980        1.31973757986094
H           11.58868389607149        0.13085023349154        1.26225988448565
H           13.09864948894860        2.08347614412159        1.25966758228932

 projected vibrational frequencies (cm⁻¹)
eigval :       -0.00    -0.00    -0.00     0.00     0.00     0.00
eigval :        5.58     5.92     8.94    14.04    18.26    24.33
eigval :       28.50    30.39    32.02    35.48    35.71    42.28
eigval :       52.18    56.60    61.07    61.73    68.07    78.14
eigval :       79.95    98.38    99.94   105.81   109.07   116.88
eigval :      117.13   130.58   139.69   148.27   156.56   158.29
eigval :      165.62   169.02   174.31   181.98   192.26   192.43
eigval :      210.07   214.10   229.25   232.84   233.01   233.54
eigval :      237.12   252.11   269.35   280.39   288.80   300.16
eigval :      306.57   314.67   316.92   337.52   339.68   350.13
eigval :      351.34   363.36   363.82   378.25   381.16   381.40
eigval :      385.14   387.20   390.32   392.00   392.76   403.93
eigval :      405.41   418.70   423.77   431.73   438.70   448.97
eigval :      462.26   463.26   466.63   470.39   472.12   496.28
eigval :      500.01   504.68   505.03   510.03   516.59   538.02
eigval :      540.43   549.41   563.97   572.49   587.88   601.12
eigval :      604.45   609.51   610.16   612.20   615.48   619.76
eigval :      626.54   632.96   637.49   649.83   665.24   667.56
eigval :      668.43   670.42   672.10   682.05   692.46   694.95
eigval :      702.90   724.39   735.75   782.52   782.58   803.17
eigval :      805.53   805.97   806.35   810.72   812.60   813.51
eigval :      815.81   831.47   833.41   847.51   858.06   858.19
eigval :      860.26   860.81   866.83   867.48   888.36   888.88
eigval :      901.97   902.21   902.46   902.90   906.50   914.91
eigval :      915.15   917.32   917.42   919.40   919.71   920.72
eigval :      921.01   924.54   928.30   929.13   929.68   929.76
eigval :      942.91   965.77  1000.34  1001.50  1018.94  1019.02
eigval :     1019.05  1020.98  1064.07  1064.12  1064.46  1064.51
eigval :     1073.75  1076.13  1095.07  1120.98  1121.00  1121.30
eigval :     1121.31  1128.68  1128.71  1130.92  1130.98  1136.30
eigval :     1140.97  1143.95  1157.33  1157.35  1158.03  1158.12
eigval :     1165.97  1182.10  1183.74  1188.06  1188.13  1188.31
eigval :     1188.45  1189.94  1194.44  1203.39  1205.52  1221.04
eigval :     1227.76  1235.00  1235.17  1252.55  1253.08  1258.63
eigval :     1266.50  1266.64  1270.34  1270.47  1272.26  1272.52
eigval :     1279.41  1294.52  1314.87  1315.17  1319.02  1320.22
eigval :     1321.06  1322.66  1337.24  1338.12  1340.31  1340.44
eigval :     1363.84  1367.10  1377.75  1381.13  1401.74  1401.76
eigval :     1402.15  1402.16  1410.36  1410.66  1421.40  1421.62
eigval :     1424.61  1425.28  1431.27  1444.76  1470.79  1471.03
eigval :     1471.04  1471.17  1471.30  1471.32  1473.38  1474.70
eigval :     1476.13  1483.23  1483.30  1483.73  1483.78  1485.58
eigval :     1487.05  1511.39  1527.13  1542.21  1546.45  1548.17
eigval :     1556.26  1558.51  1558.74  1563.14  1563.40  1566.83
eigval :     1587.59  1589.89  1596.56  1596.68  1598.46  1602.41
eigval :     2932.21  2932.24  2933.47  2933.53  2946.04  2946.08
eigval :     2947.22  2947.26  3028.98  3029.06  3029.08  3029.11
eigval :     3075.01  3075.34  3079.41  3079.52  3081.84  3082.02
eigval :     3085.75  3085.96  3088.30  3088.45  3088.98  3089.04
eigval :     3090.09  3090.09  3091.15  3091.16  3092.60  3092.95
eigval :     3092.97  3093.07  3097.24  3097.70  3107.78  3107.89
eigval :     3109.26  3109.31  3111.80  3111.82  3111.98  3112.09

   temp. (K)  partition function   enthalpy   heat capacity  entropy
                                   cal/mol     cal/K/mol   cal/K/mol   J/K/mol
 298.15  VIB  0.144E+28            32548.290    195.730    206.548
         ROT  0.403E+09              888.752      2.981     42.359
         INT  0.580E+36            33437.043    198.711    248.907
         TR   0.225E+29             1481.254      4.968     45.951
         TOT                       34918.2967   203.6794   294.8577  1233.6847

       T/K    H(0)-H(T)+PV         H(T)/Eh          T*S/Eh         G(T)/Eh
   ------------------------------------------------------------------------
    298.15    0.556458E-01    0.852712E+00    0.140096E+00    0.712615E+00
   ------------------------------------------------------------------------

         :::::::::::::::::::::::::::::::::::::::::::::::::::::
         ::                  THERMODYNAMIC                  ::
         :::::::::::::::::::::::::::::::::::::::::::::::::::::
         :: total free energy        -166.556386822432 Eh   ::
         ::.................................................::
         :: total energy             -167.269001915078 Eh   ::
         :: zero point energy           0.797065656807 Eh   ::
         :: G(RRHO) w/o ZPVE           -0.084450564161 Eh   ::
         :: G(RRHO) contrib.            0.712615092646 Eh   ::
         :::::::::::::::::::::::::::::::::::::::::::::::::::::

           -------------------------------------------------
          | TOTAL ENERGY             -167.269001915078 Eh   |
          | TOTAL ENTHALPY           -166.416290410446 Eh   |
          | TOTAL FREE ENERGY        -166.556386822432 Eh   |
          | GRADIENT NORM               0.000149375354 Eh/α |
           -------------------------------------------------

 * finished run on 2025/07/17 at 04:10:16.923
