   * xtb version 6.7.1 (edcfbbe) compiled by 'albert@albert-system' on 2024-07-22

   ID    Z sym.   atoms
    1    8 O      1
    2   15 P      2
    3    6 C      3-20, 22-39, 41-46
    4    7 N      21, 40
    5    1 H      47-75

          program call               : xtb data2507/toluene/3DCPO/3DCPO.xyz --gfn 2 --gbsa toluene --ohess vtight --parallel 40 --molden --ceasefiles --namespace data2507/toluene/3DCPO/3DCPO_toluene_S0_preOpt
      * Solvation model:               GBSA
        Solvent                        toluene
        Solvent mass                       9.2140E+01 g/mol
          :  Hamiltonian                  GFN2-xTB          :
 * total energy  :  -117.2985268 Eh     change       -0.3792834E-08 Eh
 * total energy  :  -117.3129537 Eh     change       -0.1442694E-01 Eh
 * total energy  :  -117.3164140 Eh     change       -0.3460343E-02 Eh
 * total energy  :  -117.3170768 Eh     change       -0.6627380E-03 Eh
 * total energy  :  -117.3175576 Eh     change       -0.4807686E-03 Eh
 * total energy  :  -117.3177427 Eh     change       -0.1851759E-03 Eh
 * total energy  :  -117.3178808 Eh     change       -0.1380334E-03 Eh
 * total energy  :  -117.3180038 Eh     change       -0.1230839E-03 Eh
 * total energy  :  -117.3181087 Eh     change       -0.1048164E-03 Eh
 * total energy  :  -117.3181960 Eh     change       -0.8733737E-04 Eh
 * total energy  :  -117.3188785 Eh     change       -0.2343610E-05 Eh
 * total energy  :  -117.3188803 Eh     change       -0.1771048E-05 Eh
 * total energy  :  -117.3188812 Eh     change       -0.9214893E-06 Eh
 * total energy  :  -117.3188818 Eh     change       -0.5509260E-06 Eh
 * total energy  :  -117.3188819 Eh     change       -0.1052682E-06 Eh
 * total energy  :  -117.3188821 Eh     change       -0.2328400E-06 Eh
 * total energy  :  -117.3188824 Eh     change       -0.2352308E-06 Eh
 * total energy  :  -117.3188825 Eh     change       -0.1877257E-06 Eh
 * total energy  :  -117.3188826 Eh     change       -0.9200579E-07 Eh
   *** GEOMETRY OPTIMIZATION CONVERGED AFTER 88 ITERATIONS ***

 final structure:
================
75
 xtb: 6.7.1 (edcfbbe)
O            0.24513342021181        2.80723323870874       -2.41146066992607
P            0.13682348943717        2.32744535088054       -1.01871954927529
C            0.15744370802008        3.69391481520441        0.19184761190856
C           -0.45708366204387        4.87671707324486       -0.19838686763008
C           -0.49521411142602        5.95772892155826        0.66366484724319
C            0.08294654409623        5.85768049404300        1.91947795230933
C            0.70122554311430        4.68017852998152        2.30876445619682
C            0.73986628281279        3.59653561355798        1.44822699295802
C            1.49117513282681        1.20906186931558       -0.55142434933095
C            1.36906059891931        0.28020408861767        0.48708332764801
C            2.41434352793885       -0.55330716253619        0.82642436977950
C            3.59528511317053       -0.45202269152532        0.09938483282715
C            3.73353938595077        0.49762372486468       -0.94430318067932
C            2.67110834589758        1.32624121451641       -1.26805306743323
C            5.06994549669835        0.35382953162033       -1.45013413829654
C            5.77979649546999        0.98008077588735       -2.46715594580827
C            7.07577888284343        0.57339367030130       -2.71398949396256
C            7.66014309544575       -0.45092190065124       -1.97041690584646
C            6.97444992700543       -1.08723275958045       -0.95341765079853
C            5.67783875946963       -0.66954569798644       -0.68721771007698
N            4.77384837708269       -1.14467102577488        0.24400325895972
C            5.01649652331397       -2.17550160381056        1.17043491382578
C            4.15205980798445       -3.26303785228869        1.24679813515402
C            4.39546938216185       -4.27371243757458        2.15948876382032
C            5.50181062682949       -4.21251747424540        2.99104182206646
C            6.36462259004927       -3.13147724121854        2.91262179933493
C            6.12414710903762       -2.11120425559899        2.00990969019213
C           -1.40925709177176        1.42627577120003       -0.69704623052511
C           -1.99863153220134        1.37695894157520        0.57002556729718
C           -3.16742214287925        0.67720420925394        0.78746195830696
C           -3.74924914964876        0.02286611738460       -0.29251876092592
C           -3.14838100647398        0.05108066165546       -1.57644843143051
C           -1.97550532183859        0.76214071244872       -1.77317217032826
C           -3.98030465026154       -0.74804030584333       -2.43209763406340
C           -3.92350752602540       -1.08322306856199       -3.77930291613207
C           -4.92194457682203       -1.87975214141248       -4.30330243477415
C           -5.97368906233780       -2.32921167153400       -3.50617645163357
C           -6.05191636254865       -2.00813767140223       -2.16448714670034
C           -5.03987419565064       -1.22514601800480       -1.62669843367729
N           -4.88578349998244       -0.74917716583449       -0.33847665679228
C           -5.75548868135159       -1.00063922945800        0.73873662195400
C           -6.09270781585544       -2.30878874185506        1.07153281241621
C           -6.95526252081143       -2.55077744349263        2.12561214146974
C           -7.47669671108083       -1.49648279623346        2.85761246003550
C           -7.13622598746163       -0.19411270260116        2.53019325028161
C           -6.28205526947305        0.05827497905428        1.47171902157020
H           -0.89142207633880        4.93343043108482       -1.18755916924902
H           -0.97340184560896        6.87662487855390        0.35695164521379
H            0.05576882341106        6.70072760020129        2.59419918724011
H            1.15678523938951        4.60552620777938        3.28562051523025
H            1.22646274960719        2.67843393744710        1.74565617780280
H            0.43387785207456        0.21330471845995        1.02387390438841
H            2.31647241683716       -1.25955357680689        1.63697805180415
H            2.73811824831668        2.05200751067282       -2.06611447190372
H            5.31968621724291        1.76331447353611       -3.05094316580607
H            7.64589265196140        1.04715233682144       -3.49952665458565
H            8.67119888415935       -0.75636796360011       -2.19684644890619
H            7.43031321213018       -1.88932888219768       -0.39312646941986
H            3.30217069655639       -3.31572500837687        0.58245118971946
H            3.72215480998530       -5.11635988222923        2.21455210478732
H            5.69115836963610       -5.00570712596085        3.69858750547893
H            7.22622199579217       -3.07789639199769        3.56159645988884
H            6.78366949200172       -1.25775963116732        1.95690518094861
H           -1.53139346597178        1.90690742392044        1.38778871479273
H           -3.61166357583966        0.63596320047548        1.77046178845416
H           -1.49881874170105        0.81682336660183       -2.74180580373501
H           -3.11548337081321       -0.72164799956170       -4.39765795510946
H           -4.89622409478696       -2.15438511616308       -5.34752811916202
H           -6.74709636341108       -2.93970604463573       -3.94884191540915
H           -6.87795665381152       -2.34840429637420       -1.55872416751568
H           -5.66943323388952       -3.12750023464031        0.50874490831190
H           -7.21502250697580       -3.56775257938302        2.38003668963436
H           -8.14807636579884       -1.68933474629610        3.68080299608016
H           -7.54340856617958        0.63079450539165        3.09595965992689
H           -6.02870708579966        1.07239264263203        1.19984384960122

          :  Hamiltonian                  GFN2-xTB          :
         :: gradient norm              0.000048115379 Eh/a0 ::
         :: HOMO-LUMO gap              3.124504790014 eV    ::
         :: SCC energy              -119.481040493391 Eh    ::
         :: -> dispersion             -0.105928557440 Eh    ::
         :: -> Gsolv                  -0.055068828249 Eh    ::
         :: repulsion energy           2.162157855586 Eh    ::

    * Orbital Energies and Occupations

         #    Occupation            Energy/Eh            Energy/eV
      -------------------------------------------------------------
         1        2.0000           -0.6917737             -18.8241
       ...           ...                  ...                  ...
        97        2.0000           -0.4168521             -11.3431
        98        2.0000           -0.4146713             -11.2838
        99        2.0000           -0.4145191             -11.2796
       100        2.0000           -0.4141256             -11.2689
       101        2.0000           -0.4134201             -11.2497
       102        2.0000           -0.4119774             -11.2105
       103        2.0000           -0.4103500             -11.1662
       104        2.0000           -0.4015373             -10.9264
       105        2.0000           -0.4009701             -10.9110
       106        2.0000           -0.3854280             -10.4880
       107        2.0000           -0.3851800             -10.4813
       108        2.0000           -0.3692982             -10.0491
       109        2.0000           -0.3680455             -10.0150 (HOMO)
       110                         -0.2532221              -6.8905 (LUMO)
       111                         -0.2527323              -6.8772
       112                         -0.2456120              -6.6834
       113                         -0.2431112              -6.6154
       114                         -0.2375138              -6.4631
       115                         -0.2343906              -6.3781
       116                         -0.2333595              -6.3500
       117                         -0.2332773              -6.3478
       118                         -0.2324122              -6.3243
       119                         -0.2308109              -6.2807
       120                         -0.2056519              -5.5961
       ...                                ...                  ...
       218                          1.1667584              31.7491
      -------------------------------------------------------------
                  HL-Gap            0.1148234 Eh            3.1245 eV

     #   Z          covCN         q      C6AA      α(0)
     1   8 O        0.808    -0.404    21.776     6.255
     2  15 P        4.091     0.032   158.803    22.637
     3   6 C        2.920     0.013    27.714     8.633
     4   6 C        3.028    -0.019    28.449     8.749
     5   6 C        2.918    -0.027    28.679     8.782
     6   6 C        2.920    -0.025    28.629     8.774
     7   6 C        2.920    -0.028    28.689     8.783
     8   6 C        2.969    -0.027    28.661     8.781
     9   6 C        2.920     0.001    28.013     8.679
    10   6 C        2.979    -0.033    28.812     8.805
    11   6 C        2.909    -0.051    29.258     8.870
    12   6 C        3.076     0.051    26.772     8.483
    13   6 C        3.068    -0.017    28.356     8.732
    14   6 C        3.025    -0.023    28.554     8.765
    15   6 C        3.066    -0.017    28.358     8.732
    16   6 C        2.912    -0.032    28.803     8.800
    17   6 C        2.920    -0.040    28.998     8.831
    18   6 C        2.924    -0.033    28.819     8.804
    19   6 C        2.909    -0.050    29.240     8.867
    20   6 C        3.079     0.048    26.837     8.493
    21   7 N        2.802    -0.039    21.996     6.966
    22   6 C        2.913     0.063    26.591     8.456
    23   6 C        2.922    -0.041    29.020     8.834
    24   6 C        2.920    -0.027    28.674     8.781
    25   6 C        2.919    -0.031    28.782     8.798
    26   6 C        2.920    -0.027    28.675     8.781
    27   6 C        2.922    -0.041    29.013     8.833
    28   6 C        2.920     0.000    28.020     8.681
    29   6 C        2.978    -0.032    28.801     8.803
    30   6 C        2.909    -0.051    29.254     8.869
    31   6 C        3.076     0.051    26.771     8.483
    32   6 C        3.068    -0.017    28.354     8.731
    33   6 C        3.026    -0.023    28.552     8.765
    34   6 C        3.066    -0.017    28.359     8.732
    35   6 C        2.912    -0.032    28.803     8.800
    36   6 C        2.920    -0.040    28.999     8.831
    37   6 C        2.924    -0.033    28.818     8.803
    38   6 C        2.909    -0.050    29.240     8.867
    39   6 C        3.079     0.048    26.836     8.493
    40   7 N        2.802    -0.039    21.997     6.966
    41   6 C        2.913     0.063    26.592     8.456
    42   6 C        2.922    -0.041    29.013     8.833
    43   6 C        2.920    -0.027    28.675     8.781
    44   6 C        2.919    -0.031    28.781     8.798
    45   6 C        2.920    -0.027    28.674     8.781
    46   6 C        2.922    -0.041    29.018     8.834
    47   1 H        0.925     0.042     2.416     2.431
    48   1 H        0.926     0.042     2.419     2.432
    49   1 H        0.926     0.045     2.380     2.412
    50   1 H        0.926     0.044     2.395     2.420
    51   1 H        0.926     0.042     2.427     2.436
    52   1 H        0.926     0.042     2.421     2.433
    53   1 H        0.926     0.042     2.428     2.437
    54   1 H        0.926     0.043     2.407     2.426
    55   1 H        0.926     0.031     2.566     2.505
    56   1 H        0.926     0.032     2.558     2.501
    57   1 H        0.926     0.035     2.510     2.478
    58   1 H        0.926     0.036     2.507     2.476
    59   1 H        0.926     0.041     2.429     2.437
    60   1 H        0.926     0.042     2.417     2.431
    61   1 H        0.926     0.042     2.423     2.434
    62   1 H        0.926     0.043     2.410     2.428
    63   1 H        0.926     0.044     2.402     2.423
    64   1 H        0.926     0.040     2.455     2.450
    65   1 H        0.926     0.042     2.428     2.437
    66   1 H        0.926     0.042     2.420     2.433
    67   1 H        0.926     0.031     2.567     2.506
    68   1 H        0.926     0.032     2.558     2.501
    69   1 H        0.926     0.035     2.510     2.477
    70   1 H        0.926     0.036     2.506     2.476
    71   1 H        0.926     0.044     2.400     2.423
    72   1 H        0.926     0.043     2.409     2.427
    73   1 H        0.926     0.042     2.423     2.434
    74   1 H        0.926     0.042     2.418     2.431
    75   1 H        0.926     0.041     2.430     2.437

molecular dipole:
                 x           y           z       tot (Debye)
 q only:       -0.431      -1.780       2.794
   full:       -0.458      -1.780       2.919       8.767

 projected vibrational frequencies (cm⁻¹)
eigval :       -0.00    -0.00     0.00     0.00     0.00     0.00
eigval :        8.72    11.53    11.83    22.53    27.02    34.52
eigval :       46.60    54.66    55.48    62.03    63.57    67.84
eigval :       84.87    91.89   102.81   108.93   128.17   129.91
eigval :      166.73   176.29   182.81   185.88   197.01   210.35
eigval :      229.27   233.26   260.28   263.30   286.13   297.42
eigval :      299.92   315.30   327.92   336.36   362.86   365.03
eigval :      378.94   380.50   390.82   394.17   400.91   404.42
eigval :      422.52   424.94   431.31   454.70   459.77   469.96
eigval :      475.09   493.46   499.58   536.52   536.56   551.46
eigval :      558.47   567.33   573.57   584.85   586.74   589.41
eigval :      591.48   593.45   611.05   612.20   637.77   653.65
eigval :      659.57   670.41   671.18   674.88   677.20   700.47
eigval :      708.15   709.13   724.41   725.77   740.77   760.67
eigval :      765.28   776.12   776.67   806.77   813.71   818.54
eigval :      821.13   869.45   870.23   874.28   874.34   878.81
eigval :      879.58   881.54   897.90   901.62   902.49   904.56
eigval :      905.10   907.88   908.42   913.08   915.53   922.45
eigval :      923.64   924.39   924.55   928.43   929.43   932.63
eigval :      932.81   933.42   936.93   972.82   996.79   997.04
eigval :     1019.45  1020.35  1069.12  1069.65  1077.29  1078.34
eigval :     1079.47  1096.63  1098.50  1112.24  1114.94  1116.33
eigval :     1122.12  1125.87  1126.51  1148.01  1153.52  1175.07
eigval :     1175.92  1178.08  1178.56  1179.93  1180.14  1181.26
eigval :     1190.81  1195.74  1197.87  1215.41  1225.11  1227.20
eigval :     1240.40  1241.56  1270.04  1271.45  1273.21  1275.49
eigval :     1276.76  1302.98  1304.20  1314.71  1314.79  1318.72
eigval :     1352.78  1353.06  1358.33  1358.84  1362.42  1363.10
eigval :     1415.99  1416.36  1420.93  1426.95  1427.42  1433.42
eigval :     1433.89  1452.87  1458.32  1459.48  1478.52  1479.36
eigval :     1482.00  1482.31  1560.13  1560.67  1579.66  1580.38
eigval :     1581.65  1581.89  1581.94  1585.60  1589.05  1589.55
eigval :     1592.45  1592.88  1609.47  1609.57  3061.93  3069.41
eigval :     3071.98  3072.78  3073.82  3074.42  3075.23  3075.31
eigval :     3076.82  3077.58  3077.87  3079.22  3079.24  3080.21
eigval :     3080.28  3080.42  3087.08  3087.60  3087.87  3088.18
eigval :     3089.71  3090.20  3090.32  3090.78  3091.02  3094.93
eigval :     3095.04  3097.79  3098.29

   temp. (K)  partition function   enthalpy   heat capacity  entropy
                                   cal/mol     cal/K/mol   cal/K/mol   J/K/mol
 298.15  VIB  0.190E+18            21571.240    136.155    135.210
         ROT  0.895E+08              888.752      2.981     39.368
         INT  0.171E+26            22459.992    139.136    174.578
         TR   0.145E+29             1481.254      4.968     45.081
         TOT                       23941.2461   144.1044   219.6594   919.0550

       T/K    H(0)-H(T)+PV         H(T)/Eh          T*S/Eh         G(T)/Eh
   ------------------------------------------------------------------------
    298.15    0.381528E-01    0.610328E+00    0.104367E+00    0.505961E+00
   ------------------------------------------------------------------------

         :::::::::::::::::::::::::::::::::::::::::::::::::::::
         ::                  THERMODYNAMIC                  ::
         :::::::::::::::::::::::::::::::::::::::::::::::::::::
         :: total free energy        -116.812921751176 Eh   ::
         ::.................................................::
         :: total energy             -117.318882641903 Eh   ::
         :: zero point energy           0.572175369030 Eh   ::
         :: G(RRHO) w/o ZPVE           -0.066214478304 Eh   ::
         :: G(RRHO) contrib.            0.505960890727 Eh   ::
         :::::::::::::::::::::::::::::::::::::::::::::::::::::

           -------------------------------------------------
          | TOTAL ENERGY             -117.318882641903 Eh   |
          | TOTAL ENTHALPY           -116.708554468618 Eh   |
          | TOTAL FREE ENERGY        -116.812921751176 Eh   |
          | GRADIENT NORM               0.000048107307 Eh/α |
          | HOMO-LUMO GAP               3.124504864035 eV   |
           -------------------------------------------------

 * finished run on 2025/07/18 at 00:51:02.360
