   * xtb version 6.7.1 (edcfbbe) compiled by 'albert@albert-system' on 2024-07-22

   ID    Z sym.   atoms
    1    8 O      1
    2   15 P      2
    3    6 C      3-20, 22-39, 41-46
    4    7 N      21, 40
    5    1 H      47-75

          program call               : xtb data2507/toluene/3DCPO/3DCPO_toluene_S0_crest.xyz --gfn 2 --gbsa toluene --ohess vtight --parallel 40 --molden --ceasefiles --namespace data2507/toluene/3DCPO/3DCPO_toluene_S0_finalOpt
      * Solvation model:               GBSA
        Solvent                        toluene
        Solvent mass                       9.2140E+01 g/mol
          :  Hamiltonian                  GFN2-xTB          :
 * total energy  :  -117.3188629 Eh     change       -0.3459760E-08 Eh
 * total energy  :  -117.3189703 Eh     change       -0.1074452E-03 Eh
 * total energy  :  -117.3190160 Eh     change       -0.4566535E-04 Eh
 * total energy  :  -117.3190310 Eh     change       -0.1502450E-04 Eh
 * total energy  :  -117.3190453 Eh     change       -0.1431312E-04 Eh
 * total energy  :  -117.3190643 Eh     change       -0.1894410E-04 Eh
 * total energy  :  -117.3190804 Eh     change       -0.1615733E-04 Eh
 * total energy  :  -117.3190918 Eh     change       -0.1135562E-04 Eh
 * total energy  :  -117.3191097 Eh     change       -0.1794331E-04 Eh
 * total energy  :  -117.3191223 Eh     change       -0.1260279E-04 Eh
 * total energy  :  -117.3192073 Eh     change       -0.1251997E-05 Eh
 * total energy  :  -117.3192083 Eh     change       -0.1027416E-05 Eh
 * total energy  :  -117.3192093 Eh     change       -0.9793523E-06 Eh
 * total energy  :  -117.3192104 Eh     change       -0.1086558E-05 Eh
 * total energy  :  -117.3192117 Eh     change       -0.1339005E-05 Eh
 * total energy  :  -117.3192131 Eh     change       -0.1420150E-05 Eh
 * total energy  :  -117.3192143 Eh     change       -0.1163048E-05 Eh
 * total energy  :  -117.3192151 Eh     change       -0.8310612E-06 Eh
 * total energy  :  -117.3192151 Eh     change       -0.8498276E-08 Eh
   *** GEOMETRY OPTIMIZATION CONVERGED AFTER 44 ITERATIONS ***

 final structure:
================
75
 xtb: 6.7.1 (edcfbbe)
O            0.18688181662508        2.60612904856505       -2.81446676846716
P            0.14172959867900        2.18575573779656       -1.39809824248232
C            0.15957070498607        3.59295303913109       -0.24252889396982
C            0.41304149991764        3.42913053835814        1.11416882398967
C            0.41102068664582        4.53088179232500        1.95003780185707
C            0.15795163422252        5.79400971176491        1.43609978296390
C           -0.08950379459191        5.95898269573043        0.08279549110125
C           -0.08733597810097        4.85819496997725       -0.75637338428078
C            1.55051145126045        1.14553078174839       -0.91332376702483
C            2.76130368058493        1.37423171014253       -1.57319278803294
C            3.90156447213010        0.66700754873785       -1.25518619162532
C            3.81233299418665       -0.28339799057502       -0.24421133426537
C            2.58149425375878       -0.54381326811424        0.40982708921222
C            1.44853644522101        0.18181266403287        0.07701260651102
C            2.83383647435153       -1.60506160093906        1.34435732255687
C            2.03954569252650       -2.27806895527435        2.26462225969136
C            2.61936952483513       -3.25943632340170        3.04351714794380
C            3.97467694801331       -3.56288841266790        2.92339640802759
C            4.78386517974029       -2.90846866482053        2.01421295003745
C            4.20178938315286       -1.93667236582218        1.21205169135733
N            4.77698276702426       -1.12978509761906        0.24897256690306
C            6.12615974941541       -1.16129123195039       -0.14868945175784
C            6.88102835674289        0.00736829927476       -0.14497334662306
C            8.20721471151417       -0.02819474625116       -0.53663963838592
C            8.78947259256509       -1.22435044079442       -0.92321760383769
C            8.03881758840487       -2.38864071860252       -0.92378206005082
C            6.70918846201494       -2.36127417862048       -0.54313794642348
C           -1.33984418246975        1.20731120106882       -0.99601721251334
C           -1.51819540014012        0.04943777134340       -1.76113379142895
C           -2.60824632053704       -0.77451020076830       -1.58136167751314
C           -3.53272859965544       -0.41916404977006       -0.60468303876651
C           -3.37494667461524        0.76645213378199        0.15527948889513
C           -2.26891574333116        1.58124316716840       -0.04193350336830
C           -4.51650324151689        0.84878278381179        1.02263689829109
C           -4.91625364863491        1.75876270118658        1.99385836745428
C           -6.09367318636551        1.52222371155779        2.67458892727951
C           -6.86179437808101        0.38979281366686        2.40734253110363
C           -6.48443339966516       -0.52910684104427        1.44694172730185
C           -5.31276904974340       -0.28579884718805        0.74338635861984
N           -4.70346522820667       -1.04145947860458       -0.23962683964080
C           -5.20154280787875       -2.24096628380978       -0.78077712216061
C           -6.49882242105900       -2.29387376675116       -1.28052057780945
C           -6.98679423065666       -3.47674998253556       -1.80597406879773
C           -6.18563870822085       -4.60626163936170       -1.84600174387807
C           -4.89208523553401       -4.55224142070659       -1.35328399097751
C           -4.39863341198093       -3.37658409561708       -0.81675546201811
H            0.61224547923239        2.44176603029136        1.50550458649895
H            0.60743231278764        4.40550668747272        3.00497944115114
H            0.15694689485137        6.65186545091385        2.09253232129655
H           -0.28355227630477        6.94305603891019       -0.31844922691411
H           -0.27176642276472        4.95908303069180       -1.81722200252129
H            2.77715125757019        2.11919029479349       -2.35703320104160
H            4.82803450564925        0.84054685885696       -1.78126926611587
H            0.50319978435879       -0.00802340116588        0.56467921383234
H            0.99306270543190       -2.03214934897358        2.36664813254629
H            2.01989612904706       -3.79667903450755        3.76355869990232
H            4.40289054277693       -4.32503085380100        3.55786134925459
H            5.83528526862615       -3.14033126818912        1.93824701760111
H            6.42729916694171        0.93399027320419        0.17434426233980
H            8.78942870807546        0.88143187325550       -0.53231495462954
H            9.82614056341681       -1.24864532113861       -1.22380593361663
H            8.48736555036910       -3.32241584047707       -1.22918213453307
H            6.11475238679743       -3.26269447116777       -0.55983252224711
H           -0.77357260812045       -0.18205217374474       -2.51195764702839
H           -2.74274023029016       -1.65830740230043       -2.18628944017054
H           -2.13841178783108        2.48658174242074        0.53268010645999
H           -4.31331786557554        2.62846337707676        2.20885491116347
H           -6.42481861766135        2.21791573581377        3.43150789586922
H           -7.77142483560986        0.22550959492796        2.96628036617812
H           -7.07821845053992       -1.41025882334897        1.25696276423334
H           -7.11243892700182       -1.40533140214373       -1.26471928193171
H           -7.99434541906976       -3.51351657944149       -2.19308424560784
H           -6.56871063413606       -5.52666315369965       -2.26036233712683
H           -4.26512008371747       -5.43127623776021       -1.37963961458653
H           -3.39687960965295       -3.33431192022691       -0.41545469307190

          :  Hamiltonian                  GFN2-xTB          :
         :: gradient norm              0.000073463396 Eh/a0 ::
         :: HOMO-LUMO gap              3.124782126951 eV    ::
         :: SCC energy              -119.481418205267 Eh    ::
         :: -> dispersion             -0.106481049278 Eh    ::
         :: -> Gsolv                  -0.054587954706 Eh    ::
         :: repulsion energy           2.162203090281 Eh    ::

    * Orbital Energies and Occupations

         #    Occupation            Energy/Eh            Energy/eV
      -------------------------------------------------------------
         1        2.0000           -0.6924044             -18.8413
       ...           ...                  ...                  ...
        97        2.0000           -0.4158359             -11.3155
        98        2.0000           -0.4146701             -11.2837
        99        2.0000           -0.4145802             -11.2813
       100        2.0000           -0.4142352             -11.2719
       101        2.0000           -0.4135774             -11.2540
       102        2.0000           -0.4119672             -11.2102
       103        2.0000           -0.4110533             -11.1853
       104        2.0000           -0.4026353             -10.9563
       105        2.0000           -0.4007160             -10.9040
       106        2.0000           -0.3859399             -10.5020
       107        2.0000           -0.3853046             -10.4847
       108        2.0000           -0.3693461             -10.0504
       109        2.0000           -0.3686526             -10.0315 (HOMO)
       110                         -0.2538190              -6.9068 (LUMO)
       111                         -0.2533229              -6.8933
       112                         -0.2491081              -6.7786
       113                         -0.2401081              -6.5337
       114                         -0.2376617              -6.4671
       115                         -0.2339627              -6.3664
       116                         -0.2331927              -6.3455
       117                         -0.2328968              -6.3374
       118                         -0.2321834              -6.3180
       119                         -0.2320196              -6.3136
       120                         -0.2033215              -5.5327
       ...                                ...                  ...
       218                          1.1749717              31.9726
      -------------------------------------------------------------
                  HL-Gap            0.1148337 Eh            3.1248 eV

     #   Z          covCN         q      C6AA      α(0)
     1   8 O        0.808    -0.403    21.764     6.254
     2  15 P        4.091     0.035   158.685    22.629
     3   6 C        2.920     0.013    27.718     8.634
     4   6 C        2.980    -0.025    28.632     8.777
     5   6 C        2.919    -0.027    28.685     8.783
     6   6 C        2.920    -0.025    28.619     8.773
     7   6 C        2.918    -0.027    28.683     8.782
     8   6 C        3.016    -0.019    28.466     8.752
     9   6 C        2.920     0.000    28.025     8.681
    10   6 C        3.028    -0.026    28.610     8.774
    11   6 C        2.908    -0.050    29.238     8.866
    12   6 C        3.076     0.052    26.759     8.481
    13   6 C        3.069    -0.016    28.345     8.730
    14   6 C        2.975    -0.030    28.736     8.793
    15   6 C        3.066    -0.017    28.363     8.733
    16   6 C        2.912    -0.033    28.812     8.802
    17   6 C        2.920    -0.040    29.004     8.831
    18   6 C        2.924    -0.033    28.815     8.803
    19   6 C        2.909    -0.050    29.229     8.865
    20   6 C        3.078     0.048    26.838     8.493
    21   7 N        2.803    -0.039    21.991     6.965
    22   6 C        2.913     0.063    26.595     8.456
    23   6 C        2.922    -0.041    29.020     8.834
    24   6 C        2.920    -0.027    28.675     8.781
    25   6 C        2.919    -0.031    28.781     8.798
    26   6 C        2.920    -0.027    28.677     8.782
    27   6 C        2.922    -0.041    29.015     8.833
    28   6 C        2.920     0.002    27.979     8.674
    29   6 C        3.043    -0.024    28.557     8.765
    30   6 C        2.908    -0.049    29.224     8.864
    31   6 C        3.077     0.051    26.766     8.482
    32   6 C        3.069    -0.017    28.349     8.730
    33   6 C        2.965    -0.030    28.745     8.794
    34   6 C        3.066    -0.017    28.366     8.733
    35   6 C        2.912    -0.033    28.813     8.802
    36   6 C        2.920    -0.040    29.004     8.832
    37   6 C        2.924    -0.033    28.819     8.804
    38   6 C        2.909    -0.050    29.232     8.866
    39   6 C        3.079     0.048    26.839     8.493
    40   7 N        2.802    -0.039    21.996     6.966
    41   6 C        2.913     0.063    26.593     8.456
    42   6 C        2.922    -0.041    29.013     8.833
    43   6 C        2.920    -0.027    28.677     8.782
    44   6 C        2.919    -0.031    28.783     8.798
    45   6 C        2.920    -0.027    28.677     8.782
    46   6 C        2.922    -0.041    29.022     8.834
    47   1 H        0.926     0.044     2.396     2.421
    48   1 H        0.926     0.045     2.388     2.416
    49   1 H        0.926     0.045     2.377     2.411
    50   1 H        0.926     0.042     2.416     2.431
    51   1 H        0.925     0.046     2.369     2.407
    52   1 H        0.925     0.042     2.427     2.436
    53   1 H        0.926     0.039     2.455     2.450
    54   1 H        0.926     0.039     2.468     2.457
    55   1 H        0.926     0.033     2.547     2.496
    56   1 H        0.926     0.033     2.549     2.497
    57   1 H        0.926     0.035     2.514     2.480
    58   1 H        0.926     0.035     2.516     2.480
    59   1 H        0.926     0.041     2.431     2.438
    60   1 H        0.926     0.042     2.422     2.434
    61   1 H        0.926     0.042     2.426     2.436
    62   1 H        0.926     0.043     2.411     2.428
    63   1 H        0.926     0.044     2.400     2.423
    64   1 H        0.925     0.037     2.494     2.469
    65   1 H        0.926     0.040     2.446     2.446
    66   1 H        0.926     0.037     2.495     2.470
    67   1 H        0.926     0.032     2.553     2.499
    68   1 H        0.926     0.032     2.553     2.499
    69   1 H        0.926     0.035     2.515     2.480
    70   1 H        0.926     0.035     2.516     2.480
    71   1 H        0.926     0.043     2.408     2.427
    72   1 H        0.926     0.043     2.414     2.430
    73   1 H        0.926     0.042     2.426     2.436
    74   1 H        0.926     0.042     2.417     2.431
    75   1 H        0.926     0.042     2.422     2.434

molecular dipole:
                 x           y           z       tot (Debye)
 q only:        0.315      -1.639       1.705
   full:        0.369      -1.634       1.726       6.113

 projected vibrational frequencies (cm⁻¹)
eigval :       -0.00    -0.00    -0.00    -0.00     0.00     0.00
eigval :        6.32     7.96    11.58    19.39    25.10    38.00
eigval :       44.73    49.27    53.08    57.97    60.76    60.95
eigval :       84.62    93.09   108.39   114.71   121.79   129.45
eigval :      168.05   172.55   177.39   194.53   209.96   217.10
eigval :      230.91   237.17   246.85   260.46   266.11   269.38
eigval :      300.55   320.35   329.57   343.84   361.55   376.32
eigval :      377.30   378.21   383.81   393.34   396.29   405.81
eigval :      420.82   424.72   429.70   448.12   453.01   473.47
eigval :      474.17   502.03   509.76   536.88   537.93   553.45
eigval :      560.76   567.64   573.44   585.13   587.02   588.36
eigval :      590.96   592.18   611.62   611.89   639.49   652.63
eigval :      658.46   669.69   672.49   675.22   677.10   702.64
eigval :      708.57   710.42   726.83   727.79   739.14   763.91
eigval :      767.90   774.66   777.58   806.19   812.72   813.08
eigval :      815.37   869.12   871.31   875.87   877.53   879.74
eigval :      882.52   884.16   899.78   901.39   902.40   903.61
eigval :      906.17   907.61   908.57   912.73   915.80   922.08
eigval :      922.84   923.44   924.79   926.23   931.37   932.82
eigval :      934.93   935.14   937.95   973.81   996.93   997.21
eigval :     1019.12  1020.00  1068.49  1069.58  1076.22  1079.01
eigval :     1079.09  1096.23  1099.38  1111.89  1115.85  1116.18
eigval :     1122.34  1126.29  1127.14  1147.22  1149.39  1175.13
eigval :     1175.50  1176.00  1178.12  1179.80  1180.15  1180.55
eigval :     1189.23  1196.73  1197.26  1209.37  1225.02  1226.16
eigval :     1240.66  1241.44  1268.92  1271.98  1272.43  1274.89
eigval :     1275.31  1304.09  1305.07  1315.07  1315.27  1320.00
eigval :     1351.51  1353.14  1356.86  1357.81  1361.44  1362.64
eigval :     1414.91  1415.30  1422.47  1427.15  1427.79  1433.44
eigval :     1434.05  1451.76  1462.79  1465.62  1479.25  1479.68
eigval :     1482.01  1483.03  1560.12  1561.33  1579.74  1580.28
eigval :     1581.56  1582.11  1582.21  1585.18  1588.96  1589.05
eigval :     1592.92  1592.98  1608.81  1609.00  3053.41  3067.17
eigval :     3067.71  3071.67  3072.59  3073.89  3074.39  3076.67
eigval :     3076.75  3077.81  3077.99  3078.82  3079.37  3079.53
eigval :     3079.99  3082.62  3087.24  3087.30  3087.87  3087.98
eigval :     3088.41  3089.50  3090.64  3091.04  3091.19  3094.89
eigval :     3095.08  3097.69  3098.33

   temp. (K)  partition function   enthalpy   heat capacity  entropy
                                   cal/mol     cal/K/mol   cal/K/mol   J/K/mol
 298.15  VIB  0.605E+18            21621.959    135.860    136.291
         ROT  0.835E+08              888.752      2.981     39.230
         INT  0.506E+26            22510.711    138.841    175.521
         TR   0.145E+29             1481.254      4.968     45.081
         TOT                       23991.9652   143.8095   220.6019   922.9983

       T/K    H(0)-H(T)+PV         H(T)/Eh          T*S/Eh         G(T)/Eh
   ------------------------------------------------------------------------
    298.15    0.382336E-01    0.610280E+00    0.104815E+00    0.505465E+00
   ------------------------------------------------------------------------

         :::::::::::::::::::::::::::::::::::::::::::::::::::::
         ::                  THERMODYNAMIC                  ::
         :::::::::::::::::::::::::::::::::::::::::::::::::::::
         :: total free energy        -116.813750185502 Eh   ::
         ::.................................................::
         :: total energy             -117.319215111089 Eh   ::
         :: zero point energy           0.572046369278 Eh   ::
         :: G(RRHO) w/o ZPVE           -0.066581443691 Eh   ::
         :: G(RRHO) contrib.            0.505464925586 Eh   ::
         :::::::::::::::::::::::::::::::::::::::::::::::::::::

           -------------------------------------------------
          | TOTAL ENERGY             -117.319215111089 Eh   |
          | TOTAL ENTHALPY           -116.708935111651 Eh   |
          | TOTAL FREE ENERGY        -116.813750185502 Eh   |
          | GRADIENT NORM               0.000073410973 Eh/α |
          | HOMO-LUMO GAP               3.124782743110 eV   |
           -------------------------------------------------

 * finished run on 2025/07/18 at 01:00:54.533
