   * xtb version 6.7.1 (edcfbbe) compiled by 'albert@albert-system' on 2024-07-22

   ID    Z sym.   atoms
    1    8 O      1
    2   15 P      2
    3    6 C      3-20, 22-39, 41-46
    4    7 N      21, 40
    5    1 H      47-75

          program call               : xtb data2507/toluene/3DCPO/3DCPO_toluene_S0_finalOpt.xtbopt.xyz --gfn 2 --uhf 2 --gbsa toluene --ohess vtight --parallel 40 --molden --ceasefiles --namespace data2507/toluene/3DCPO/3DCPO_toluene_T1_preOpt
      * Solvation model:               GBSA
        Solvent                        toluene
        Solvent mass                       9.2140E+01 g/mol
          :  Hamiltonian                  GFN2-xTB          :
 * total energy  :  -117.2030033 Eh     change       -0.1226550E-07 Eh
 * total energy  :  -117.2045203 Eh     change       -0.1517009E-02 Eh
 * total energy  :  -117.2049147 Eh     change       -0.3944067E-03 Eh
 * total energy  :  -117.2049717 Eh     change       -0.5701664E-04 Eh
 * total energy  :  -117.2050119 Eh     change       -0.4019435E-04 Eh
 * total energy  :  -117.2050387 Eh     change       -0.2673939E-04 Eh
 * total energy  :  -117.2050687 Eh     change       -0.3000199E-04 Eh
 * total energy  :  -117.2050956 Eh     change       -0.2690356E-04 Eh
 * total energy  :  -117.2051135 Eh     change       -0.1788556E-04 Eh
 * total energy  :  -117.2051206 Eh     change       -0.7152861E-05 Eh
 * total energy  :  -117.2051487 Eh     change       -0.4477106E-06 Eh
 * total energy  :  -117.2051492 Eh     change       -0.4681123E-06 Eh
 * total energy  :  -117.2051497 Eh     change       -0.5587122E-06 Eh
 * total energy  :  -117.2051504 Eh     change       -0.6438633E-06 Eh
 * total energy  :  -117.2051510 Eh     change       -0.6840485E-06 Eh
 * total energy  :  -117.2051516 Eh     change       -0.5060232E-06 Eh
 * total energy  :  -117.2051519 Eh     change       -0.3602050E-06 Eh
 * total energy  :  -117.2051525 Eh     change       -0.5669733E-06 Eh
 * total energy  :  -117.2051525 Eh     change       -0.5474917E-08 Eh
   *** GEOMETRY OPTIMIZATION CONVERGED AFTER 44 ITERATIONS ***

 final structure:
================
75
 xtb: 6.7.1 (edcfbbe)
O            0.15803374177963        2.58791464989935       -2.81786855796589
P            0.12407058192509        2.17321236984470       -1.39926088006798
C            0.17502239702433        3.57754798467653       -0.24839154076435
C            0.34128824251178        3.40043105409372        1.12284700062096
C            0.38992647614388        4.50260522032318        1.95484732686688
C            0.28050580676697        5.78137255817012        1.42701337568834
C            0.12384550480532        5.95904094644393        0.06002132796583
C            0.07335703118692        4.85886246270073       -0.77598468820832
C            1.53121131673732        1.12750861419686       -0.92177133690278
C            2.72889997883669        1.35208202396638       -1.59845059737385
C            3.88440013913089        0.64478719135429       -1.26912068267477
C            3.80096316012466       -0.27631805427837       -0.23835324391880
C            2.57495825797395       -0.53999844926802        0.43695305349693
C            1.43185117923213        0.18279969931671        0.09501670593318
C            2.83722558393237       -1.58215388978842        1.37507988030217
C            2.05650140156908       -2.25545369879997        2.31522115332373
C            2.65846323834181       -3.22128410584911        3.10645122940905
C            4.01345850065344       -3.51886852054411        2.98956459344015
C            4.81332818564818       -2.86377313158079        2.05428558743088
C            4.21431914185025       -1.91733668593449        1.24185210215693
N            4.77484870729799       -1.11607462046027        0.26384064642832
C            6.11054978729872       -1.14379214108533       -0.14379377051742
C            6.84131771635700        0.04295498757429       -0.23351162603041
C            8.16187407637045        0.00987241286720       -0.63545341267176
C            8.76884464619899       -1.19696307591517       -0.95310043443431
C            8.04423219861155       -2.37706993399542       -0.86545536984894
C            6.72341448831793       -2.35730860923604       -0.46313681476365
C           -1.35256799005577        1.18994808995333       -0.99035186403994
C           -1.53011662129577        0.04693090417624       -1.77600708126525
C           -2.64035551609863       -0.77761210852250       -1.60084461635084
C           -3.54593819240264       -0.43460276322009       -0.61284643770443
C           -3.38869797979304        0.74590192964782        0.17475076428794
C           -2.27266976510967        1.56202446065863       -0.02347510040498
C           -4.52136868921033        0.82216514945231        1.03581803782398
C           -4.92445482371761        1.72032085737469        2.02537920661789
C           -6.10434962097243        1.46613251267593        2.71051342147790
C           -6.87443689701351        0.34046994626739        2.44204371902490
C           -6.49331243228575       -0.57073052500656        1.45420480653523
C           -5.33440045485570       -0.30936980429760        0.74673954994313
N           -4.72667243096561       -1.05290803114547       -0.25130105196728
C           -5.23009511400987       -2.23071500376404       -0.80406379196141
C           -6.56347110158527       -2.29951140859926       -1.21751895400286
C           -7.05728426964022       -3.46805300166058       -1.76136200701565
C           -6.23769267230508       -4.57994936204473       -1.89958172996569
C           -4.91301509700743       -4.51416119798455       -1.49021171999301
C           -4.40637946560241       -3.35095058920377       -0.94656928092203
H            0.43453971059244        2.40176888896559        1.52490033225064
H            0.51658008254221        4.36682511742689        3.01933370443327
H            0.32039753306781        6.63984657298374        2.08122638129839
H            0.04197538349870        6.95437474978760       -0.35216695153423
H           -0.04451322676172        4.96927084704904       -1.84541823146427
H            2.73941769245039        2.07928891178957       -2.39750555451365
H            4.80204900783446        0.80803069655912       -1.81253281211164
H            0.48876068315405        0.00086269134961        0.58801675618601
H            1.00848906209434       -2.02187141969732        2.42356398131791
H            2.06583895299305       -3.74979737732693        3.83930332469183
H            4.45507129234959       -4.26346522411112        3.63356467457233
H            5.86714467815131       -3.08389960670874        1.98212863485803
H            6.37310693608762        0.97604737060895        0.04194472011740
H            8.72417852510968        0.92989162244852       -0.69399613872989
H            9.80109886378801       -1.21724097161192       -1.26737561833573
H            8.50975313693977       -3.31736613866780       -1.12064660879313
H            6.14724322581778       -3.26937076054914       -0.42264683050267
H           -0.79052347451629       -0.17986611650736       -2.53125338854481
H           -2.78528154949625       -1.64173582523858       -2.23041336562695
H           -2.13586132797288        2.46307321608031        0.55509929580975
H           -4.32632739902207        2.58964632279874        2.25139134930751
H           -6.42784048263791        2.15411743394590        3.47851146278050
H           -7.77761720495108        0.16152266536074        3.00445028881361
H           -7.08352427536476       -1.45417178568603        1.26655667231138
H           -7.18822961840777       -1.42257641456476       -1.13895798969828
H           -8.08570302583840       -3.51118886304828       -2.08769164119578
H           -6.62870954507367       -5.49160318861119       -2.32451885276397
H           -4.27388954851154       -5.37910840218724       -1.58784015627676
H           -3.38549637322028       -3.30606486121892       -0.59843016507692

          :  Hamiltonian                  GFN2-xTB          :
         :: gradient norm              0.000057966023 Eh/a0 ::
         :: HOMO-LUMO gap              0.013356976818 eV    ::
         :: SCC energy              -119.344306753840 Eh    ::
         :: -> dispersion             -0.106536783328 Eh    ::
         :: -> Gsolv                  -0.056243487430 Eh    ::
         :: repulsion energy           2.139154266902 Eh    ::

    * Orbital Energies and Occupations

         #    Occupation            Energy/Eh            Energy/eV
      -------------------------------------------------------------
         1        2.0000           -0.6905422             -18.7906
       ...           ...                  ...                  ...
        98        2.0000           -0.4174011             -11.3581
        99        2.0000           -0.4163095             -11.3284
       100        2.0000           -0.4150023             -11.2928
       101        2.0000           -0.4124459             -11.2232
       102        2.0000           -0.4115423             -11.1986
       103        2.0000           -0.4103001             -11.1648
       104        2.0000           -0.4005719             -10.9001
       105        2.0000           -0.3979518             -10.8288
       106        2.0000           -0.3817516             -10.3880
       107        1.9999           -0.3807320             -10.3602
       108        1.5851           -0.3721712             -10.1273
       109        1.4150           -0.3715181             -10.1095
       110        0.5621           -0.2543406              -6.9210 (HOMO)
       111        0.4337           -0.2538498              -6.9076 (LUMO)
       112        0.0042           -0.2489006              -6.7729
       113        0.0000           -0.2416760              -6.5763
       114        0.0000           -0.2401518              -6.5349
       115                         -0.2364700              -6.4347
       116                         -0.2358059              -6.4166
       117                         -0.2340249              -6.3681
       118                         -0.2314140              -6.2971
       119                         -0.2294060              -6.2425
       120                         -0.2036760              -5.5423
       121                         -0.2032921              -5.5319
       ...                                ...                  ...
       218                          1.1821095              32.1668
      -------------------------------------------------------------
                  HL-Gap            0.0004908 Eh            0.0134 eV

     #   Z          covCN         q      C6AA      α(0)
     1   8 O        0.808    -0.401    21.725     6.248
     2  15 P        4.108     0.020   159.340    22.675
     3   6 C        2.920     0.013    27.731     8.636
     4   6 C        2.980    -0.027    28.675     8.784
     5   6 C        2.919    -0.029    28.713     8.787
     6   6 C        2.920    -0.028    28.709     8.787
     7   6 C        2.918    -0.029    28.727     8.789
     8   6 C        3.016    -0.021    28.497     8.757
     9   6 C        2.917     0.012    27.749     8.638
    10   6 C        3.032    -0.039    28.939     8.824
    11   6 C        2.907    -0.049    29.216     8.863
    12   6 C        3.062     0.047    26.885     8.503
    13   6 C        3.061    -0.020    28.451     8.747
    14   6 C        2.972    -0.040    29.001     8.833
    15   6 C        3.060    -0.019    28.422     8.743
    16   6 C        2.909    -0.039    28.972     8.826
    17   6 C        2.917    -0.029    28.721     8.788
    18   6 C        2.920    -0.047    29.156     8.855
    19   6 C        2.908    -0.045    29.115     8.848
    20   6 C        3.063     0.044    26.952     8.513
    21   7 N        2.802    -0.007    21.386     6.868
    22   6 C        2.913     0.061    26.643     8.464
    23   6 C        2.921    -0.038    28.949     8.823
    24   6 C        2.918    -0.025    28.636     8.775
    25   6 C        2.919    -0.029    28.732     8.790
    26   6 C        2.918    -0.025    28.639     8.776
    27   6 C        2.921    -0.038    28.954     8.824
    28   6 C        2.917     0.016    27.659     8.624
    29   6 C        3.047    -0.041    28.968     8.827
    30   6 C        2.906    -0.048    29.181     8.858
    31   6 C        3.059     0.046    26.920     8.509
    32   6 C        3.062    -0.021    28.462     8.749
    33   6 C        2.962    -0.039    28.960     8.827
    34   6 C        3.058    -0.019    28.434     8.745
    35   6 C        2.909    -0.040    28.986     8.828
    36   6 C        2.916    -0.028    28.706     8.786
    37   6 C        2.919    -0.047    29.178     8.858
    38   6 C        2.908    -0.045    29.105     8.846
    39   6 C        3.062     0.044    26.958     8.514
    40   7 N        2.801    -0.005    21.353     6.863
    41   6 C        2.913     0.060    26.657     8.466
    42   6 C        2.920    -0.038    28.955     8.824
    43   6 C        2.918    -0.026    28.643     8.776
    44   6 C        2.918    -0.030    28.744     8.792
    45   6 C        2.918    -0.025    28.639     8.776
    46   6 C        2.920    -0.039    28.959     8.825
    47   1 H        0.926     0.042     2.422     2.434
    48   1 H        0.926     0.042     2.427     2.436
    49   1 H        0.926     0.042     2.422     2.434
    50   1 H        0.926     0.039     2.458     2.452
    51   1 H        0.925     0.043     2.403     2.424
    52   1 H        0.926     0.037     2.494     2.470
    53   1 H        0.926     0.039     2.462     2.454
    54   1 H        0.926     0.033     2.549     2.497
    55   1 H        0.926     0.030     2.579     2.511
    56   1 H        0.926     0.034     2.530     2.487
    57   1 H        0.926     0.032     2.553     2.498
    58   1 H        0.926     0.037     2.483     2.464
    59   1 H        0.926     0.046     2.374     2.410
    60   1 H        0.926     0.046     2.367     2.406
    61   1 H        0.926     0.046     2.374     2.410
    62   1 H        0.926     0.047     2.352     2.398
    63   1 H        0.926     0.048     2.339     2.392
    64   1 H        0.926     0.031     2.577     2.510
    65   1 H        0.926     0.039     2.456     2.451
    66   1 H        0.926     0.033     2.547     2.496
    67   1 H        0.926     0.030     2.588     2.516
    68   1 H        0.926     0.034     2.533     2.489
    69   1 H        0.926     0.032     2.554     2.499
    70   1 H        0.926     0.038     2.475     2.460
    71   1 H        0.926     0.048     2.348     2.396
    72   1 H        0.926     0.047     2.359     2.402
    73   1 H        0.926     0.045     2.379     2.412
    74   1 H        0.926     0.046     2.365     2.405
    75   1 H        0.926     0.046     2.364     2.404

molecular dipole:
                 x           y           z       tot (Debye)
 q only:        0.489      -2.324       1.571
   full:        0.541      -2.303       1.587       7.240

 projected vibrational frequencies (cm⁻¹)
eigval :       -0.00    -0.00    -0.00    -0.00     0.00     0.00
eigval :        0.75     8.04    10.80    22.80    32.85    35.41
eigval :       46.57    49.56    55.38    59.48    63.01    67.89
eigval :       83.21    92.81   107.01   114.66   119.24   128.84
eigval :      164.14   167.47   177.76   191.02   207.89   213.20
eigval :      228.33   233.66   243.86   252.87   258.84   267.38
eigval :      295.51   310.20   325.20   339.60   362.27   365.12
eigval :      367.01   373.05   373.70   377.50   385.25   401.42
eigval :      413.08   413.92   417.74   440.79   446.08   463.82
eigval :      465.41   488.50   492.71   529.81   531.07   539.63
eigval :      546.92   554.04   561.45   576.30   577.02   584.30
eigval :      584.80   585.02   605.27   606.03   632.01   642.86
eigval :      650.81   651.42   652.40   662.29   666.18   682.44
eigval :      682.91   697.33   710.74   722.00   735.36   747.40
eigval :      747.87   755.78   760.08   767.21   773.79   798.56
eigval :      804.36   817.72   822.26   828.02   830.37   850.50
eigval :      856.44   863.86   866.67   873.17   873.32   877.85
eigval :      894.34   896.35   896.89   898.29   898.84   903.24
eigval :      906.45   910.05   915.93   922.45   924.34   926.86
eigval :      927.14   929.55   930.41   971.19   983.93   985.39
eigval :     1008.58  1009.65  1035.01  1055.63  1067.08  1067.78
eigval :     1070.68  1072.59  1074.65  1085.22  1089.10  1096.57
eigval :     1109.84  1110.46  1112.35  1116.65  1117.15  1124.67
eigval :     1159.59  1160.73  1169.61  1175.95  1176.49  1176.58
eigval :     1185.42  1187.36  1190.81  1192.11  1194.97  1203.14
eigval :     1207.59  1225.59  1229.95  1235.82  1240.59  1244.00
eigval :     1264.21  1267.41  1270.31  1279.68  1285.96  1318.94
eigval :     1319.59  1320.19  1320.89  1323.38  1358.89  1369.03
eigval :     1380.83  1385.21  1388.58  1399.27  1407.34  1417.79
eigval :     1420.31  1425.62  1428.13  1428.35  1441.18  1442.34
eigval :     1448.60  1451.99  1456.71  1462.57  1475.32  1504.87
eigval :     1513.43  1518.61  1521.26  1525.77  1531.32  1535.87
eigval :     1553.06  1554.19  1558.20  1581.23  3064.05  3065.33
eigval :     3070.11  3072.11  3073.19  3074.94  3075.68  3078.31
eigval :     3080.79  3081.14  3081.32  3082.29  3082.36  3082.39
eigval :     3086.40  3087.30  3089.86  3090.56  3091.05  3091.36
eigval :     3091.78  3092.52  3092.97  3094.37  3095.01  3098.67
eigval :     3099.78  3100.64  3101.44

   temp. (K)  partition function   enthalpy   heat capacity  entropy
                                   cal/mol     cal/K/mol   cal/K/mol   J/K/mol
 298.15  VIB  0.174E+17            21429.425    138.293    132.664
         ROT  0.837E+08              888.752      2.981     39.234
         INT  0.145E+25            22318.177    141.274    171.897
         TR   0.145E+29             1481.254      4.968     45.081
         TOT                       23799.4313   146.2422   216.9783   907.8371

       T/K    H(0)-H(T)+PV         H(T)/Eh          T*S/Eh         G(T)/Eh
   ------------------------------------------------------------------------
    298.15    0.379268E-01    0.602077E+00    0.103093E+00    0.498984E+00
   ------------------------------------------------------------------------

         :::::::::::::::::::::::::::::::::::::::::::::::::::::
         ::                  THERMODYNAMIC                  ::
         :::::::::::::::::::::::::::::::::::::::::::::::::::::
         :: total free energy        -116.706168962017 Eh   ::
         ::.................................................::
         :: total energy             -117.205152486796 Eh   ::
         :: zero point energy           0.564150093758 Eh   ::
         :: G(RRHO) w/o ZPVE           -0.065166568978 Eh   ::
         :: G(RRHO) contrib.            0.498983524779 Eh   ::
         :::::::::::::::::::::::::::::::::::::::::::::::::::::

           -------------------------------------------------
          | TOTAL ENERGY             -117.205152486796 Eh   |
          | TOTAL ENTHALPY           -116.603075585068 Eh   |
          | TOTAL FREE ENERGY        -116.706168962017 Eh   |
          | GRADIENT NORM               0.000057813239 Eh/α |
          | HOMO-LUMO GAP               0.013355992142 eV   |
           -------------------------------------------------

 * finished run on 2025/07/18 at 01:01:02.477
