   * xtb version 6.7.1 (edcfbbe) compiled by 'albert@albert-system' on 2024-07-22

   ID    Z sym.   atoms
    1    8 O      1
    2   15 P      2
    3    6 C      3-20, 22-39, 41-46
    4    7 N      21, 40
    5    1 H      47-75

          program call               : xtb data2507/toluene/3DCPO/3DCPO_toluene_T1_crest.xyz --gfn 2 --uhf 2 --gbsa toluene --ohess vtight --parallel 40 --molden --ceasefiles --namespace data2507/toluene/3DCPO/3DCPO_toluene_T1_finalOpt
      * Solvation model:               GBSA
        Solvent                        toluene
        Solvent mass                       9.2140E+01 g/mol
          :  Hamiltonian                  GFN2-xTB          :
 * total energy  :  -117.2049574 Eh     change       -0.1664574E-08 Eh
 * total energy  :  -117.2050675 Eh     change       -0.1101357E-03 Eh
 * total energy  :  -117.2051086 Eh     change       -0.4104134E-04 Eh
 * total energy  :  -117.2051164 Eh     change       -0.7797865E-05 Eh
 * total energy  :  -117.2051249 Eh     change       -0.8541729E-05 Eh
 * total energy  :  -117.2051337 Eh     change       -0.8783400E-05 Eh
 * total energy  :  -117.2051421 Eh     change       -0.8428757E-05 Eh
 * total energy  :  -117.2051485 Eh     change       -0.6349603E-05 Eh
 * total energy  :  -117.2051524 Eh     change       -0.3874476E-05 Eh
 * total energy  :  -117.2051551 Eh     change       -0.2765115E-05 Eh
 * total energy  :  -117.2052339 Eh     change       -0.3659867E-06 Eh
 * total energy  :  -117.2052342 Eh     change       -0.3032712E-06 Eh
 * total energy  :  -117.2052345 Eh     change       -0.2964926E-06 Eh
 * total energy  :  -117.2052347 Eh     change       -0.2530210E-06 Eh
 * total energy  :  -117.2052350 Eh     change       -0.2626989E-06 Eh
 * total energy  :  -117.2052353 Eh     change       -0.3343300E-06 Eh
 * total energy  :  -117.2052358 Eh     change       -0.5109192E-06 Eh
 * total energy  :  -117.2052366 Eh     change       -0.8072004E-06 Eh
 * total energy  :  -117.2052367 Eh     change       -0.7855749E-07 Eh
   *** GEOMETRY OPTIMIZATION CONVERGED AFTER 68 ITERATIONS ***

 final structure:
================
75
 xtb: 6.7.1 (edcfbbe)
O            0.17541176616516        2.74148930950700       -2.79217454983277
P            0.11973612267399        2.26565214098101       -1.39482163729434
C            0.11113701218243        3.63298588517183       -0.18910765610571
C           -0.45601009819523        4.83126433205666       -0.60561689482524
C           -0.51447680600285        5.90964530327361        0.25774342302605
C           -0.00277620366390        5.79402112164400        1.54146162572456
C            0.57161416615181        4.60201688215250        1.95596579818452
C            0.62997591438691        3.52041769734614        1.09549007219860
C            1.52547446798452        1.20780097660232       -0.93890169936738
C            2.69416124987297        1.37317588838665       -1.68015053903554
C            3.83901438266392        0.62896286394258       -1.39194644000193
C            3.77629679243937       -0.26386753341141       -0.33665495642761
C            2.57711824463091       -0.46586057472718        0.40657004957763
C            1.44145447520740        0.28404578810573        0.09802159533691
C            2.84993516956709       -1.48871094695242        1.36140996535441
C            2.09640066435697       -2.10304563965521        2.36284222159873
C            2.70545059823094       -3.06475501993465        3.15369421267805
C            4.04096816302826       -3.41620039284277        2.97680577787637
C            4.81256972912914       -2.82161759851974        1.97895229524576
C            4.20544968681288       -1.87925631738788        1.16802455782547
N            4.74324727731933       -1.12807238485304        0.13858600984402
C            6.04740381686329       -1.23502873192460       -0.34912039987156
C            6.82805850661040       -0.09070621716390       -0.52875556685092
C            8.11568184161265       -0.20430793883801       -1.01399284329761
C            8.64088251708999       -1.45027189145736       -1.32663550008499
C            7.86737383054249       -2.58859112354715       -1.14814102546981
C            6.57898197074483       -2.48833881070634       -0.66221688466044
C           -1.36539608144881        1.28119462511975       -1.03238517515936
C           -1.90263751846292        0.56413543932711       -2.10203422998937
C           -3.03569238299439       -0.23291202671453       -1.93449018806105
C           -3.60189536550718       -0.28824026008358       -0.67383578539706
C           -3.03969339296255        0.41141947567254        0.43564004877183
C           -1.91671529906056        1.21753650335877        0.24175529234049
C           -3.82951283217768        0.08202503729574        1.57491191906551
C           -3.78995549953820        0.45381300950766        2.92007253069711
C           -4.76351829950103       -0.04305002661466        3.77384234086690
C           -5.77242323992134       -0.88536770496936        3.31808015967344
C           -5.83084810492146       -1.27449834942981        1.97861845662268
C           -4.84868715698649       -0.80500617490143        1.12593923607985
N           -4.69170502160657       -1.01277635094868       -0.23375569249735
C           -5.50889646395838       -1.81606924282639       -1.03050123090925
C           -6.01807515440239       -1.32545240473235       -2.23582944100107
C           -6.83191453191456       -2.12250632937103       -3.01542962071806
C           -7.14785722567425       -3.41233806522595       -2.61100453027873
C           -6.64100390605025       -3.90300358676312       -1.41569116450631
C           -5.82746068496449       -3.11537202804814       -0.62622230111702
H           -0.83931674660389        4.89935052361822       -1.61481725471697
H           -0.95722178714062        6.83937813751397       -0.06903808639704
H           -0.04721902877297        6.63499371386461        2.21777668339323
H            0.97694569232885        4.51546653957408        2.95387668985271
H            1.08481970247249        2.59216466439567        1.41188141814705
H            2.69278674269046        2.08560919976914       -2.49190486912316
H            4.73226905387367        0.74690125789360       -1.98522825353827
H            0.51751278495394        0.13916889452517        0.63662193087583
H            1.06394702409335       -1.82913953926575        2.51664781195787
H            2.13428849142533       -3.54697407000608        3.93405881293320
H            4.49015020546818       -4.15520190695632        3.62201968361420
H            5.85241443203449       -3.08352906213948        1.85929952067374
H            6.42570262992384        0.87379442752977       -0.25770723205793
H            8.71698195734350        0.68343349068545       -1.14240623119082
H            9.64711726728442       -1.53361379694775       -1.70773300485993
H            8.26882820460219       -3.55933278739689       -1.39816176547146
H            5.96295889083258       -3.36802696081776       -0.55133203810893
H           -1.42537439707929        0.64387048729555       -3.06762604356316
H           -3.43709979956302       -0.79450627829759       -2.76363065218463
H           -1.49390304687702        1.78424826098903        1.05734610324032
H           -3.02115913162697        1.11927980537080        3.28153062521310
H           -4.74517980242304        0.23821622129889        4.81706612640277
H           -6.52544339374246       -1.24045496506689        4.00430413144024
H           -6.62892575815207       -1.90940207910908        1.62640637560356
H           -5.79534960832394       -0.31112041307703       -2.53134960366522
H           -7.23053622045691       -1.73316915621826       -3.94042082135063
H           -7.78475842585848       -4.03119068242339       -3.22419618543549
H           -6.87550812776466       -4.90937987166589       -1.10213625271568
H           -5.40615510841323       -3.50394769854156        0.28858431341200

          :  Hamiltonian                  GFN2-xTB          :
         :: gradient norm              0.000092069791 Eh/a0 ::
         :: HOMO-LUMO gap              0.008221003653 eV    ::
         :: SCC energy              -119.344379418219 Eh    ::
         :: -> dispersion             -0.106396587741 Eh    ::
         :: -> Gsolv                  -0.055802794190 Eh    ::
         :: repulsion energy           2.139142714436 Eh    ::

    * Orbital Energies and Occupations

         #    Occupation            Energy/Eh            Energy/eV
      -------------------------------------------------------------
         1        2.0000           -0.6906787             -18.7943
       ...           ...                  ...                  ...
        98        2.0000           -0.4175910             -11.3632
        99        2.0000           -0.4159990             -11.3199
       100        2.0000           -0.4150493             -11.2941
       101        2.0000           -0.4131125             -11.2414
       102        2.0000           -0.4122894             -11.2190
       103        2.0000           -0.4096444             -11.1470
       104        2.0000           -0.4002709             -10.8919
       105        2.0000           -0.3982160             -10.8360
       106        2.0000           -0.3809795             -10.3670
       107        1.9999           -0.3804974             -10.3539
       108        1.6226           -0.3718475             -10.1185
       109        1.3776           -0.3708971             -10.0926
       110        0.5395           -0.2537385              -6.9046 (HOMO)
       111        0.4602           -0.2534364              -6.8964 (LUMO)
       112        0.0003           -0.2458928              -6.6911
       113        0.0000           -0.2440699              -6.6415
       114        0.0000           -0.2398620              -6.5270
       115                         -0.2361881              -6.4270
       116                         -0.2358539              -6.4179
       117                         -0.2356565              -6.4125
       118                         -0.2308999              -6.2831
       119                         -0.2300849              -6.2609
       120                         -0.2049393              -5.5767
       121                         -0.2015162              -5.4835
       ...                                ...                  ...
       218                          1.1685033              31.7966
      -------------------------------------------------------------
                  HL-Gap            0.0003021 Eh            0.0082 eV

     #   Z          covCN         q      C6AA      α(0)
     1   8 O        0.808    -0.403    21.755     6.252
     2  15 P        4.100     0.027   159.047    22.654
     3   6 C        2.920     0.014    27.711     8.632
     4   6 C        3.026    -0.020    28.473     8.753
     5   6 C        2.918    -0.028    28.699     8.785
     6   6 C        2.920    -0.027    28.677     8.782
     7   6 C        2.919    -0.028    28.703     8.786
     8   6 C        2.970    -0.027    28.671     8.783
     9   6 C        2.917     0.012    27.740     8.637
    10   6 C        3.030    -0.040    28.969     8.828
    11   6 C        2.907    -0.049    29.212     8.862
    12   6 C        3.061     0.047    26.891     8.504
    13   6 C        3.061    -0.021    28.479     8.751
    14   6 C        2.972    -0.042    29.036     8.839
    15   6 C        3.059    -0.019    28.429     8.744
    16   6 C        2.909    -0.040    28.991     8.829
    17   6 C        2.917    -0.029    28.715     8.787
    18   6 C        2.920    -0.047    29.176     8.858
    19   6 C        2.907    -0.045    29.123     8.849
    20   6 C        3.062     0.044    26.953     8.514
    21   7 N        2.801    -0.007    21.391     6.869
    22   6 C        2.913     0.060    26.650     8.465
    23   6 C        2.920    -0.038    28.956     8.824
    24   6 C        2.918    -0.026    28.640     8.776
    25   6 C        2.919    -0.030    28.741     8.791
    26   6 C        2.918    -0.026    28.644     8.777
    27   6 C        2.921    -0.038    28.956     8.824
    28   6 C        2.917     0.013    27.722     8.634
    29   6 C        3.033    -0.042    28.999     8.833
    30   6 C        2.906    -0.048    29.201     8.861
    31   6 C        3.060     0.047    26.898     8.505
    32   6 C        3.061    -0.021    28.480     8.752
    33   6 C        2.970    -0.041    29.015     8.836
    34   6 C        3.058    -0.020    28.443     8.746
    35   6 C        2.909    -0.040    29.003     8.831
    36   6 C        2.916    -0.028    28.711     8.787
    37   6 C        2.919    -0.048    29.192     8.860
    38   6 C        2.908    -0.045    29.117     8.848
    39   6 C        3.062     0.044    26.959     8.514
    40   7 N        2.801    -0.006    21.372     6.866
    41   6 C        2.913     0.060    26.658     8.466
    42   6 C        2.920    -0.038    28.953     8.824
    43   6 C        2.918    -0.026    28.642     8.776
    44   6 C        2.918    -0.030    28.748     8.792
    45   6 C        2.918    -0.026    28.645     8.777
    46   6 C        2.920    -0.039    28.961     8.825
    47   1 H        0.925     0.042     2.421     2.433
    48   1 H        0.926     0.041     2.438     2.442
    49   1 H        0.926     0.044     2.402     2.424
    50   1 H        0.926     0.043     2.414     2.430
    51   1 H        0.926     0.041     2.430     2.438
    52   1 H        0.926     0.038     2.476     2.461
    53   1 H        0.926     0.039     2.464     2.455
    54   1 H        0.926     0.037     2.490     2.468
    55   1 H        0.926     0.031     2.577     2.510
    56   1 H        0.926     0.034     2.537     2.491
    57   1 H        0.926     0.032     2.564     2.504
    58   1 H        0.926     0.037     2.493     2.469
    59   1 H        0.926     0.046     2.373     2.409
    60   1 H        0.926     0.046     2.370     2.408
    61   1 H        0.926     0.045     2.380     2.412
    62   1 H        0.926     0.047     2.358     2.402
    63   1 H        0.926     0.048     2.347     2.396
    64   1 H        0.926     0.036     2.501     2.473
    65   1 H        0.926     0.039     2.467     2.456
    66   1 H        0.926     0.035     2.512     2.478
    67   1 H        0.926     0.030     2.585     2.514
    68   1 H        0.926     0.033     2.540     2.492
    69   1 H        0.926     0.031     2.568     2.506
    70   1 H        0.926     0.037     2.491     2.468
    71   1 H        0.926     0.045     2.383     2.414
    72   1 H        0.926     0.046     2.375     2.410
    73   1 H        0.926     0.045     2.382     2.413
    74   1 H        0.926     0.047     2.357     2.401
    75   1 H        0.926     0.048     2.341     2.393

molecular dipole:
                 x           y           z       tot (Debye)
 q only:        0.242      -2.095       1.317
   full:        0.253      -2.086       1.313       6.298

 projected vibrational frequencies (cm⁻¹)
eigval :       -0.00     0.00     0.00     0.00     0.00     0.00
eigval :        5.88     6.91    10.56    20.25    25.26    36.71
eigval :       47.02    48.66    54.76    58.43    62.07    64.02
eigval :       84.81    94.54   102.59   117.19   120.85   127.68
eigval :      168.81   173.56   178.63   192.47   204.89   209.79
eigval :      228.61   240.10   244.08   256.24   259.56   267.41
eigval :      291.33   310.92   322.01   338.73   363.15   363.34
eigval :      365.72   370.74   375.99   379.46   393.43   402.61
eigval :      410.53   414.75   423.10   439.24   451.47   460.70
eigval :      466.17   486.88   496.50   526.44   531.24   538.68
eigval :      546.35   552.16   561.58   575.99   576.54   583.42
eigval :      584.30   585.17   605.24   606.15   632.12   641.93
eigval :      650.97   651.78   654.86   663.04   665.29   681.98
eigval :      682.36   696.40   711.17   721.64   738.03   745.13
eigval :      748.28   755.84   757.04   771.79   779.46   798.46
eigval :      803.62   813.67   822.22   827.30   830.88   851.73
eigval :      858.18   863.26   866.01   873.83   877.58   877.95
eigval :      894.57   896.19   897.50   898.28   899.71   903.60
eigval :      904.40   907.58   916.12   924.48   925.37   927.47
eigval :      928.19   929.36   929.71   970.49   983.76   985.20
eigval :     1007.52  1009.91  1043.14  1054.11  1060.42  1068.23
eigval :     1071.24  1073.99  1074.74  1086.69  1090.23  1108.56
eigval :     1110.56  1110.83  1112.43  1115.59  1116.09  1124.66
eigval :     1159.23  1160.08  1170.20  1173.75  1173.79  1174.34
eigval :     1186.86  1189.61  1190.59  1191.19  1196.40  1201.82
eigval :     1211.64  1226.95  1228.45  1235.57  1239.42  1244.78
eigval :     1262.65  1269.49  1270.82  1279.03  1285.12  1317.38
eigval :     1319.17  1319.89  1320.03  1320.82  1359.15  1372.77
eigval :     1381.04  1383.83  1392.42  1395.24  1406.26  1417.02
eigval :     1419.94  1425.42  1427.50  1428.31  1443.79  1446.46
eigval :     1447.92  1454.15  1455.63  1460.44  1481.34  1507.57
eigval :     1510.98  1520.22  1522.29  1524.73  1528.04  1548.63
eigval :     1552.52  1557.97  1565.04  1582.77  3063.68  3065.33
eigval :     3072.69  3072.89  3073.52  3077.95  3078.57  3079.69
eigval :     3079.96  3080.68  3081.00  3081.82  3082.82  3084.25
eigval :     3085.73  3086.45  3089.39  3089.89  3090.45  3090.89
eigval :     3091.56  3092.70  3093.52  3093.84  3094.50  3097.89
eigval :     3099.26  3100.40  3100.83

   temp. (K)  partition function   enthalpy   heat capacity  entropy
                                   cal/mol     cal/K/mol   cal/K/mol   J/K/mol
 298.15  VIB  0.104E+19            22013.529    139.059    138.583
         ROT  0.832E+08              888.752      2.981     39.222
         INT  0.867E+26            22902.281    142.040    177.805
         TR   0.145E+29             1481.254      4.968     45.081
         TOT                       24383.5350   147.0082   222.8865   932.5569

       T/K    H(0)-H(T)+PV         H(T)/Eh          T*S/Eh         G(T)/Eh
   ------------------------------------------------------------------------
    298.15    0.388576E-01    0.603155E+00    0.105901E+00    0.497254E+00
   ------------------------------------------------------------------------

         :::::::::::::::::::::::::::::::::::::::::::::::::::::
         ::                  THERMODYNAMIC                  ::
         :::::::::::::::::::::::::::::::::::::::::::::::::::::
         :: total free energy        -116.707982660104 Eh   ::
         ::.................................................::
         :: total energy             -117.205236706755 Eh   ::
         :: zero point energy           0.564296956842 Eh   ::
         :: G(RRHO) w/o ZPVE           -0.067042910191 Eh   ::
         :: G(RRHO) contrib.            0.497254046651 Eh   ::
         :::::::::::::::::::::::::::::::::::::::::::::::::::::

           -------------------------------------------------
          | TOTAL ENERGY             -117.205236706755 Eh   |
          | TOTAL ENTHALPY           -116.602082113421 Eh   |
          | TOTAL FREE ENERGY        -116.707982660104 Eh   |
          | GRADIENT NORM               0.000092062476 Eh/α |
          | HOMO-LUMO GAP               0.008220636635 eV   |
           -------------------------------------------------

 * finished run on 2025/07/18 at 01:12:06.132
