   * xtb version 6.7.1 (edcfbbe) compiled by 'albert@albert-system' on 2024-07-22

   ID    Z sym.   atoms
    1    6 C      1-13, 15-19, 21-25, 27-42, 44-48, 50-65, 67-69
    2    7 N      14, 20, 26, 43, 49, 66
    3    1 H      70-117

          program call               : xtb data2507/toluene/MeCZ-TRZ/MeCZ-TRZ_toluene_S0_crest.xyz --gfn 2 --gbsa toluene --ohess vtight --parallel 40 --molden --ceasefiles --namespace data2507/toluene/MeCZ-TRZ/MeCZ-TRZ_toluene_S0_finalOpt
      * Solvation model:               GBSA
        Solvent                        toluene
        Solvent mass                       9.2140E+01 g/mol
          :  Hamiltonian                  GFN2-xTB          :
 * total energy  :  -177.1846181 Eh     change       -0.2710891E-08 Eh
 * total energy  :  -177.1846620 Eh     change       -0.4387318E-04 Eh
 * total energy  :  -177.1846758 Eh     change       -0.1378038E-04 Eh
 * total energy  :  -177.1846812 Eh     change       -0.5429834E-05 Eh
 * total energy  :  -177.1846862 Eh     change       -0.4988472E-05 Eh
 * total energy  :  -177.1846885 Eh     change       -0.2240059E-05 Eh
 * total energy  :  -177.1846908 Eh     change       -0.2322178E-05 Eh
 * total energy  :  -177.1846926 Eh     change       -0.1814506E-05 Eh
 * total energy  :  -177.1846942 Eh     change       -0.1651645E-05 Eh
 * total energy  :  -177.1846961 Eh     change       -0.1824416E-05 Eh
 * total energy  :  -177.1847100 Eh     change       -0.2041351E-06 Eh
 * total energy  :  -177.1847103 Eh     change       -0.2994907E-06 Eh
 * total energy  :  -177.1847107 Eh     change       -0.4020161E-06 Eh
 * total energy  :  -177.1847111 Eh     change       -0.3972193E-06 Eh
 * total energy  :  -177.1847112 Eh     change       -0.1483403E-06 Eh
 * total energy  :  -177.1847114 Eh     change       -0.2216534E-06 Eh
 * total energy  :  -177.1847112 Eh     change        0.1849569E-06 Eh
 * total energy  :  -177.1847115 Eh     change       -0.2446274E-06 Eh
 * total energy  :  -177.1847115 Eh     change       -0.4360723E-07 Eh
   *** GEOMETRY OPTIMIZATION CONVERGED AFTER 48 ITERATIONS ***

 final structure:
================
117
 xtb: 6.7.1 (edcfbbe)
C           -5.60773976904635       -9.46264471815128        3.26635587093602
C           -4.84250109093821       -8.61601941985117        2.29183017313238
C           -4.42832058232144       -7.33485323541122        2.67439822861398
C           -3.72731135479958       -6.50310846124273        1.82435497194957
C           -3.44495157764170       -6.97062515059854        0.54891811269999
C           -3.82509415248881       -8.27124980641629        0.15137929069411
C           -4.53023183451831       -9.08668628041676        1.02823518606877
C           -3.31804222526053       -8.45379778097134       -1.18085542345479
C           -3.37174346112380       -9.49805982560690       -2.09547182638531
C           -2.76263538780633       -9.33466977260228       -3.32422977125639
C           -2.11173670250038       -8.14647265717720       -3.65201064228601
C           -2.04724445676201       -7.09145620546722       -2.76170543552096
C           -2.64602169920437       -7.25635994459000       -1.52108887876028
N           -2.74739688796040       -6.36303674678925       -0.47542416710067
C           -2.20154478975423       -5.06866908773523       -0.44984917445260
C           -0.81925144890758       -4.91779908112004       -0.53918541795265
C           -0.24772959698974       -3.66443733540712       -0.50078022548207
C           -1.06003751118616       -2.53818310096837       -0.37523873551020
C           -0.46901998609218       -1.20281031356507       -0.31180519783983
N            0.85809484626004       -1.10914569005743       -0.27515916140113
C            1.35279576889837        0.12377234918042       -0.19244986200535
C            2.80477338713007        0.27781718691174       -0.12954845542942
C            3.63332321313720       -0.84323986344748       -0.10083664463433
C            5.00035977363885       -0.68059809357957       -0.04211919844385
C            5.56176512119467        0.59451301162930       -0.00996024684651
N            6.95961689156956        0.71846703454698        0.04732076429114
C            7.76749035741128        1.31016011675543       -0.90013140426970
C            7.42621212627132        1.86098340195413       -2.12728323997602
C            8.44387175396020        2.37800035249125       -2.90651276275317
C            9.77210856492025        2.33848043999435       -2.48663304587149
C           10.12068903006144        1.75987739556971       -1.28194154715163
C            9.11606457774365        1.23425635728958       -0.47948527921864
C            9.11068694717340        0.54898006198112        0.78368712796918
C           10.10737032007101        0.18589961660354        1.68142845610387
C            9.76344385207930       -0.47876785738970        2.84567643205123
C           10.81005499629828       -0.89108739363021        3.83910025812320
C            8.41855180998785       -0.76765997924865        3.10623115527198
C            7.40753472193988       -0.41667491335587        2.23425160963896
C            7.76235838830767        0.23660481007513        1.06309385968314
C            4.74283508847167        1.73225573963254       -0.00686896945725
C            5.32111505103228        3.10878156151543        0.11129489619746
C            3.37166724566563        1.54929689682292       -0.07723451685368
N            0.60628618514045        1.22519989302866       -0.15859555462035
C           -0.71038248487485        1.03880345504846       -0.21230582847736
C           -1.57203583801981        2.21894363336323       -0.18607488184957
C           -2.95265073926695        2.08814785920885       -0.33126405805346
C           -3.75069686665150        3.21113945024729       -0.31295552592949
C           -3.19014456933383        4.47624524913495       -0.14744154282767
N           -4.03546199308249        5.59787243450613       -0.14238776817471
C           -4.01932072118958        6.63331735329728       -1.05226576514375
C           -3.23643583550789        6.79428005163412       -2.18667149427097
C           -3.43601856735587        7.92837120873574       -2.95089894286267
C           -4.39838449795591        8.87589641217254       -2.60690661205802
C           -5.20313796162077        8.70309593310981       -1.49774375567071
C           -5.02233922405541        7.57134514048163       -0.71283684447011
C           -5.67966911995177        7.05867184030946        0.45788119351708
C           -6.72108972688818        7.52206393643376        1.25278986952343
C           -7.12793537117764        6.77356026991932        2.34355293152961
C           -8.25337435372988        7.23527028765036        3.22245592094757
C           -6.48026895807534        5.56723416095111        2.63535008289166
C           -5.44138540608903        5.08397861281777        1.86542697159216
C           -5.04938814148150        5.83314412374732        0.76572706620400
C           -1.80804626263160        4.62336515970090        0.03409351423513
C           -1.19548758160100        5.96420826530432        0.29869079105698
C           -1.02041901609360        3.48444223256108        0.00024681009216
N           -1.29123435621326       -0.15650261900442       -0.28470302851314
C           -2.44285111130012       -2.69474339359224       -0.31188261835568
C           -3.03528110248657       -3.94607426861581       -0.35409039749012
C           -4.52635703294548       -4.08437674812016       -0.33233432720177
H           -5.83209367131342      -10.43788518477882        2.84180051288281
H           -6.54563123098401       -8.97718974922073        3.53564692073825
H           -5.03278999804923       -9.60497900421917        4.18096913881413
H           -4.66204677713612       -6.99137685716469        3.67225803450843
H           -3.39387699300225       -5.52836956386061        2.14904326729350
H           -4.82378083637561      -10.08116747846031        0.72523725413450
H           -3.88181560281464      -10.41713052161559       -1.84807803236037
H           -2.79147290618156      -10.13645196681807       -4.04761443391072
H           -1.64989540078794       -8.04747115803214       -4.62373479998188
H           -1.54921857713778       -6.16886190020238       -3.02155959097950
H           -0.20167010088275       -5.79965966056078       -0.62746857660519
H            0.82129743116203       -3.53775694203492       -0.56056345997851
H            3.18996962760961       -1.82559388856606       -0.12961387400772
H            5.65445606485151       -1.54012822357343       -0.02855429712554
H            6.40212163606036        1.86867438759823       -2.47022428023527
H            8.20571718557302        2.81669346200154       -3.86479691307537
H           10.53896902125792        2.75526336757965       -3.12311028570068
H           11.15317853613058        1.70998743421080       -0.96966356550351
H           11.13957644812292        0.42432202226555        1.47009363612820
H           10.79789379263315       -1.97197938064810        3.97748314265099
H           10.61803161994115       -0.43010585942098        4.80770086973976
H           11.80124709215747       -0.59558684553542        3.50460600080752
H            8.16724121473320       -1.28107355670329        4.02354685890118
H            6.37481790368639       -0.64134161612403        2.45737446484693
H            4.57249011019045        3.79855264924611        0.49187793702175
H            6.17869025515696        3.10841591639156        0.78165392591511
H            5.66053807594307        3.47408557517219       -0.85734114865134
H            2.71213565133566        2.40343094265295       -0.07792286224176
H           -3.37605421456427        1.10612139126246       -0.46764353294801
H           -4.82038454350193        3.12579070859692       -0.43651694989056
H           -2.50882348417074        6.04897502430551       -2.47232205293693
H           -2.83794630287642        8.08106341884252       -3.83772761854825
H           -4.52270436504386        9.75063924550740       -3.22840057159880
H           -5.96361572103519        9.42761053097471       -1.24709008234655
H           -7.20519755901823        8.45903887580163        1.01899399936814
H           -7.91796320636635        7.32606349101150        4.25517423517426
H           -8.63255507481444        8.19967598261410        2.89410517643714
H           -9.07139302014053        6.51536288646406        3.20110899836520
H           -6.80637572202449        4.99893879173658        3.49494862917751
H           -4.94962008594978        4.15456526792954        2.11216511499272
H           -1.85754459801823        6.57499931858211        0.90966754109355
H           -1.01654551240967        6.50175432622840       -0.63193185641775
H           -0.24477740880167        5.84704764452591        0.81216534938143
H            0.04720469233235        3.56185423872790        0.13734736819889
H           -3.05502254413639       -1.80910183876247       -0.23700436474754
H           -4.87947800309451       -4.32727493419529        0.66934607690334
H           -4.84748106903393       -4.88408861706568       -0.99733278157648
H           -4.99429143701027       -3.15389075134975       -0.64255685934120

          :  Hamiltonian                  GFN2-xTB          :
         :: gradient norm              0.000029372248 Eh/a0 ::
         :: HOMO-LUMO gap              1.807434948992 eV    ::
         :: SCC energy              -180.400172752767 Eh    ::
         :: -> dispersion             -0.160654636547 Eh    ::
         :: -> Gsolv                  -0.076976104056 Eh    ::
         :: repulsion energy           3.215461225119 Eh    ::

    * Orbital Energies and Occupations

         #    Occupation            Energy/Eh            Energy/eV
      -------------------------------------------------------------
         1        2.0000           -0.6909640             -18.8021
       ...           ...                  ...                  ...
       153        2.0000           -0.4083876             -11.1128
       154        2.0000           -0.4075799             -11.0908
       155        2.0000           -0.4008817             -10.9085
       156        2.0000           -0.4008655             -10.9081
       157        2.0000           -0.4004258             -10.8961
       158        2.0000           -0.3816205             -10.3844
       159        2.0000           -0.3813004             -10.3757
       160        2.0000           -0.3770009             -10.2587
       161        2.0000           -0.3769836             -10.2582
       162        2.0000           -0.3769642             -10.2577
       163        2.0000           -0.3615621              -9.8386
       164        2.0000           -0.3615019              -9.8370
       165        2.0000           -0.3612018              -9.8288 (HOMO)
       166                         -0.2947797              -8.0214 (LUMO)
       167                         -0.2947059              -8.0194
       168                         -0.2553265              -6.9478
       169                         -0.2441415              -6.6434
       170                         -0.2441058              -6.6425
       171                         -0.2432815              -6.6200
       172                         -0.2366141              -6.4386
       173                         -0.2365600              -6.4371
       174                         -0.2364016              -6.4328
       175                         -0.2200706              -5.9884
       176                         -0.2200515              -5.9879
       ...                                ...                  ...
       324                          0.7432150              20.2239
      -------------------------------------------------------------
                  HL-Gap            0.0664220 Eh            1.8074 eV

     #   Z          covCN         q      C6AA      α(0)
     1   6 C        3.758    -0.109    22.628     6.782
     2   6 C        2.966     0.006    27.880     8.661
     3   6 C        2.929    -0.044    29.103     8.847
     4   6 C        2.908    -0.053    29.308     8.877
     5   6 C        3.079     0.044    26.939     8.509
     6   6 C        3.065    -0.020    28.442     8.745
     7   6 C        2.917    -0.044    29.105     8.847
     8   6 C        3.068    -0.019    28.399     8.738
     9   6 C        2.912    -0.035    28.868     8.810
    10   6 C        2.920    -0.043    29.071     8.842
    11   6 C        2.924    -0.035    28.875     8.812
    12   6 C        2.909    -0.052    29.303     8.876
    13   6 C        3.079     0.046    26.894     8.502
    14   7 N        2.803    -0.044    22.081     6.979
    15   6 C        2.917     0.061    26.630     8.462
    16   6 C        2.920    -0.041    29.021     8.834
    17   6 C        2.922    -0.031    28.771     8.796
    18   6 C        2.982    -0.013    28.340     8.732
    19   6 C        2.980     0.218    23.414     7.937
    20   7 N        1.844    -0.324    29.262     8.017
    21   6 C        2.980     0.217    23.419     7.938
    22   6 C        2.982    -0.014    28.344     8.733
    23   6 C        2.922    -0.031    28.772     8.796
    24   6 C        2.920    -0.041    29.023     8.835
    25   6 C        2.917     0.061    26.631     8.462
    26   7 N        2.803    -0.043    22.074     6.978
    27   6 C        3.077     0.048    26.853     8.496
    28   6 C        2.909    -0.052    29.280     8.873
    29   6 C        2.924    -0.035    28.880     8.813
    30   6 C        2.920    -0.043    29.066     8.841
    31   6 C        2.912    -0.035    28.859     8.809
    32   6 C        3.069    -0.018    28.393     8.737
    33   6 C        3.064    -0.020    28.445     8.746
    34   6 C        2.917    -0.045    29.113     8.848
    35   6 C        2.966     0.006    27.882     8.661
    36   6 C        3.758    -0.109    22.628     6.782
    37   6 C        2.930    -0.044    29.096     8.846
    38   6 C        2.908    -0.053    29.327     8.880
    39   6 C        3.080     0.041    26.985     8.516
    40   6 C        2.964     0.012    27.737     8.639
    41   6 C        3.757    -0.112    22.691     6.791
    42   6 C        2.930    -0.037    28.928     8.821
    43   7 N        1.844    -0.323    29.214     8.010
    44   6 C        2.980     0.217    23.423     7.939
    45   6 C        2.982    -0.013    28.340     8.732
    46   6 C        2.922    -0.031    28.772     8.796
    47   6 C        2.920    -0.041    29.023     8.834
    48   6 C        2.917     0.061    26.631     8.462
    49   7 N        2.803    -0.043    22.075     6.978
    50   6 C        3.077     0.047    26.854     8.496
    51   6 C        2.909    -0.052    29.280     8.873
    52   6 C        2.924    -0.035    28.880     8.813
    53   6 C        2.920    -0.043    29.066     8.841
    54   6 C        2.912    -0.035    28.860     8.809
    55   6 C        3.068    -0.018    28.395     8.738
    56   6 C        3.065    -0.020    28.446     8.746
    57   6 C        2.917    -0.045    29.113     8.848
    58   6 C        2.966     0.006    27.883     8.661
    59   6 C        3.758    -0.109    22.628     6.782
    60   6 C        2.930    -0.044    29.097     8.846
    61   6 C        2.908    -0.053    29.328     8.880
    62   6 C        3.080     0.042    26.985     8.516
    63   6 C        2.964     0.012    27.735     8.638
    64   6 C        3.757    -0.112    22.688     6.791
    65   6 C        2.930    -0.037    28.924     8.820
    66   7 N        1.844    -0.323    29.238     8.014
    67   6 C        2.930    -0.037    28.926     8.820
    68   6 C        2.964     0.013    27.731     8.638
    69   6 C        3.757    -0.112    22.689     6.791
    70   1 H        0.925     0.041     2.430     2.438
    71   1 H        0.925     0.046     2.370     2.407
    72   1 H        0.925     0.045     2.382     2.413
    73   1 H        0.926     0.032     2.560     2.502
    74   1 H        0.926     0.025     2.653     2.547
    75   1 H        0.926     0.031     2.570     2.507
    76   1 H        0.926     0.031     2.570     2.507
    77   1 H        0.926     0.028     2.618     2.530
    78   1 H        0.926     0.029     2.600     2.521
    79   1 H        0.926     0.025     2.660     2.550
    80   1 H        0.926     0.051     2.309     2.376
    81   1 H        0.926     0.054     2.270     2.356
    82   1 H        0.926     0.054     2.272     2.357
    83   1 H        0.926     0.051     2.308     2.376
    84   1 H        0.926     0.026     2.644     2.543
    85   1 H        0.926     0.029     2.597     2.520
    86   1 H        0.926     0.028     2.617     2.530
    87   1 H        0.926     0.031     2.572     2.508
    88   1 H        0.926     0.031     2.567     2.506
    89   1 H        0.925     0.046     2.377     2.411
    90   1 H        0.925     0.046     2.376     2.411
    91   1 H        0.925     0.042     2.428     2.437
    92   1 H        0.926     0.032     2.560     2.502
    93   1 H        0.926     0.025     2.656     2.548
    94   1 H        0.925     0.056     2.252     2.347
    95   1 H        0.925     0.053     2.285     2.364
    96   1 H        0.925     0.063     2.159     2.298
    97   1 H        0.926     0.058     2.221     2.330
    98   1 H        0.926     0.054     2.265     2.354
    99   1 H        0.926     0.051     2.304     2.374
   100   1 H        0.926     0.026     2.645     2.543
   101   1 H        0.926     0.029     2.598     2.520
   102   1 H        0.926     0.028     2.618     2.530
   103   1 H        0.926     0.031     2.573     2.509
   104   1 H        0.926     0.031     2.570     2.507
   105   1 H        0.925     0.045     2.379     2.412
   106   1 H        0.925     0.041     2.429     2.437
   107   1 H        0.925     0.046     2.374     2.410
   108   1 H        0.926     0.032     2.558     2.501
   109   1 H        0.926     0.026     2.651     2.546
   110   1 H        0.925     0.053     2.287     2.365
   111   1 H        0.925     0.063     2.160     2.298
   112   1 H        0.925     0.055     2.254     2.348
   113   1 H        0.926     0.058     2.228     2.334
   114   1 H        0.926     0.058     2.228     2.334
   115   1 H        0.925     0.064     2.157     2.297
   116   1 H        0.925     0.053     2.282     2.362
   117   1 H        0.925     0.055     2.256     2.349

molecular dipole:
                 x           y           z       tot (Debye)
 q only:       -0.269       0.479       0.762
   full:       -0.251       0.375       0.725       2.170

 projected vibrational frequencies (cm⁻¹)
eigval :       -0.00    -0.00    -0.00     0.00     0.00     0.00
eigval :        4.13     7.28     9.34     9.92    13.10    14.89
eigval :       20.65    21.23    31.47    38.96    41.59    45.94
eigval :       50.24    50.61    52.17    64.90    68.11    71.62
eigval :       78.35    82.68    85.12    86.87    89.57    93.41
eigval :       96.50   106.23   107.17   112.97   117.04   124.81
eigval :      131.39   134.72   137.82   147.72   150.35   153.33
eigval :      181.03   182.08   185.60   189.13   196.92   200.79
eigval :      204.85   205.61   215.27   248.25   250.36   252.39
eigval :      261.89   282.20   290.77   294.69   303.90   309.26
eigval :      312.39   324.21   337.05   339.73   344.98   353.31
eigval :      366.44   375.24   384.96   394.28   395.20   397.47
eigval :      399.60   401.23   411.17   414.41   418.32   421.48
eigval :      422.26   427.44   428.44   430.18   441.06   460.62
eigval :      479.00   484.29   491.00   493.56   504.28   507.15
eigval :      507.54   521.01   522.21   522.93   524.83   550.99
eigval :      552.96   559.40   562.20   562.85   563.47   564.83
eigval :      576.48   578.29   586.08   602.41   603.03   605.98
eigval :      616.28   621.10   631.64   657.84   658.73   671.71
eigval :      672.47   672.89   680.35   680.92   685.11   697.59
eigval :      706.65   707.27   707.85   709.62   710.88   733.22
eigval :      733.38   734.17   767.29   768.87   773.20   775.88
eigval :      777.08   782.60   810.22   812.71   813.88   835.76
eigval :      836.26   837.41   858.40   862.63   863.35   868.65
eigval :      869.65   871.61   874.58   875.00   877.12   877.32
eigval :      884.09   886.41   888.85   900.92   902.65   903.15
eigval :      907.52   910.29   912.59   913.69   915.89   919.22
eigval :      920.65   921.20   921.94   922.53   923.27   923.67
eigval :      933.54   935.21   937.65   970.53   974.23  1009.32
eigval :     1010.17  1012.09  1012.69  1017.95  1020.64  1028.23
eigval :     1029.14  1029.70  1032.22  1032.71  1032.95  1034.39
eigval :     1034.46  1034.87  1049.63  1068.32  1068.42  1068.50
eigval :     1093.66  1094.17  1094.58  1102.97  1131.40  1132.48
eigval :     1140.09  1150.65  1151.67  1152.74  1156.49  1160.04
eigval :     1175.45  1175.79  1176.65  1181.52  1182.85  1183.91
eigval :     1194.02  1194.87  1195.24  1207.20  1214.50  1225.59
eigval :     1225.78  1236.48  1236.97  1239.86  1243.26  1244.65
eigval :     1244.93  1247.48  1253.40  1258.06  1286.24  1286.88
eigval :     1287.96  1311.23  1312.29  1312.49  1323.56  1325.33
eigval :     1327.07  1344.78  1348.36  1350.24  1354.47  1356.15
eigval :     1359.55  1361.28  1361.51  1361.53  1373.11  1375.76
eigval :     1389.95  1403.03  1403.25  1403.48  1403.55  1404.24
eigval :     1405.07  1416.32  1417.60  1420.35  1420.76  1422.03
eigval :     1426.61  1431.58  1435.25  1435.97  1467.03  1468.15
eigval :     1468.42  1473.35  1473.70  1473.79  1475.15  1475.90
eigval :     1476.14  1478.46  1479.17  1480.45  1481.21  1481.41
eigval :     1481.58  1487.36  1488.25  1491.95  1498.86  1499.04
eigval :     1499.27  1503.66  1506.48  1559.19  1561.65  1564.56
eigval :     1571.68  1571.82  1571.99  1585.21  1585.48  1585.74
eigval :     1588.69  1589.20  1590.40  1600.88  1600.97  1601.36
eigval :     1617.02  1617.14  1617.27  2999.13  2999.32  2999.61
eigval :     3007.71  3007.94  3008.07  3012.45  3012.97  3013.24
eigval :     3030.12  3030.42  3031.16  3043.05  3043.12  3043.31
eigval :     3046.75  3047.89  3049.04  3069.53  3069.71  3069.74
eigval :     3069.91  3070.80  3071.04  3074.77  3074.78  3074.84
eigval :     3076.91  3077.05  3077.56  3081.37  3081.65  3081.71
eigval :     3082.16  3083.42  3084.85  3085.60  3086.27  3087.40
eigval :     3090.65  3090.68  3090.99  3099.81  3100.16  3101.94
eigval :     3110.35  3111.89  3112.29

   temp. (K)  partition function   enthalpy   heat capacity  entropy
                                   cal/mol     cal/K/mol   cal/K/mol   J/K/mol
 298.15  VIB  0.228E+31            35645.688    214.620    229.075
         ROT  0.465E+09              888.752      2.981     42.640
         INT  0.106E+40            36534.440    217.601    271.716
         TR   0.256E+29             1481.254      4.968     46.210
         TOT                       38015.6944   222.5687   317.9257  1330.2012

       T/K    H(0)-H(T)+PV         H(T)/Eh          T*S/Eh         G(T)/Eh
   ------------------------------------------------------------------------
    298.15    0.605819E-01    0.975000E+00    0.151057E+00    0.823943E+00
   ------------------------------------------------------------------------

         :::::::::::::::::::::::::::::::::::::::::::::::::::::
         ::                  THERMODYNAMIC                  ::
         :::::::::::::::::::::::::::::::::::::::::::::::::::::
         :: total free energy        -176.360768693861 Eh   ::
         ::.................................................::
         :: total energy             -177.184711523533 Eh   ::
         :: zero point energy           0.914417736144 Eh   ::
         :: G(RRHO) w/o ZPVE           -0.090474906472 Eh   ::
         :: G(RRHO) contrib.            0.823942829672 Eh   ::
         :::::::::::::::::::::::::::::::::::::::::::::::::::::

           -------------------------------------------------
          | TOTAL ENERGY             -177.184711523533 Eh   |
          | TOTAL ENTHALPY           -176.209711922190 Eh   |
          | TOTAL FREE ENERGY        -176.360768693861 Eh   |
          | GRADIENT NORM               0.000029373815 Eh/α |
          | HOMO-LUMO GAP               1.807435320692 eV   |
           -------------------------------------------------

 * finished run on 2025/08/25 at 15:46:50.367
