   * xtb version 6.7.1 (edcfbbe) compiled by 'albert@albert-system' on 2024-07-22

   ID    Z sym.   atoms
    1    6 C      1-13, 15-19, 21-25, 27-42, 44-48, 50-65, 67-69
    2    7 N      14, 20, 26, 43, 49, 66
    3    1 H      70-117

          program call               : xtb data2507/toluene/MeCZ-TRZ/MeCZ-TRZ.xyz --gfn 2 --gbsa toluene --ohess vtight --parallel 40 --molden --ceasefiles --namespace data2507/toluene/MeCZ-TRZ/MeCZ-TRZ_toluene_S0_preOpt
      * Solvation model:               GBSA
        Solvent                        toluene
        Solvent mass                       9.2140E+01 g/mol
          :  Hamiltonian                  GFN2-xTB          :
 * total energy  :  -177.1572375 Eh     change       -0.4467864E-08 Eh
 * total energy  :  -177.1768724 Eh     change       -0.1963486E-01 Eh
 * total energy  :  -177.1814375 Eh     change       -0.4565135E-02 Eh
 * total energy  :  -177.1824975 Eh     change       -0.1059948E-02 Eh
 * total energy  :  -177.1833488 Eh     change       -0.8513672E-03 Eh
 * total energy  :  -177.1837445 Eh     change       -0.3956448E-03 Eh
 * total energy  :  -177.1839791 Eh     change       -0.2346071E-03 Eh
 * total energy  :  -177.1841125 Eh     change       -0.1333845E-03 Eh
 * total energy  :  -177.1841692 Eh     change       -0.5669221E-04 Eh
 * total energy  :  -177.1841994 Eh     change       -0.3021377E-04 Eh
 * total energy  :  -177.1846921 Eh     change       -0.2738293E-06 Eh
 * total energy  :  -177.1846920 Eh     change        0.1242100E-07 Eh
 * total energy  :  -177.1846923 Eh     change       -0.2297867E-06 Eh
 * total energy  :  -177.1846927 Eh     change       -0.4582014E-06 Eh
 * total energy  :  -177.1846931 Eh     change       -0.4107171E-06 Eh
 * total energy  :  -177.1846935 Eh     change       -0.3443785E-06 Eh
 * total energy  :  -177.1846937 Eh     change       -0.2230335E-06 Eh
 * total energy  :  -177.1846939 Eh     change       -0.1546257E-06 Eh
 * total energy  :  -177.1846940 Eh     change       -0.9725278E-07 Eh
   *** GEOMETRY OPTIMIZATION CONVERGED AFTER 78 ITERATIONS ***

 final structure:
================
117
 xtb: 6.7.1 (edcfbbe)
C           -4.11654885711096      -10.29345092244631        2.93127173677954
C           -3.48880844206052       -9.31344399464950        1.98376223851098
C           -3.26194087448052       -7.99837109936011        2.40619735181396
C           -2.68555445623846       -7.05018915780105        1.58481801417349
C           -2.33755412226734       -7.43445017838063        0.29779770134909
C           -2.52706608902443       -8.76375454602117       -0.13957635336566
C           -3.11040897648688       -9.69695746330280        0.70877654853106
C           -1.99323913564024       -8.83358123092466       -1.47202267010619
C           -1.89072983896031       -9.84876146999174       -2.41479771148432
C           -1.30139375460540       -9.56613307823323       -3.63147058825800
C           -0.82484115129118       -8.28841038080456       -3.92010865781632
C           -0.91893254338586       -7.26009468870596       -3.00165248377996
C           -1.49716997274257       -7.54338903474001       -1.77272550907195
N           -1.73063658307651       -6.70389293449929       -0.70368386402790
C           -1.38111592682330       -5.34459105167279       -0.64016700289902
C           -0.03619514175273       -4.98915960774669       -0.71922421076567
C            0.34382869819587       -3.66643459492217       -0.64701803369801
C           -0.62585351611917       -2.67611714377978       -0.49589431756977
C           -0.23839786321750       -1.26985049265324       -0.40228581094072
N            1.06007245684691       -0.98316070597297       -0.34801566338906
C            1.36782700129206        0.30752407219227       -0.24283706287003
C            2.78153188050497        0.67134206550427       -0.17340645948090
C            3.76606123141280       -0.31590001734565       -0.19550598468913
C            5.09503517760395        0.04371201795433       -0.14322677928343
C            5.46402051103941        1.38548765642282       -0.06531000979555
N            6.82933720794400        1.71108725740225       -0.02059419660359
C            7.52207997238824        2.45503688145443       -0.95199442553935
C            7.07849822297203        3.00054358041909       -2.14843025614883
C            7.99349896792102        3.69285592025142       -2.91892758336958
C            9.32214979868246        3.82973686324381       -2.52126799865573
C            9.77642348279354        3.25893834156181       -1.34847953027685
C            8.87583310619880        2.55977867203977       -0.55497944080510
C            8.99701666999674        1.82851439011494        0.67625160303011
C           10.05459441915352        1.57856584030727        1.54235119849853
C            9.83661218542297        0.82038936957447        2.67949524534311
C           10.95247875286248        0.52632924637979        3.63892297509762
C            8.55479587156202        0.32400465359491        2.94504697755405
C            7.48514125040398        0.55956164401920        2.10477395072054
C            7.71531449303893        1.30853437051070        0.96006151837786
C            4.48711125667021        2.38904001140659       -0.00702071001506
C            4.85762208459787        3.83044989363629        0.16162445521641
C            3.15659201419835        2.00928136726240       -0.07373789273820
N            0.46735807860272        1.28688747085159       -0.19980663378420
C           -0.80690631375909        0.91039580933462       -0.27567268560048
C           -1.83273083740916        1.95122739721980       -0.25286834961909
C           -3.17473754474685        1.62271646337075       -0.44085635114344
C           -4.12912979474444        2.61647837839597       -0.43140004672814
C           -3.76442223386588        3.94698145887236       -0.23451931805137
N           -4.76445164485151        4.93334245961095       -0.24176315035769
C           -4.87819309359847        5.97081180638949       -1.14226466270983
C           -4.09883778643958        6.25930220775440       -2.25356610779787
C           -4.44437285220699        7.36051220540682       -3.01379394051999
C           -5.54534317022966        8.15081455760498       -2.68893551264357
C           -6.34314111868893        7.84845919274076       -1.60277549599755
C           -6.01685292854790        6.74679228436497       -0.82206073288966
C           -6.61954422032128        6.12998168681333        0.32761973120697
C           -7.73640554998530        6.42626506595591        1.09967502467316
C           -8.05406456714429        5.61408323686516        2.17435520422572
C           -9.25439674085560        5.89665374527444        3.02965595803226
C           -7.24320511400273        4.51263575460659        2.47311657373263
C           -6.12646037559429        4.19606024930591        1.72591866535563
C           -5.82343215819338        5.00683943974383        0.64191016517084
C           -2.42421847516212        4.29140572747378       -0.01116129131364
C           -2.02131082868752        5.70391385881068        0.28131196594377
C           -1.47764811702676        3.28031661097035       -0.03429499636108
N           -1.20536213286150       -0.35577434358799       -0.37284904800992
C           -1.97043333922430       -3.03658925667070       -0.44196421056012
C           -2.37154491044671       -4.36007195747414       -0.51919220741966
C           -3.82558513948364       -4.71832953313553       -0.51040936186244
H           -4.30123457578118      -11.24536240735552        2.43985076137940
H           -5.06180711562080       -9.90729012586976        3.31076682099642
H           -3.46169775422655      -10.46681360701855        3.78543539754367
H           -3.54320359441904       -7.72186493857806        3.41257333731230
H           -2.49437695469861       -6.04816946437305        1.93997677318122
H           -3.25777056163477      -10.71393407948594        0.37565335875770
H           -2.26641669006573      -10.83758441901912       -2.19777532326136
H           -1.20959045784696      -10.34338150209889       -4.37604912145014
H           -0.37423111481065       -8.09774171362265       -4.88339976858318
H           -0.55579560359090       -6.26901421520587       -3.23117753700469
H            0.70499992801272       -5.76742475315811       -0.82760287131172
H            1.38236258735124       -3.38158008501629       -0.69961666366686
H            3.47125306725065       -1.35096599920759       -0.26016800636378
H            5.86822917976686       -0.71004998455644       -0.17131669320121
H            6.05729029997829        2.87223168072903       -2.47561847193007
H            7.67380859982408        4.13162502901470       -3.85312101783764
H           10.00683245592929        4.37975457499624       -3.15025862892362
H           10.81172366230138        3.34679676427755       -1.05442206744788
H           11.03579453367304        1.97624148420272        1.32780042231611
H           11.08786504870349       -0.54948877532343        3.74695958063098
H           10.72380161540641        0.93275000766443        4.62393694571912
H           11.88703568544941        0.96078614332091        3.29318595699909
H            8.40091269633050       -0.26060442038523        3.84104031363576
H            6.50182816896437        0.17460698213381        2.33193180393440
H            4.03287818140618        4.37903445682106        0.60899269182614
H            5.73706224988951        3.93026168390675        0.79496297663121
H            5.08931907743363        4.28829022375901       -0.79946510572459
H            2.37923402683900        2.75677218631624       -0.03457338217095
H           -3.44543161467593        0.59175671212101       -0.60290200445538
H           -5.17105880020302        2.37788076064680       -0.58718905040161
H           -3.26134226856300        5.63376560604656       -2.52508952362430
H           -3.85296383351395        7.61030609281970       -3.88287132285468
H           -5.78188779481142        9.00477726504750       -3.30677220662976
H           -7.20833972930633        8.44999901424450       -1.36680074269789
H           -8.34735181179619        7.28470944052463        0.86131546547803
H           -8.95605469126900        6.04436111835409        4.06726904940830
H           -9.77428648057149        6.78801753296367        2.68776143263969
H           -9.94825084323995        5.05677544560375        2.99991191442172
H           -7.50252166776563        3.89324602635516        3.32005202600817
H           -5.50854852253721        3.34669009132982        1.97776793211496
H           -1.08162611461928        5.72046021305494        0.82719802101959
H           -2.78500727201967        6.20768621477412        0.87084309980068
H           -1.88990561497050        6.26937757811994       -0.64071949902796
H           -0.43706423701050        3.51092313715650        0.13477659987682
H           -2.70678927122226       -2.25334241345811       -0.34687632309090
H           -4.13590366121107       -5.06174933732144        0.47585617257542
H           -4.02592035366509       -5.52273376494340       -1.21602212209359
H           -4.42756861781691       -3.85352375846349       -0.77621089297703

          :  Hamiltonian                  GFN2-xTB          :
         :: gradient norm              0.000061501588 Eh/a0 ::
         :: HOMO-LUMO gap              1.808274346842 eV    ::
         :: SCC energy              -180.400036756696 Eh    ::
         :: -> dispersion             -0.160654817674 Eh    ::
         :: -> Gsolv                  -0.076967785733 Eh    ::
         :: repulsion energy           3.215342795973 Eh    ::

    * Orbital Energies and Occupations

         #    Occupation            Energy/Eh            Energy/eV
      -------------------------------------------------------------
         1        2.0000           -0.6909528             -18.8018
       ...           ...                  ...                  ...
       153        2.0000           -0.4083889             -11.1128
       154        2.0000           -0.4075877             -11.0910
       155        2.0000           -0.4008950             -10.9089
       156        2.0000           -0.4008391             -10.9074
       157        2.0000           -0.4004207             -10.8960
       158        2.0000           -0.3816132             -10.3842
       159        2.0000           -0.3812803             -10.3752
       160        2.0000           -0.3770175             -10.2592
       161        2.0000           -0.3769970             -10.2586
       162        2.0000           -0.3769445             -10.2572
       163        2.0000           -0.3615566              -9.8385
       164        2.0000           -0.3615044              -9.8370
       165        2.0000           -0.3612008              -9.8288 (HOMO)
       166                         -0.2947479              -8.0205 (LUMO)
       167                         -0.2946669              -8.0183
       168                         -0.2552913              -6.9468
       169                         -0.2441555              -6.6438
       170                         -0.2440942              -6.6421
       171                         -0.2432802              -6.6200
       172                         -0.2366341              -6.4391
       173                         -0.2365115              -6.4358
       174                         -0.2364169              -6.4332
       175                         -0.2201093              -5.9895
       176                         -0.2200660              -5.9883
       ...                                ...                  ...
       324                          0.7431867              20.2231
      -------------------------------------------------------------
                  HL-Gap            0.0664528 Eh            1.8083 eV

     #   Z          covCN         q      C6AA      α(0)
     1   6 C        3.758    -0.109    22.628     6.782
     2   6 C        2.966     0.006    27.879     8.661
     3   6 C        2.929    -0.044    29.103     8.847
     4   6 C        2.908    -0.053    29.309     8.877
     5   6 C        3.079     0.044    26.939     8.509
     6   6 C        3.065    -0.020    28.441     8.745
     7   6 C        2.917    -0.044    29.104     8.847
     8   6 C        3.068    -0.018    28.398     8.738
     9   6 C        2.912    -0.035    28.867     8.810
    10   6 C        2.919    -0.043    29.071     8.842
    11   6 C        2.924    -0.035    28.875     8.812
    12   6 C        2.909    -0.052    29.303     8.876
    13   6 C        3.079     0.046    26.894     8.502
    14   7 N        2.803    -0.044    22.080     6.979
    15   6 C        2.917     0.061    26.632     8.463
    16   6 C        2.920    -0.041    29.022     8.834
    17   6 C        2.922    -0.031    28.771     8.796
    18   6 C        2.982    -0.013    28.341     8.733
    19   6 C        2.980     0.218    23.413     7.937
    20   7 N        1.844    -0.324    29.262     8.017
    21   6 C        2.980     0.217    23.420     7.938
    22   6 C        2.981    -0.014    28.346     8.733
    23   6 C        2.922    -0.031    28.772     8.796
    24   6 C        2.920    -0.041    29.025     8.835
    25   6 C        2.917     0.061    26.630     8.462
    26   7 N        2.803    -0.043    22.074     6.978
    27   6 C        3.077     0.048    26.854     8.496
    28   6 C        2.909    -0.051    29.278     8.873
    29   6 C        2.924    -0.035    28.879     8.813
    30   6 C        2.920    -0.043    29.065     8.841
    31   6 C        2.912    -0.035    28.860     8.809
    32   6 C        3.069    -0.018    28.394     8.737
    33   6 C        3.064    -0.020    28.445     8.746
    34   6 C        2.917    -0.045    29.113     8.848
    35   6 C        2.966     0.006    27.881     8.661
    36   6 C        3.758    -0.109    22.628     6.782
    37   6 C        2.930    -0.044    29.096     8.846
    38   6 C        2.908    -0.053    29.326     8.880
    39   6 C        3.080     0.041    26.986     8.516
    40   6 C        2.964     0.012    27.738     8.639
    41   6 C        3.757    -0.112    22.690     6.791
    42   6 C        2.930    -0.037    28.929     8.821
    43   7 N        1.844    -0.323    29.214     8.010
    44   6 C        2.980     0.217    23.422     7.939
    45   6 C        2.982    -0.013    28.338     8.732
    46   6 C        2.922    -0.031    28.772     8.796
    47   6 C        2.920    -0.041    29.021     8.834
    48   6 C        2.917     0.061    26.631     8.462
    49   7 N        2.803    -0.043    22.078     6.979
    50   6 C        3.077     0.048    26.853     8.496
    51   6 C        2.909    -0.052    29.281     8.873
    52   6 C        2.924    -0.035    28.880     8.813
    53   6 C        2.920    -0.043    29.067     8.841
    54   6 C        2.912    -0.035    28.860     8.809
    55   6 C        3.068    -0.018    28.396     8.738
    56   6 C        3.065    -0.020    28.447     8.746
    57   6 C        2.917    -0.045    29.113     8.848
    58   6 C        2.966     0.006    27.884     8.661
    59   6 C        3.758    -0.109    22.627     6.782
    60   6 C        2.930    -0.044    29.097     8.846
    61   6 C        2.908    -0.053    29.328     8.880
    62   6 C        3.080     0.042    26.984     8.516
    63   6 C        2.964     0.012    27.734     8.638
    64   6 C        3.757    -0.112    22.688     6.791
    65   6 C        2.930    -0.037    28.924     8.820
    66   7 N        1.844    -0.324    29.240     8.014
    67   6 C        2.930    -0.037    28.925     8.820
    68   6 C        2.964     0.013    27.732     8.638
    69   6 C        3.757    -0.112    22.690     6.791
    70   1 H        0.925     0.041     2.429     2.437
    71   1 H        0.925     0.045     2.378     2.411
    72   1 H        0.925     0.046     2.376     2.410
    73   1 H        0.926     0.032     2.560     2.502
    74   1 H        0.926     0.025     2.653     2.547
    75   1 H        0.926     0.031     2.569     2.506
    76   1 H        0.926     0.031     2.569     2.506
    77   1 H        0.926     0.028     2.617     2.530
    78   1 H        0.926     0.029     2.600     2.521
    79   1 H        0.926     0.025     2.659     2.550
    80   1 H        0.926     0.051     2.309     2.376
    81   1 H        0.926     0.054     2.272     2.357
    82   1 H        0.926     0.054     2.272     2.357
    83   1 H        0.926     0.051     2.308     2.376
    84   1 H        0.926     0.026     2.643     2.542
    85   1 H        0.926     0.029     2.596     2.520
    86   1 H        0.926     0.028     2.617     2.530
    87   1 H        0.926     0.031     2.572     2.508
    88   1 H        0.926     0.031     2.567     2.506
    89   1 H        0.925     0.045     2.378     2.411
    90   1 H        0.925     0.046     2.375     2.410
    91   1 H        0.925     0.042     2.428     2.437
    92   1 H        0.926     0.032     2.560     2.502
    93   1 H        0.926     0.025     2.653     2.547
    94   1 H        0.925     0.056     2.250     2.346
    95   1 H        0.925     0.053     2.288     2.365
    96   1 H        0.925     0.063     2.160     2.298
    97   1 H        0.926     0.058     2.221     2.330
    98   1 H        0.926     0.054     2.265     2.354
    99   1 H        0.926     0.051     2.304     2.374
   100   1 H        0.926     0.026     2.646     2.544
   101   1 H        0.926     0.029     2.598     2.521
   102   1 H        0.926     0.028     2.619     2.531
   103   1 H        0.926     0.031     2.574     2.509
   104   1 H        0.926     0.031     2.570     2.507
   105   1 H        0.925     0.045     2.378     2.412
   106   1 H        0.925     0.041     2.430     2.438
   107   1 H        0.925     0.046     2.375     2.410
   108   1 H        0.926     0.032     2.558     2.501
   109   1 H        0.926     0.025     2.652     2.546
   110   1 H        0.925     0.055     2.253     2.347
   111   1 H        0.925     0.053     2.287     2.365
   112   1 H        0.925     0.063     2.160     2.298
   113   1 H        0.926     0.058     2.228     2.334
   114   1 H        0.926     0.057     2.230     2.335
   115   1 H        0.925     0.064     2.156     2.296
   116   1 H        0.925     0.053     2.281     2.362
   117   1 H        0.925     0.055     2.259     2.350

molecular dipole:
                 x           y           z       tot (Debye)
 q only:       -0.322       0.403       0.764
   full:       -0.284       0.303       0.730       2.136

 projected vibrational frequencies (cm⁻¹)
eigval :       -0.00    -0.00    -0.00     0.00     0.00     0.00
eigval :       -9.24     8.71     9.72    11.25    13.05    13.79
eigval :       20.24    21.36    32.71    43.16    43.94    45.34
eigval :       46.56    50.77    50.95    51.84    57.47    69.80
eigval :       81.46    84.00    86.39    89.48    90.62    91.86
eigval :       92.73   104.26   106.69   111.22   116.06   125.06
eigval :      132.62   134.81   137.66   149.39   151.07   153.22
eigval :      180.84   182.26   184.44   189.05   198.68   200.65
eigval :      204.58   205.42   216.17   247.83   249.50   251.74
eigval :      261.29   282.05   290.90   295.16   304.65   310.99
eigval :      313.02   324.04   337.96   339.11   345.16   353.24
eigval :      366.45   375.07   385.18   393.46   394.84   396.86
eigval :      399.28   401.26   410.98   414.47   418.11   421.17
eigval :      422.08   426.73   427.72   429.78   440.79   460.82
eigval :      479.02   484.80   491.40   493.72   504.27   507.41
eigval :      507.74   520.26   521.44   522.45   525.69   550.72
eigval :      552.90   558.67   561.00   561.87   563.85   564.44
eigval :      576.57   578.48   586.36   602.39   602.89   606.06
eigval :      616.20   620.79   631.50   658.16   659.15   670.24
eigval :      671.13   671.76   680.45   680.79   685.49   697.61
eigval :      706.36   706.79   707.04   710.44   711.70   733.14
eigval :      733.49   734.21   767.41   768.88   772.41   775.11
eigval :      775.47   783.25   809.07   812.20   817.18   835.76
eigval :      836.64   837.64   858.40   862.53   863.11   866.55
eigval :      868.79   869.55   873.51   874.16   876.46   876.80
eigval :      882.97   887.74   888.63   899.46   901.34   902.29
eigval :      906.12   910.54   913.44   915.79   916.21   919.51
eigval :      920.05   920.23   920.81   921.88   922.36   923.72
eigval :      933.48   935.18   937.74   970.47   974.33  1009.18
eigval :     1010.48  1011.26  1012.29  1017.54  1020.68  1029.12
eigval :     1029.48  1030.14  1032.60  1032.71  1033.58  1033.98
eigval :     1034.88  1035.11  1049.71  1068.24  1069.15  1069.99
eigval :     1093.66  1094.20  1094.49  1102.68  1131.45  1132.03
eigval :     1139.90  1150.62  1151.04  1152.40  1156.23  1159.54
eigval :     1174.74  1175.84  1176.08  1182.03  1182.79  1184.30
eigval :     1193.89  1194.84  1195.24  1207.36  1214.53  1225.32
eigval :     1225.90  1236.22  1236.93  1240.13  1243.13  1244.84
eigval :     1245.87  1247.96  1253.30  1258.22  1286.07  1286.72
eigval :     1287.96  1310.72  1312.36  1312.76  1323.57  1325.28
eigval :     1327.16  1344.86  1348.29  1350.14  1354.33  1356.19
eigval :     1359.64  1361.12  1361.41  1361.60  1373.19  1375.88
eigval :     1390.03  1402.60  1403.22  1403.57  1404.24  1404.66
eigval :     1405.49  1416.41  1417.88  1420.83  1421.22  1421.92
eigval :     1426.76  1431.35  1435.48  1436.08  1467.00  1468.03
eigval :     1468.18  1473.27  1473.62  1473.89  1475.05  1475.67
eigval :     1476.10  1478.50  1479.00  1479.28  1480.98  1481.19
eigval :     1481.27  1487.34  1488.36  1491.90  1498.68  1498.77
eigval :     1498.99  1503.81  1506.50  1559.32  1561.71  1564.65
eigval :     1571.61  1571.79  1571.94  1585.10  1585.36  1585.64
eigval :     1588.60  1589.24  1590.33  1600.92  1601.07  1601.19
eigval :     1616.94  1617.11  1617.23  2997.66  2999.30  2999.64
eigval :     3006.68  3006.96  3007.76  3012.83  3013.13  3015.42
eigval :     3028.63  3031.71  3032.05  3042.57  3042.61  3042.77
eigval :     3046.01  3046.53  3048.90  3069.06  3069.55  3070.08
eigval :     3070.10  3070.23  3070.38  3074.18  3074.99  3075.19
eigval :     3076.65  3077.07  3077.80  3081.29  3082.06  3082.14
eigval :     3082.39  3082.99  3083.57  3085.95  3086.12  3086.42
eigval :     3090.36  3090.82  3090.94  3099.52  3099.85  3101.26
eigval :     3109.89  3111.32  3112.13

   temp. (K)  partition function   enthalpy   heat capacity  entropy
                                   cal/mol     cal/K/mol   cal/K/mol   J/K/mol
 298.15  VIB  0.105E+31            35667.545    214.379    228.317
         ROT  0.465E+09              888.752      2.981     42.641
         INT  0.486E+39            36556.297    217.360    270.958
         TR   0.256E+29             1481.254      4.968     46.210
         TOT                       38037.5509   222.3283   317.1682  1327.0316

       T/K    H(0)-H(T)+PV         H(T)/Eh          T*S/Eh         G(T)/Eh
   ------------------------------------------------------------------------
    298.15    0.606167E-01    0.974931E+00    0.150697E+00    0.824234E+00
   ------------------------------------------------------------------------

         :::::::::::::::::::::::::::::::::::::::::::::::::::::
         ::                  THERMODYNAMIC                  ::
         :::::::::::::::::::::::::::::::::::::::::::::::::::::
         :: total free energy        -176.360459864262 Eh   ::
         ::.................................................::
         :: total energy             -177.184693960929 Eh   ::
         :: zero point energy           0.914314227718 Eh   ::
         :: G(RRHO) w/o ZPVE           -0.090080131052 Eh   ::
         :: G(RRHO) contrib.            0.824234096666 Eh   ::
         :::::::::::::::::::::::::::::::::::::::::::::::::::::

           -------------------------------------------------
          | TOTAL ENERGY             -177.184693960929 Eh   |
          | TOTAL ENTHALPY           -176.209763037363 Eh   |
          | TOTAL FREE ENERGY        -176.360459864262 Eh   |
          | GRADIENT NORM               0.000061525093 Eh/α |
          | HOMO-LUMO GAP               1.808273871874 eV   |
           -------------------------------------------------

 * finished run on 2025/08/25 at 15:36:53.569
