   * xtb version 6.7.1 (edcfbbe) compiled by 'albert@albert-system' on 2024-07-22

   ID    Z sym.   atoms
    1    6 C      1-13, 15-19, 21-25, 27-42, 44-48, 50-65, 67-69
    2    7 N      14, 20, 26, 43, 49, 66
    3    1 H      70-117

          program call               : xtb data2507/toluene/MeCZ-TRZ/MeCZ-TRZ_toluene_S0_finalOpt.xtbopt.xyz --gfn 2 --uhf 2 --gbsa toluene --ohess vtight --parallel 40 --molden --ceasefiles --namespace data2507/toluene/MeCZ-TRZ/MeCZ-TRZ_toluene_T1_preOpt
      * Solvation model:               GBSA
        Solvent                        toluene
        Solvent mass                       9.2140E+01 g/mol
          :  Hamiltonian                  GFN2-xTB          :
 * total energy  :  -177.1061087 Eh     change       -0.9193656E-08 Eh
 * total energy  :  -177.1073986 Eh     change       -0.1289912E-02 Eh
 * total energy  :  -177.1077775 Eh     change       -0.3788738E-03 Eh
 * total energy  :  -177.1078053 Eh     change       -0.2782845E-04 Eh
 * total energy  :  -177.1078386 Eh     change       -0.3323595E-04 Eh
 * total energy  :  -177.1078520 Eh     change       -0.1341909E-04 Eh
 * total energy  :  -177.1078840 Eh     change       -0.3204164E-04 Eh
 * total energy  :  -177.1078982 Eh     change       -0.1419292E-04 Eh
 * total energy  :  -177.1079123 Eh     change       -0.1407620E-04 Eh
 * total energy  :  -177.1079298 Eh     change       -0.1756547E-04 Eh
 * total energy  :  -177.1080019 Eh     change       -0.7211641E-06 Eh
 * total energy  :  -177.1080025 Eh     change       -0.6643184E-06 Eh
 * total energy  :  -177.1080032 Eh     change       -0.7106572E-06 Eh
 * total energy  :  -177.1080042 Eh     change       -0.9210833E-06 Eh
 * total energy  :  -177.1080053 Eh     change       -0.1192172E-05 Eh
 * total energy  :  -177.1080066 Eh     change       -0.1302864E-05 Eh
 * total energy  :  -177.1080076 Eh     change       -0.9368162E-06 Eh
 * total energy  :  -177.1080083 Eh     change       -0.7438326E-06 Eh
 * total energy  :  -177.1080083 Eh     change       -0.2967425E-08 Eh
   *** GEOMETRY OPTIMIZATION CONVERGED AFTER 68 ITERATIONS ***

 final structure:
================
117
 xtb: 6.7.1 (edcfbbe)
C           -5.62794938148891       -9.48249365341303        3.24365871765389
C           -4.85856452921956       -8.63740386791194        2.27391563165840
C           -4.44710030554758       -7.35467196564584        2.65784265083553
C           -3.74162332496743       -6.52489051818291        1.81092599458822
C           -3.44773623140585       -6.99779189662398        0.53768095412044
C           -3.83301069744321       -8.29848799077092        0.13618387172108
C           -4.54238472287692       -9.11078640811040        1.00861660914462
C           -3.32724859465342       -8.47456987647730       -1.19960957438069
C           -3.37658232614429       -9.51170099982724       -2.11954325897202
C           -2.76539271059078       -9.33665110241930       -3.34876072233552
C           -2.11607541605914       -8.14594290834757       -3.66838974913596
C           -2.05513759892441       -7.09636912021333       -2.77048643839652
C           -2.65882479486697       -7.27144979168351       -1.53269707001866
N           -2.75385848020359       -6.38948434246857       -0.48091533425189
C           -2.20415081625163       -5.09167677564556       -0.44919756813268
C           -0.81668090587046       -4.94385442196466       -0.45341573579381
C           -0.24773566300211       -3.69339809455805       -0.41109395606654
C           -1.06112046920920       -2.55270435761545       -0.36579506610375
C           -0.47896415597167       -1.23337535463683       -0.30266441929302
N            0.85395717675463       -1.12096694643429       -0.25068010487545
C            1.36379585185496        0.11210452378898       -0.16375094400128
C            2.79894422529961        0.26584020301581       -0.10597274585857
C            3.64061552174799       -0.85464590963499       -0.11302122911451
C            5.00443187177482       -0.69152655384022       -0.06103921901476
C            5.56432081169016        0.58531854327014       -0.00137392723658
N            6.96650523377775        0.71403256182125        0.05319709475373
C            7.77094311667218        1.26864585803516       -0.91534981356262
C            7.42342149801853        1.77716345548945       -2.15979884266111
C            8.43801319876892        2.27163798878742       -2.95839960367586
C            9.76612910398968        2.25344302950439       -2.53780466682320
C           10.12041451558823        1.72282372485451       -1.30995849658754
C            9.12069513901409        1.22039265165709       -0.48989797432908
C            9.11461055271740        0.58740010734273        0.80252822582860
C           10.10555385399926        0.26024380707229        1.71643228840805
C            9.75488512540820       -0.36207211713371        2.90593734162054
C           10.79708175968572       -0.73757495240446        3.91559428882814
C            8.40865102996488       -0.64409460164997        3.17170937691941
C            7.40199333686906       -0.32789230836542        2.28279211058644
C            7.76277618819920        0.28478264823197        1.08903554537294
C            4.74180738267457        1.72202917383905        0.03209775904884
C            5.33107652881556        3.09405151319617        0.16721863377518
C            3.37447611046675        1.54078006113657       -0.02879223006886
N            0.59900479632017        1.21135620427513       -0.12089289178927
C           -0.72559793778800        1.03617371045325       -0.19946694244718
C           -1.57930421431256        2.20257536814014       -0.17873022760960
C           -2.96950407420204        2.07438566425637       -0.29777154214783
C           -3.76737617582538        3.19361289103824       -0.28784342857258
C           -3.20546041490017        4.46396429545827       -0.15526385943630
N           -4.05401263727653        5.58891842339710       -0.15373397117294
C           -4.09514150477425        6.57545896504808       -1.11208294192227
C           -3.37229573107220        6.68370813861474       -2.29266291256657
C           -3.61434415631491        7.78236144509557       -3.09639527498506
C           -4.55741257807590        8.74538364410503       -2.74371670516990
C           -5.29938338790405        8.62782861143557       -1.58171683168742
C           -5.07476739063166        7.53450814859179       -0.75790851671431
C           -5.65603888606819        7.08105565244539        0.47793513907548
C           -6.64373374929458        7.58026347827737        1.31421856924190
C           -6.97511464403695        6.88301922530056        2.46702527227786
C           -8.03650900157850        7.39020913753187        3.39582833343982
C           -6.30647611765185        5.69084038791598        2.77365125053085
C           -5.31906149709728        5.17196105352055        1.96168514783812
C           -4.99966432398217        5.87122778293084        0.80432969041974
C           -1.81878608458863        4.61599972946587       -0.00229396746718
C           -1.21242331404623        5.96938936781459        0.21825916612986
C           -1.03081201901942        3.48224979722907       -0.02659352998613
N           -1.29424151830738       -0.17011394962124       -0.29569153195222
C           -2.45284982044521       -2.71610816504452       -0.38540330859979
C           -3.04009376472417       -3.96457184357275       -0.43119100522013
C           -4.53064039518250       -4.11445135835916       -0.49118414048992
H           -5.85316475998735      -10.45720759371703        2.81890356696341
H           -6.56484226990922       -8.99388234965861        3.51051089912371
H           -5.05649735156033       -9.62436193205247        4.16046191304833
H           -4.68888290372064       -7.00959779559009        3.65289092293061
H           -3.41518233022567       -5.54552330290154        2.12842516958797
H           -4.84022239812067      -10.10374577880438        0.70585133895823
H           -3.88236101839593      -10.43500360284194       -1.88039040188715
H           -2.79196236528573      -10.13390842588902       -4.07685949626637
H           -1.65243630185093       -8.03996689516197       -4.63819634677177
H           -1.55711197634627       -6.17067910962243       -3.01812119279484
H           -0.19703130000243       -5.82894416239972       -0.47991930222772
H            0.82366974505203       -3.56797651620516       -0.40646587255246
H            3.19762604370980       -1.83694548037490       -0.16349877396621
H            5.66130173574777       -1.54962575829561       -0.07459551531281
H            6.39669250776808        1.77220614254175       -2.49484141564906
H            8.19672132806272        2.67647894080709       -3.93036910159781
H           10.53050765927917        2.65160916310103       -3.18862550438874
H           11.15326167993280        1.69549899767228       -0.99702420164413
H           11.13912418098773        0.48914321250883        1.50269114749477
H           10.79774395960546       -1.81567249620614        4.07517277986381
H           10.58718480620283       -0.26219062080171        4.87329041483125
H           11.78730609331181       -0.43474307291885        3.58553566770137
H            8.15482133697336       -1.12418583357282        4.10586469449360
H            6.36759131041973       -0.54635581817929        2.50315708541055
H            4.56368372885017        3.80498429356112        0.46166724375251
H            6.12337027103322        3.09886403462143        0.91452655230680
H            5.76412184424703        3.42702439821589       -0.77559258969895
H            2.71215326568951        2.39299415619837       -0.00391412003311
H           -3.39300815763840        1.08827231702460       -0.40571678341324
H           -4.83938429017118        3.10511505631661       -0.39221103085009
H           -2.65626959433339        5.92700564471989       -2.57728461344674
H           -3.06418485901666        7.89419754714902       -4.01923956864255
H           -4.71677127709691        9.59081778857049       -3.39658357424084
H           -6.04121752038504        9.36787964761142       -1.32195168382812
H           -7.14707163806018        8.50384250699317        1.06940387816847
H           -7.61868596292554        7.57029379407578        4.38605445714851
H           -8.46779511748680        8.31689276227814        3.02643071377460
H           -8.83192331028040        6.65303186110824        3.50189366406802
H           -6.57485891138427        5.16441275812508        3.67832732308145
H           -4.80846806003805        4.25462200712977        2.21420895862102
H           -1.81075146347455        6.54770517949929        0.92089210569182
H           -1.16218607780170        6.53131097255308       -0.71393791670638
H           -0.20441783155037        5.86916186662600        0.61194315469158
H            0.03960889787808        3.56268000642604        0.08872735657730
H           -3.06589570572044       -1.82742916771316       -0.37212108617854
H           -4.92556376558588       -4.45674498185342        0.46493144912897
H           -4.81206900241818       -4.84721467627564       -1.24633311524909
H           -4.99488705463665       -3.16210721025215       -0.73315884393714

          :  Hamiltonian                  GFN2-xTB          :
         :: gradient norm              0.000103333887 Eh/a0 ::
         :: HOMO-LUMO gap              0.004719399062 eV    ::
         :: SCC energy              -180.311673889450 Eh    ::
         :: -> dispersion             -0.160505119557 Eh    ::
         :: -> Gsolv                  -0.080937897786 Eh    ::
         :: repulsion energy           3.203665547453 Eh    ::

    * Orbital Energies and Occupations

         #    Occupation            Energy/Eh            Energy/eV
      -------------------------------------------------------------
         1        2.0000           -0.6806740             -18.5221
       ...           ...                  ...                  ...
       154        2.0000           -0.4037212             -10.9858
       155        2.0000           -0.3984076             -10.8412
       156        2.0000           -0.3962537             -10.7826
       157        2.0000           -0.3959739             -10.7750
       158        2.0000           -0.3820437             -10.3959
       159        2.0000           -0.3820016             -10.3948
       160        2.0000           -0.3819990             -10.3947
       161        1.9617           -0.3660937              -9.9619
       162        1.9575           -0.3659923              -9.9592
       163        1.8564           -0.3647291              -9.9248
       164        1.6169           -0.3634852              -9.8909
       165        1.6076           -0.3634479              -9.8899
       166        0.5228           -0.2786390              -7.5822 (HOMO)
       167        0.4772           -0.2784653              -7.5774 (LUMO)
       168                         -0.2496529              -6.7934
       169                         -0.2484112              -6.7596
       170                         -0.2483784              -6.7587
       171                         -0.2431480              -6.6164
       172                         -0.2257627              -6.1433
       173                         -0.2257350              -6.1426
       174                         -0.2256499              -6.1402
       175                         -0.2242058              -6.1009
       176                         -0.2239234              -6.0933
       177                         -0.2235932              -6.0843
       ...                                ...                  ...
       324                          0.7387509              20.1024
      -------------------------------------------------------------
                  HL-Gap            0.0001737 Eh            0.0047 eV

     #   Z          covCN         q      C6AA      α(0)
     1   6 C        3.758    -0.111    22.675     6.789
     2   6 C        2.966     0.014    27.707     8.634
     3   6 C        2.928    -0.043    29.064     8.841
     4   6 C        2.907    -0.047    29.167     8.856
     5   6 C        3.083     0.046    26.883     8.500
     6   6 C        3.064    -0.017    28.360     8.733
     7   6 C        2.916    -0.041    29.028     8.835
     8   6 C        3.067    -0.016    28.338     8.729
     9   6 C        2.912    -0.032    28.795     8.799
    10   6 C        2.920    -0.038    28.957     8.824
    11   6 C        2.923    -0.033    28.829     8.805
    12   6 C        2.909    -0.046    29.149     8.853
    13   6 C        3.083     0.047    26.857     8.496
    14   7 N        2.803    -0.026    21.752     6.927
    15   6 C        2.918     0.042    27.059     8.530
    16   6 C        2.918    -0.043    29.070     8.842
    17   6 C        2.922    -0.039    28.980     8.828
    18   6 C        2.979    -0.017    28.420     8.745
    19   6 C        2.939     0.198    23.802     8.001
    20   7 N        1.844    -0.323    29.236     8.013
    21   6 C        2.939     0.199    23.784     7.998
    22   6 C        2.979    -0.016    28.413     8.744
    23   6 C        2.922    -0.039    28.972     8.827
    24   6 C        2.918    -0.043    29.070     8.842
    25   6 C        2.917     0.042    27.047     8.528
    26   7 N        2.803    -0.026    21.748     6.926
    27   6 C        3.081     0.049    26.824     8.491
    28   6 C        2.909    -0.046    29.138     8.851
    29   6 C        2.923    -0.034    28.836     8.806
    30   6 C        2.920    -0.038    28.954     8.824
    31   6 C        2.912    -0.032    28.789     8.798
    32   6 C        3.068    -0.016    28.331     8.728
    33   6 C        3.064    -0.017    28.366     8.734
    34   6 C        2.916    -0.042    29.035     8.836
    35   6 C        2.966     0.014    27.708     8.634
    36   6 C        3.758    -0.111    22.674     6.789
    37   6 C        2.928    -0.043    29.056     8.840
    38   6 C        2.907    -0.047    29.176     8.857
    39   6 C        3.084     0.044    26.922     8.506
    40   6 C        2.963     0.008    27.833     8.653
    41   6 C        3.757    -0.108    22.624     6.782
    42   6 C        2.929    -0.045    29.124     8.850
    43   7 N        1.844    -0.326    29.309     8.023
    44   6 C        2.939     0.199    23.768     7.996
    45   6 C        2.980    -0.016    28.404     8.742
    46   6 C        2.922    -0.039    28.966     8.826
    47   6 C        2.918    -0.043    29.071     8.842
    48   6 C        2.917     0.043    27.036     8.527
    49   7 N        2.803    -0.026    21.753     6.927
    50   6 C        3.081     0.049    26.825     8.491
    51   6 C        2.909    -0.046    29.140     8.852
    52   6 C        2.923    -0.034    28.837     8.806
    53   6 C        2.920    -0.038    28.955     8.824
    54   6 C        2.912    -0.032    28.790     8.798
    55   6 C        3.068    -0.016    28.332     8.728
    56   6 C        3.064    -0.017    28.367     8.734
    57   6 C        2.916    -0.042    29.036     8.836
    58   6 C        2.966     0.013    27.710     8.634
    59   6 C        3.758    -0.111    22.674     6.789
    60   6 C        2.928    -0.043    29.057     8.840
    61   6 C        2.907    -0.048    29.179     8.857
    62   6 C        3.083     0.044    26.924     8.506
    63   6 C        2.963     0.008    27.831     8.653
    64   6 C        3.757    -0.108    22.625     6.782
    65   6 C        2.929    -0.045    29.116     8.849
    66   7 N        1.844    -0.325    29.272     8.018
    67   6 C        2.929    -0.045    29.130     8.851
    68   6 C        2.963     0.008    27.834     8.654
    69   6 C        3.757    -0.108    22.621     6.781
    70   1 H        0.925     0.046     2.372     2.408
    71   1 H        0.925     0.052     2.300     2.372
    72   1 H        0.925     0.051     2.310     2.377
    73   1 H        0.926     0.038     2.482     2.463
    74   1 H        0.926     0.031     2.573     2.508
    75   1 H        0.926     0.038     2.470     2.458
    76   1 H        0.926     0.038     2.480     2.463
    77   1 H        0.926     0.034     2.525     2.485
    78   1 H        0.926     0.034     2.528     2.486
    79   1 H        0.926     0.030     2.581     2.512
    80   1 H        0.926     0.040     2.451     2.448
    81   1 H        0.926     0.041     2.438     2.442
    82   1 H        0.926     0.041     2.436     2.441
    83   1 H        0.926     0.040     2.444     2.445
    84   1 H        0.926     0.031     2.574     2.509
    85   1 H        0.926     0.034     2.528     2.486
    86   1 H        0.926     0.034     2.526     2.485
    87   1 H        0.926     0.037     2.483     2.464
    88   1 H        0.926     0.039     2.468     2.457
    89   1 H        0.925     0.051     2.303     2.373
    90   1 H        0.925     0.051     2.307     2.375
    91   1 H        0.925     0.046     2.369     2.407
    92   1 H        0.926     0.038     2.481     2.463
    93   1 H        0.926     0.031     2.573     2.508
    94   1 H        0.925     0.049     2.327     2.385
    95   1 H        0.925     0.048     2.342     2.393
    96   1 H        0.925     0.057     2.239     2.340
    97   1 H        0.926     0.045     2.383     2.414
    98   1 H        0.926     0.042     2.423     2.434
    99   1 H        0.926     0.041     2.436     2.441
   100   1 H        0.926     0.031     2.574     2.509
   101   1 H        0.926     0.034     2.529     2.487
   102   1 H        0.926     0.034     2.527     2.486
   103   1 H        0.926     0.037     2.484     2.465
   104   1 H        0.926     0.038     2.470     2.458
   105   1 H        0.925     0.051     2.305     2.374
   106   1 H        0.925     0.046     2.371     2.408
   107   1 H        0.925     0.051     2.306     2.375
   108   1 H        0.926     0.038     2.480     2.463
   109   1 H        0.926     0.031     2.570     2.507
   110   1 H        0.925     0.048     2.342     2.393
   111   1 H        0.925     0.057     2.237     2.339
   112   1 H        0.925     0.049     2.327     2.385
   113   1 H        0.926     0.045     2.384     2.414
   114   1 H        0.926     0.044     2.396     2.421
   115   1 H        0.925     0.057     2.240     2.340
   116   1 H        0.925     0.048     2.342     2.393
   117   1 H        0.925     0.049     2.333     2.389

molecular dipole:
                 x           y           z       tot (Debye)
 q only:       -0.305       0.325       1.025
   full:       -0.285       0.242       0.985       2.678

 projected vibrational frequencies (cm⁻¹)
eigval :       -0.00    -0.00     0.00     0.00     0.00     0.00
eigval :       -6.42     2.79     5.24     7.82    11.66    13.29
eigval :       19.30    19.71    32.87    36.98    42.24    42.67
eigval :       45.73    48.38    49.66    51.49    58.93    71.66
eigval :       84.62    85.38    87.70    88.41    93.98    95.17
eigval :       98.83   103.30   108.51   113.47   115.33   119.64
eigval :      127.95   131.21   135.08   145.15   151.96   160.67
eigval :      178.06   181.89   183.93   188.04   197.53   200.41
eigval :      201.54   204.21   212.40   243.02   245.26   247.73
eigval :      253.37   269.49   289.37   291.04   299.24   307.64
eigval :      311.41   321.49   330.96   334.80   337.80   346.00
eigval :      356.85   364.45   381.61   383.53   386.12   392.54
eigval :      394.42   395.07   404.40   408.88   411.73   416.44
eigval :      417.49   421.18   424.23   426.24   426.71   447.82
eigval :      458.09   465.39   475.66   476.75   499.73   502.69
eigval :      503.28   516.84   519.26   521.85   522.81   550.32
eigval :      552.40   554.22   558.27   559.89   561.66   562.97
eigval :      565.24   572.98   577.17   583.45   585.18   598.78
eigval :      602.46   602.93   608.96   612.09   622.72   625.19
eigval :      631.04   667.07   667.60   668.28   673.16   673.44
eigval :      674.23   683.51   684.41   690.85   704.50   707.63
eigval :      708.21   709.10   729.55   729.68   732.64   739.17
eigval :      743.73   771.49   771.79   775.38   813.17   814.65
eigval :      817.55   818.62   820.76   822.23   850.43   859.67
eigval :      860.25   862.51   867.23   868.83   870.30   870.66
eigval :      871.38   872.31   872.84   873.68   874.71   900.15
eigval :      901.31   903.52   906.04   908.49   909.59   912.01
eigval :      912.55   913.71   915.37   917.51   917.82   919.51
eigval :      919.80   922.99   930.77   932.69   934.40   953.55
eigval :      957.93   979.02  1007.71  1008.80  1009.04  1011.41
eigval :     1015.14  1019.28  1027.74  1028.11  1028.19  1028.56
eigval :     1028.79  1029.03  1031.63  1032.21  1033.72  1065.96
eigval :     1066.35  1067.23  1079.11  1091.97  1092.81  1097.42
eigval :     1128.33  1128.98  1135.39  1144.21  1144.86  1147.16
eigval :     1150.12  1154.77  1172.35  1172.61  1173.81  1178.72
eigval :     1179.96  1181.45  1191.22  1191.48  1192.19  1209.31
eigval :     1218.76  1220.04  1233.78  1234.71  1236.40  1238.03
eigval :     1239.14  1240.29  1243.76  1244.67  1247.78  1275.44
eigval :     1280.01  1280.40  1281.36  1296.52  1297.24  1299.02
eigval :     1313.71  1323.80  1330.40  1334.10  1335.16  1345.34
eigval :     1346.50  1346.60  1346.68  1350.80  1352.85  1357.32
eigval :     1369.62  1370.70  1388.05  1399.98  1400.94  1401.02
eigval :     1403.42  1403.91  1405.91  1410.64  1413.31  1413.99
eigval :     1415.47  1420.93  1431.52  1432.62  1433.51  1434.36
eigval :     1461.09  1461.32  1461.47  1468.17  1471.45  1472.84
eigval :     1473.00  1473.65  1473.95  1474.13  1474.50  1475.24
eigval :     1475.86  1476.21  1478.60  1479.14  1479.37  1486.17
eigval :     1492.74  1493.31  1493.47  1522.82  1523.58  1525.54
eigval :     1561.04  1561.20  1561.28  1564.00  1564.20  1577.55
eigval :     1578.11  1579.32  1582.95  1583.22  1583.34  1585.53
eigval :     1595.32  1600.55  1607.79  3000.00  3000.14  3000.38
eigval :     3003.80  3004.22  3004.42  3013.71  3014.15  3014.25
eigval :     3020.16  3021.46  3021.52  3045.72  3045.94  3046.38
eigval :     3047.07  3048.11  3048.70  3074.04  3074.14  3074.33
eigval :     3074.53  3074.67  3075.25  3075.47  3076.04  3077.43
eigval :     3078.80  3079.26  3079.33  3081.40  3081.48  3081.98
eigval :     3085.13  3085.65  3086.16  3086.20  3087.03  3087.42
eigval :     3089.81  3089.89  3091.25  3092.83  3093.19  3094.02
eigval :     3099.60  3100.60  3102.35

   temp. (K)  partition function   enthalpy   heat capacity  entropy
                                   cal/mol     cal/K/mol   cal/K/mol   J/K/mol
 298.15  VIB  0.317E+32            36254.604    218.112    233.732
         ROT  0.466E+09              888.752      2.981     42.646
         INT  0.148E+41            37143.356    221.093    276.378
         TR   0.256E+29             1481.254      4.968     46.210
         TOT                       38624.6101   226.0612   322.5885  1349.7102

       T/K    H(0)-H(T)+PV         H(T)/Eh          T*S/Eh         G(T)/Eh
   ------------------------------------------------------------------------
    298.15    0.615522E-01    0.967706E+00    0.153272E+00    0.814434E+00
   ------------------------------------------------------------------------

         :::::::::::::::::::::::::::::::::::::::::::::::::::::
         ::                  THERMODYNAMIC                  ::
         :::::::::::::::::::::::::::::::::::::::::::::::::::::
         :: total free energy        -176.293574178967 Eh   ::
         ::.................................................::
         :: total energy             -177.108008341585 Eh   ::
         :: zero point energy           0.906154121744 Eh   ::
         :: G(RRHO) w/o ZPVE           -0.091719959126 Eh   ::
         :: G(RRHO) contrib.            0.814434162618 Eh   ::
         :::::::::::::::::::::::::::::::::::::::::::::::::::::

           -------------------------------------------------
          | TOTAL ENERGY             -177.108008341585 Eh   |
          | TOTAL ENTHALPY           -176.140301985667 Eh   |
          | TOTAL FREE ENERGY        -176.293574178967 Eh   |
          | GRADIENT NORM               0.000097413866 Eh/α |
          | HOMO-LUMO GAP               0.004727538258 eV   |
           -------------------------------------------------

 * finished run on 2025/08/25 at 15:47:14.065
