   * xtb version 6.7.1 (edcfbbe) compiled by 'albert@albert-system' on 2024-07-22

   ID    Z sym.   atoms
    1    6 C      1-13, 15-19, 21-25, 27-42, 44-48, 50-65, 67-69
    2    7 N      14, 20, 26, 43, 49, 66
    3    1 H      70-117

          program call               : xtb data2507/toluene/MeCZ-TRZ/MeCZ-TRZ_toluene_T1_crest.xyz --gfn 2 --uhf 2 --gbsa toluene --ohess vtight --parallel 40 --molden --ceasefiles --namespace data2507/toluene/MeCZ-TRZ/MeCZ-TRZ_toluene_T1_finalOpt
      * Solvation model:               GBSA
        Solvent                        toluene
        Solvent mass                       9.2140E+01 g/mol
          :  Hamiltonian                  GFN2-xTB          :
 * total energy  :  -177.1077355 Eh     change       -0.6452368E-07 Eh
 * total energy  :  -177.1078734 Eh     change       -0.1379556E-03 Eh
 * total energy  :  -177.1079210 Eh     change       -0.4756758E-04 Eh
 * total energy  :  -177.1079280 Eh     change       -0.7034123E-05 Eh
 * total energy  :  -177.1079364 Eh     change       -0.8348485E-05 Eh
 * total energy  :  -177.1079445 Eh     change       -0.8149392E-05 Eh
 * total energy  :  -177.1079526 Eh     change       -0.8079498E-05 Eh
 * total energy  :  -177.1079590 Eh     change       -0.6373679E-05 Eh
 * total energy  :  -177.1079642 Eh     change       -0.5183154E-05 Eh
 * total energy  :  -177.1079680 Eh     change       -0.3809164E-05 Eh
 * total energy  :  -177.1079964 Eh     change       -0.2660752E-06 Eh
 * total energy  :  -177.1079966 Eh     change       -0.2137064E-06 Eh
 * total energy  :  -177.1079968 Eh     change       -0.1554840E-06 Eh
 * total energy  :  -177.1079970 Eh     change       -0.1905411E-06 Eh
 * total energy  :  -177.1079972 Eh     change       -0.2673157E-06 Eh
 * total energy  :  -177.1079975 Eh     change       -0.3023699E-06 Eh
 * total energy  :  -177.1079978 Eh     change       -0.2534715E-06 Eh
 * total energy  :  -177.1079980 Eh     change       -0.1848636E-06 Eh
 * total energy  :  -177.1079980 Eh     change       -0.9942482E-09 Eh
   *** GEOMETRY OPTIMIZATION CONVERGED AFTER 44 ITERATIONS ***

 final structure:
================
117
 xtb: 6.7.1 (edcfbbe)
C           -5.56070353820856       -9.56811150248805        3.18884310428581
C           -4.75604233809531       -8.72406362414024        2.24728414031058
C           -4.39239816712774       -7.42633683290931        2.62909579865994
C           -3.65752499887985       -6.59708919102948        1.80704935713201
C           -3.28508913259688       -7.08590435013185        0.56065625422199
C           -3.61956527799052       -8.40199344381753        0.16394146157684
C           -4.35966242948368       -9.21359949412707        1.01111084272484
C           -3.03979296019132       -8.58983608576786       -1.13979942505587
C           -3.01738624851317       -9.64389441045333       -2.04140753029499
C           -2.34887829472304       -9.47526088259635       -3.24131560271774
C           -1.71266927524401       -8.27461012091532       -3.54994913839011
C           -1.72198505493875       -7.20852712255149       -2.66967909441810
C           -2.38301984470723       -7.37701092564575       -1.46063013737632
N           -2.55230521354963       -6.47942088387881       -0.43153004876955
C           -2.04167770553918       -5.16586758499474       -0.39929309429983
C           -0.66037193188106       -4.97679693647406       -0.34347781518725
C           -0.13048969501606       -3.70915279877947       -0.30171986164761
C           -0.97778864365619       -2.59274679183545       -0.31484051815295
C           -0.43739034488282       -1.25515379954870       -0.25548321240660
N            0.89134253775231       -1.10152103429218       -0.19567270665179
C            1.36176394218055        0.14849455045665       -0.12244475488086
C            2.79153648394596        0.34904468218714       -0.06895689305323
C            3.66992152486730       -0.74271866461260       -0.08423612470681
C            5.02797803591742       -0.53401042931331       -0.04500371941562
C            5.54539568293143        0.76079428792220        0.01131064841532
N            6.94307795886013        0.93702864013270        0.04271934077854
C            7.70830432005416        1.51878708738696       -0.94164657963044
C            7.31692409430693        2.02038935434427       -2.17576873562547
C            8.29737178887074        2.54851495907396       -2.99515019904692
C            9.63469487682004        2.56943603761239       -2.60491096157526
C           10.03302691341781        2.04598982999566       -1.38753554385257
C            9.06805826245833        1.51068767617051       -0.54687972460562
C            9.11038029359924        0.87390908454654        0.74300036336757
C           10.13144723266248        0.57403798484764        1.63275733752134
C            9.82707852018869       -0.06187718620056        2.82778323798697
C           10.90307301063888       -0.40732206883685        3.81241249649413
C            8.49628969307594       -0.38448558966249        3.12356271781736
C            7.46049935354352       -0.09672235422561        2.25874188107229
C            7.77513117112778        0.52942284947468        1.05893501766463
C            4.68572249322542        1.86914036814034        0.05733968873790
C            5.22943866588879        3.25995768418800        0.19184486857952
C            3.32471437064446        1.64220194105438        0.00770253010621
N            0.56308142257187        1.22275356784906       -0.09361686209025
C           -0.75570951989353        1.00625204783223       -0.17326822175278
C           -1.64433425477825        2.14565441801758       -0.16306305766329
C           -3.03213873278979        1.97359519393903       -0.25202079171238
C           -3.86320130411524        3.06860101411623       -0.25004795119274
C           -3.33737875160555        4.35776438403944       -0.15858138770106
N           -4.21856444673420        5.45786164731837       -0.16369539114766
C           -4.31749012869709        6.41135459745341       -1.15055554098557
C           -3.63640040017109        6.49886589879330       -2.35738113299200
C           -3.93412605614935        7.56344385143672       -3.18777821660093
C           -4.89053575850260        8.51309545037487       -2.83465460779324
C           -5.58998373669979        8.41579232604697       -1.64470424945407
C           -5.30951580980543        7.35657566166661       -0.79396161946247
C           -5.83712959892163        6.92907010821584        0.47478181155944
C           -6.80984531892255        7.42961401082185        1.32763640283684
C           -7.08559903722955        6.76097848992325        2.51169475264925
C           -8.13289453232300        7.26777514951142        3.45657455139906
C           -6.37713425446665        5.59571684232349        2.83210446167858
C           -5.40312250954186        5.07643135794673        2.00433727760847
C           -5.13893215328244        5.74701626472060        0.81647189179024
C           -1.95280775422513        4.55472167227267       -0.04091805580767
C           -1.38421191045044        5.93161386194901        0.12855448823233
C           -1.13179199968672        3.44482205122255       -0.05339347362700
N           -1.28540726632995       -0.21875667625858       -0.26234989255443
C           -2.36176241107933       -2.79786367936917       -0.39264134614162
C           -2.90978275255380       -4.06392335763145       -0.44215116664839
C           -4.39057562196168       -4.25890604833010       -0.57215048666257
H           -6.51705918639907       -9.09099871188755        3.40189515342549
H           -5.03375637585560       -9.68891707539104        4.13492418288428
H           -5.74919724971917      -10.55190868987214        2.76714224046567
H           -4.69614627121659       -7.06884450866226        3.60253538672420
H           -3.36866854141364       -5.60560004444897        2.12331296060539
H           -4.62015310959501      -10.21789630335318        0.71136751751012
H           -3.51323300042539      -10.57479282078214       -1.81105992928760
H           -2.31960847018761      -10.28531224889989       -3.95502488499789
H           -1.20390093424462       -8.17392743440489       -4.49740969355570
H           -1.23426650323429       -6.27524794331441       -2.90912427095104
H           -0.01456327116335       -5.84315350495892       -0.32393429421124
H            0.93550506738088       -3.55152465195964       -0.25193266704492
H            3.25966967731397       -1.73918214103984       -0.13367737645012
H            5.71330399362121       -1.36934742325999       -0.06756373806357
H            6.28342441764713        1.98461093316102       -2.48722811795484
H            8.02167998745258        2.94898740198920       -3.95974458818725
H           10.37156532744807        2.99254868658634       -3.27153266119993
H           11.07307227939675        2.04920349742805       -1.09822186101287
H           11.15248611259908        0.83446234606834        1.39612132239359
H           10.92532582685149       -1.48274123970054        3.98714435404995
H           10.71272613251419        0.07873336287081        4.76894349670130
H           11.87862180439962       -0.09348422088763        3.45041872878389
H            8.27843860652347       -0.87401089128342        4.06191249067680
H            6.43851544312570       -0.34688080015016        2.50197243227041
H            5.62471059252729        3.61766221823164       -0.75851255669870
H            4.44528062215954        3.94010767705515        0.51375485668414
H            6.04067664376740        3.28608893515148        0.91798670717152
H            2.63442051955078        2.47160728108826        0.04052516165344
H           -3.42777792834877        0.97297167379561       -0.32799340997898
H           -4.93404310246881        2.94585063357936       -0.32864599613254
H           -2.90972961200489        5.75170110550066       -2.64034668189699
H           -3.41782713693155        7.65873840549514       -4.13177986158107
H           -5.09409880118979        9.33183758125369       -3.50888234293832
H           -6.34189431297466        9.14531522192070       -1.38413348063044
H           -7.34485175410924        8.33204493358089        1.07121966476568
H           -7.70748531828819        7.42441115943246        4.44722818415612
H           -8.55435125120080        8.20585396634628        3.10505213203129
H           -8.93835509029733        6.53990487860910        3.55401844908687
H           -6.60295071545736        5.09114466877888        3.76053904500971
H           -4.86151197630813        4.18006879581628        2.26735925297000
H           -1.40167127560769        6.47936910708038       -0.81320858198558
H           -0.35487415712820        5.87342563371194        0.47215117526461
H           -1.96697037591498        6.50007203696881        0.85214723124502
H           -0.06206703546199        3.55960304938324        0.03630400118302
H           -3.00020875906081       -1.92780201393660       -0.42550734811129
H           -4.61215593861689       -5.01652765342600       -1.32267287219389
H           -4.86877820523091       -3.32643744418115       -0.85999166608026
H           -4.82361420294054       -4.59091627957401        0.37100078037200

          :  Hamiltonian                  GFN2-xTB          :
         :: gradient norm              0.000043297414 Eh/a0 ::
         :: HOMO-LUMO gap              0.002640899246 eV    ::
         :: SCC energy              -180.311657451262 Eh    ::
         :: -> dispersion             -0.160515319567 Eh    ::
         :: -> Gsolv                  -0.080897189817 Eh    ::
         :: repulsion energy           3.203659475211 Eh    ::

    * Orbital Energies and Occupations

         #    Occupation            Energy/Eh            Energy/eV
      -------------------------------------------------------------
         1        2.0000           -0.6806837             -18.5223
       ...           ...                  ...                  ...
       154        2.0000           -0.4037846             -10.9875
       155        2.0000           -0.3983476             -10.8396
       156        2.0000           -0.3963047             -10.7840
       157        2.0000           -0.3959412             -10.7741
       158        2.0000           -0.3820391             -10.3958
       159        2.0000           -0.3820194             -10.3953
       160        2.0000           -0.3820032             -10.3948
       161        1.9603           -0.3660725              -9.9613
       162        1.9582           -0.3660217              -9.9600
       163        1.8552           -0.3647326              -9.9249
       164        1.6146           -0.3634888              -9.8910
       165        1.6116           -0.3634768              -9.8907
       166        0.5127           -0.2786283              -7.5819 (HOMO)
       167        0.4873           -0.2785314              -7.5792 (LUMO)
       168                         -0.2496522              -6.7934
       169                         -0.2484077              -6.7595
       170                         -0.2483876              -6.7590
       171                         -0.2431709              -6.6170
       172                         -0.2257525              -6.1430
       173                         -0.2257147              -6.1420
       174                         -0.2256651              -6.1407
       175                         -0.2240649              -6.0971
       176                         -0.2239829              -6.0949
       177                         -0.2236994              -6.0872
       ...                                ...                  ...
       324                          0.7387555              20.1026
      -------------------------------------------------------------
                  HL-Gap            0.0000969 Eh            0.0026 eV

     #   Z          covCN         q      C6AA      α(0)
     1   6 C        3.758    -0.111    22.675     6.789
     2   6 C        2.966     0.014    27.707     8.634
     3   6 C        2.928    -0.043    29.064     8.841
     4   6 C        2.907    -0.047    29.166     8.855
     5   6 C        3.083     0.046    26.883     8.500
     6   6 C        3.064    -0.017    28.360     8.733
     7   6 C        2.916    -0.041    29.029     8.835
     8   6 C        3.067    -0.016    28.338     8.729
     9   6 C        2.912    -0.032    28.795     8.799
    10   6 C        2.920    -0.039    28.957     8.824
    11   6 C        2.923    -0.033    28.829     8.805
    12   6 C        2.909    -0.046    29.150     8.853
    13   6 C        3.083     0.047    26.858     8.496
    14   7 N        2.803    -0.026    21.753     6.927
    15   6 C        2.917     0.042    27.055     8.530
    16   6 C        2.918    -0.043    29.071     8.842
    17   6 C        2.922    -0.039    28.978     8.828
    18   6 C        2.979    -0.017    28.418     8.744
    19   6 C        2.939     0.198    23.795     8.000
    20   7 N        1.844    -0.324    29.262     8.017
    21   6 C        2.939     0.199    23.780     7.998
    22   6 C        2.979    -0.016    28.412     8.743
    23   6 C        2.922    -0.039    28.970     8.826
    24   6 C        2.918    -0.043    29.070     8.841
    25   6 C        2.917     0.043    27.044     8.528
    26   7 N        2.803    -0.026    21.750     6.927
    27   6 C        3.081     0.049    26.824     8.491
    28   6 C        2.909    -0.046    29.138     8.851
    29   6 C        2.923    -0.034    28.836     8.806
    30   6 C        2.920    -0.038    28.954     8.824
    31   6 C        2.912    -0.032    28.789     8.798
    32   6 C        3.067    -0.016    28.332     8.728
    33   6 C        3.064    -0.017    28.366     8.734
    34   6 C        2.916    -0.042    29.035     8.836
    35   6 C        2.966     0.014    27.708     8.634
    36   6 C        3.758    -0.111    22.674     6.789
    37   6 C        2.928    -0.042    29.056     8.840
    38   6 C        2.907    -0.047    29.177     8.857
    39   6 C        3.083     0.044    26.922     8.506
    40   6 C        2.963     0.008    27.833     8.653
    41   6 C        3.757    -0.108    22.624     6.782
    42   6 C        2.929    -0.045    29.122     8.850
    43   7 N        1.844    -0.325    29.289     8.021
    44   6 C        2.939     0.199    23.781     7.998
    45   6 C        2.980    -0.016    28.408     8.743
    46   6 C        2.922    -0.039    28.971     8.827
    47   6 C        2.918    -0.043    29.070     8.841
    48   6 C        2.917     0.043    27.045     8.528
    49   7 N        2.803    -0.026    21.753     6.927
    50   6 C        3.082     0.049    26.823     8.491
    51   6 C        2.909    -0.046    29.141     8.852
    52   6 C        2.923    -0.034    28.837     8.806
    53   6 C        2.920    -0.038    28.955     8.824
    54   6 C        2.912    -0.032    28.789     8.798
    55   6 C        3.067    -0.016    28.332     8.728
    56   6 C        3.064    -0.017    28.366     8.734
    57   6 C        2.916    -0.042    29.035     8.836
    58   6 C        2.966     0.014    27.709     8.634
    59   6 C        3.758    -0.111    22.674     6.789
    60   6 C        2.928    -0.043    29.056     8.840
    61   6 C        2.907    -0.047    29.178     8.857
    62   6 C        3.083     0.044    26.921     8.506
    63   6 C        2.963     0.008    27.831     8.653
    64   6 C        3.757    -0.108    22.623     6.781
    65   6 C        2.929    -0.045    29.120     8.850
    66   7 N        1.844    -0.324    29.264     8.017
    67   6 C        2.929    -0.045    29.127     8.851
    68   6 C        2.963     0.008    27.834     8.654
    69   6 C        3.757    -0.108    22.621     6.781
    70   1 H        0.925     0.052     2.301     2.372
    71   1 H        0.925     0.051     2.309     2.376
    72   1 H        0.925     0.046     2.372     2.408
    73   1 H        0.926     0.038     2.482     2.463
    74   1 H        0.926     0.031     2.572     2.508
    75   1 H        0.926     0.038     2.470     2.458
    76   1 H        0.926     0.038     2.480     2.463
    77   1 H        0.926     0.034     2.525     2.485
    78   1 H        0.926     0.034     2.528     2.486
    79   1 H        0.926     0.030     2.581     2.512
    80   1 H        0.926     0.040     2.449     2.447
    81   1 H        0.926     0.041     2.436     2.441
    82   1 H        0.926     0.041     2.434     2.440
    83   1 H        0.926     0.040     2.443     2.444
    84   1 H        0.926     0.031     2.574     2.509
    85   1 H        0.926     0.034     2.528     2.486
    86   1 H        0.926     0.034     2.526     2.485
    87   1 H        0.926     0.037     2.483     2.464
    88   1 H        0.926     0.039     2.468     2.457
    89   1 H        0.925     0.051     2.305     2.374
    90   1 H        0.925     0.051     2.305     2.374
    91   1 H        0.925     0.046     2.370     2.407
    92   1 H        0.926     0.038     2.481     2.463
    93   1 H        0.926     0.031     2.572     2.508
    94   1 H        0.925     0.057     2.239     2.340
    95   1 H        0.925     0.050     2.326     2.385
    96   1 H        0.925     0.048     2.343     2.394
    97   1 H        0.926     0.045     2.382     2.414
    98   1 H        0.926     0.042     2.425     2.435
    99   1 H        0.926     0.041     2.439     2.442
   100   1 H        0.926     0.031     2.575     2.510
   101   1 H        0.926     0.034     2.529     2.487
   102   1 H        0.926     0.034     2.527     2.486
   103   1 H        0.926     0.037     2.484     2.464
   104   1 H        0.926     0.038     2.470     2.458
   105   1 H        0.925     0.051     2.310     2.377
   106   1 H        0.925     0.046     2.370     2.408
   107   1 H        0.925     0.052     2.301     2.372
   108   1 H        0.926     0.038     2.481     2.463
   109   1 H        0.926     0.031     2.571     2.508
   110   1 H        0.925     0.056     2.241     2.341
   111   1 H        0.925     0.049     2.329     2.387
   112   1 H        0.925     0.048     2.341     2.392
   113   1 H        0.926     0.045     2.386     2.415
   114   1 H        0.926     0.044     2.394     2.420
   115   1 H        0.925     0.048     2.343     2.394
   116   1 H        0.925     0.049     2.333     2.389
   117   1 H        0.925     0.057     2.238     2.340

molecular dipole:
                 x           y           z       tot (Debye)
 q only:       -0.317       0.329       0.973
   full:       -0.298       0.245       0.938       2.578

 projected vibrational frequencies (cm⁻¹)
eigval :       -0.00    -0.00    -0.00     0.00     0.00     0.00
eigval :       -8.51    -6.16     3.75     5.17    11.50    12.86
eigval :       17.90    19.10    31.47    39.83    40.36    43.33
eigval :       44.85    48.28    49.33    51.96    65.23    76.01
eigval :       84.86    86.11    88.09    88.66    90.78    92.53
eigval :       93.10   103.32   106.65   108.77   113.20   119.07
eigval :      128.12   130.38   134.21   143.97   152.21   160.58
eigval :      177.02   182.10   184.08   187.80   197.52   201.16
eigval :      202.03   205.32   214.05   242.69   245.10   247.84
eigval :      253.00   269.19   289.43   290.55   297.67   308.17
eigval :      311.15   320.36   329.93   334.07   337.87   345.60
eigval :      356.26   363.59   381.06   383.01   386.38   392.09
eigval :      393.25   393.29   404.19   409.06   413.28   416.33
eigval :      417.43   421.17   421.64   426.06   426.88   447.94
eigval :      459.01   464.82   475.81   477.99   499.75   502.63
eigval :      503.17   517.32   519.36   521.72   522.74   550.04
eigval :      552.41   554.14   559.64   559.91   561.76   562.44
eigval :      566.94   572.39   577.58   583.64   584.98   599.01
eigval :      602.47   602.78   608.35   609.67   623.83   624.88
eigval :      630.59   666.78   667.48   668.28   672.83   673.47
eigval :      673.51   684.37   685.39   690.80   705.47   708.05
eigval :      708.35   708.51   729.21   729.62   732.47   739.07
eigval :      743.78   772.42   774.93   775.04   812.87   812.97
eigval :      815.48   819.46   820.63   822.20   850.50   859.50
eigval :      860.14   862.42   866.73   869.53   870.21   870.75
eigval :      871.91   872.14   872.68   872.97   873.40   902.38
eigval :      903.61   903.66   906.19   907.47   909.10   911.85
eigval :      912.38   913.14   913.76   914.77   917.63   919.26
eigval :      922.00   922.16   930.71   932.56   934.41   954.04
eigval :      957.42   979.54  1008.32  1008.77  1009.20  1011.83
eigval :     1015.23  1019.46  1027.85  1028.00  1028.37  1028.59
eigval :     1028.78  1028.91  1031.96  1032.61  1032.74  1065.34
eigval :     1066.20  1066.77  1079.26  1091.86  1092.59  1097.19
eigval :     1128.66  1128.94  1135.42  1143.34  1143.82  1146.05
eigval :     1149.39  1154.60  1172.81  1173.88  1173.95  1178.26
eigval :     1179.52  1180.85  1191.11  1191.78  1192.04  1209.11
eigval :     1218.53  1219.83  1233.50  1234.61  1236.01  1237.60
eigval :     1238.99  1239.97  1243.77  1244.95  1248.07  1275.36
eigval :     1279.95  1280.35  1281.53  1296.81  1297.47  1298.99
eigval :     1313.49  1324.23  1330.40  1333.96  1335.70  1345.34
eigval :     1346.42  1346.62  1346.75  1350.73  1353.09  1357.51
eigval :     1369.56  1370.82  1388.05  1400.34  1400.73  1401.66
eigval :     1404.06  1404.28  1404.57  1410.59  1413.23  1413.86
eigval :     1415.33  1421.16  1431.38  1432.45  1433.36  1434.20
eigval :     1461.12  1461.50  1461.66  1467.93  1471.21  1472.70
eigval :     1473.79  1474.00  1474.22  1474.64  1475.06  1475.48
eigval :     1475.71  1475.98  1478.31  1478.91  1479.58  1486.15
eigval :     1492.88  1493.16  1493.49  1523.08  1523.79  1525.29
eigval :     1560.91  1561.16  1561.47  1563.99  1564.17  1577.50
eigval :     1578.25  1579.38  1582.94  1583.28  1583.38  1585.55
eigval :     1595.50  1600.16  1607.52  2999.37  3000.15  3000.33
eigval :     3003.45  3003.54  3003.90  3013.93  3013.96  3014.18
eigval :     3019.77  3020.34  3022.15  3045.02  3046.04  3046.07
eigval :     3047.53  3047.78  3048.15  3073.47  3073.88  3074.54
eigval :     3074.68  3074.73  3074.80  3075.40  3075.72  3076.20
eigval :     3078.34  3079.30  3079.76  3081.17  3081.31  3081.40
eigval :     3084.50  3085.25  3085.96  3086.10  3086.39  3086.57
eigval :     3089.96  3090.34  3091.98  3093.01  3093.31  3094.23
eigval :     3099.54  3100.68  3102.42

   temp. (K)  partition function   enthalpy   heat capacity  entropy
                                   cal/mol     cal/K/mol   cal/K/mol   J/K/mol
 298.15  VIB  0.278E+32            36274.505    218.207    233.789
         ROT  0.466E+09              888.752      2.981     42.647
         INT  0.130E+41            37163.257    221.188    276.437
         TR   0.256E+29             1481.254      4.968     46.210
         TOT                       38644.5114   226.1557   322.6468  1349.9541

       T/K    H(0)-H(T)+PV         H(T)/Eh          T*S/Eh         G(T)/Eh
   ------------------------------------------------------------------------
    298.15    0.615839E-01    0.967661E+00    0.153300E+00    0.814361E+00
   ------------------------------------------------------------------------

         :::::::::::::::::::::::::::::::::::::::::::::::::::::
         ::                  THERMODYNAMIC                  ::
         :::::::::::::::::::::::::::::::::::::::::::::::::::::
         :: total free energy        -176.293636921280 Eh   ::
         ::.................................................::
         :: total energy             -177.107997974406 Eh   ::
         :: zero point energy           0.906077000955 Eh   ::
         :: G(RRHO) w/o ZPVE           -0.091715947829 Eh   ::
         :: G(RRHO) contrib.            0.814361053126 Eh   ::
         :::::::::::::::::::::::::::::::::::::::::::::::::::::

           -------------------------------------------------
          | TOTAL ENERGY             -177.107997974406 Eh   |
          | TOTAL ENTHALPY           -176.140337024622 Eh   |
          | TOTAL FREE ENERGY        -176.293636921280 Eh   |
          | GRADIENT NORM               0.000045935034 Eh/α |
          | HOMO-LUMO GAP               0.002637231373 eV   |
           -------------------------------------------------

 * finished run on 2025/08/25 at 16:05:02.156
