   * xtb version 6.7.1 (edcfbbe) compiled by 'albert@albert-system' on 2024-07-22

   ID    Z sym.   atoms
    1    6 C      1-12, 14-23, 25-38, 40-53, 57-59, 61-73
    2    7 N      13, 24, 39, 54, 56, 60
    3   16 S      55
    4    1 H      74-113

          program call               : xtb data2507/toluene/BCPBT/BCPBT_toluene_S0_crest.xyz --gfn 2 --gbsa toluene --ohess vtight --parallel 40 --molden --ceasefiles --namespace data2507/toluene/BCPBT/BCPBT_toluene_S0_finalOpt
      * Solvation model:               GBSA
        Solvent                        toluene
        Solvent mass                       9.2140E+01 g/mol
          :  Hamiltonian                  GFN2-xTB          :
 * total energy  :  -182.7607093 Eh     change       -0.4998185E-08 Eh
 * total energy  :  -182.7607659 Eh     change       -0.5661358E-04 Eh
 * total energy  :  -182.7608061 Eh     change       -0.4018765E-04 Eh
 * total energy  :  -182.7608247 Eh     change       -0.1864625E-04 Eh
 * total energy  :  -182.7608425 Eh     change       -0.1782710E-04 Eh
 * total energy  :  -182.7608600 Eh     change       -0.1746075E-04 Eh
 * total energy  :  -182.7608800 Eh     change       -0.1998200E-04 Eh
 * total energy  :  -182.7609067 Eh     change       -0.2675047E-04 Eh
 * total energy  :  -182.7609403 Eh     change       -0.3352370E-04 Eh
 * total energy  :  -182.7609709 Eh     change       -0.3062578E-04 Eh
 * total energy  :  -182.7610893 Eh     change       -0.3063639E-06 Eh
 * total energy  :  -182.7610896 Eh     change       -0.3078491E-06 Eh
 * total energy  :  -182.7610898 Eh     change       -0.2295764E-06 Eh
 * total energy  :  -182.7610900 Eh     change       -0.1539889E-06 Eh
 * total energy  :  -182.7610901 Eh     change       -0.1263857E-06 Eh
 * total energy  :  -182.7610902 Eh     change       -0.1283725E-06 Eh
 * total energy  :  -182.7610903 Eh     change       -0.1323842E-06 Eh
 * total energy  :  -182.7610905 Eh     change       -0.1170482E-06 Eh
 * total energy  :  -182.7610906 Eh     change       -0.9943003E-07 Eh
   *** GEOMETRY OPTIMIZATION CONVERGED AFTER 63 ITERATIONS ***

 final structure:
================
113
 xtb: 6.7.1 (edcfbbe)
C           -8.76477072707427       -2.02250691428198       -4.13878422120774
C           -8.30113861569264       -0.80114801866443       -3.65405712213424
C           -7.28583868290203       -0.73388081717571       -2.71868806243148
C           -6.74315670221254       -1.92748304616432       -2.26385623136522
C           -7.18941908417468       -3.17056150114877       -2.76927943495675
C           -8.21113075481073       -3.21241182976407       -3.70953487091344
C           -6.39300299895848       -4.18185553313519       -2.13099473428622
C           -6.37085430157904       -5.56904492129594       -2.20317396498240
C           -5.47097098516877       -6.25897138744804       -1.41500457120621
C           -4.61114175369648       -5.58398300906914       -0.55075313289103
C           -4.61430850935632       -4.20476677888068       -0.46227591209886
C           -5.49782554182389       -3.50447642735862       -1.27158635211378
N           -5.71939429471747       -2.14351210394474       -1.36097949797732
C           -5.01534161731848       -1.15763364076848       -0.65575684522552
C           -3.62529833397397       -1.16094924348908       -0.66617395833072
C           -2.91452315342235       -0.19164715323483        0.03690837589177
C           -1.44886376997318       -0.18782545365718        0.02004767259005
C           -0.70462283155895       -1.34761539093125        0.00480014536884
C            0.69711367406346       -1.35106809294297       -0.01241578243573
C            1.44706287760849       -0.19498363627713       -0.02960519329731
C            2.91271387913622       -0.20590612021563       -0.04383486155258
C            3.61571547598394        0.75984570769283       -0.75734342311845
C            5.00554670710547        0.77389508307472       -0.74553639716832
N            5.69704252868865        1.77029848361559       -1.44408917932741
C            5.42630169608407        3.12623241919338       -1.38476303713311
C            4.47713182549211        3.80821186995529       -0.63592849782789
C            4.43758467350544        5.18550195679216       -0.74650778609403
C            5.32266963005641        5.87692605171664       -1.57140540663520
C            6.28395901335011        5.20531742354720       -2.30035012976309
C            6.34353754445019        3.82050633474798       -2.20635415691362
C            7.20115207498715        2.82817003322675       -2.79311961110076
C            8.26384770232223        2.89328260709129       -3.68518932334120
C            8.87274683167982        1.71738410466197       -4.07694705667414
C            8.42222741198420        0.48683748013449       -3.60384019112274
C            7.36687995587011        0.39707769715318       -2.71568845782225
C            6.76907322036777        1.57710089899838       -2.29533604024303
C            5.70546656184736       -0.19963839636575       -0.03984286121583
C            5.00721388552083       -1.17965656116071        0.65697684365182
N            5.70480329263563       -2.16698332248821        1.36663006599239
C            6.72529982680950       -1.95313872171588        2.27368106723630
C            7.27064763788571       -0.76073596379860        2.72845622450839
C            8.28108504316503       -0.83004900479711        3.66892338812530
C            8.73738341030096       -2.05220669822852        4.15858328521930
C            8.18120828146621       -3.24082474214943        3.72904948630139
C            7.16431944363745       -3.19693223415972        2.78367644112758
C            6.36696096002671       -4.20639315584350        2.14366933494600
C            6.33915635731733       -5.59334890904893        2.21828033269634
C            5.44006349167209       -6.28126059843449        1.42744757517080
C            4.58645113353899       -5.60458543207607        0.55836037332322
C            4.59538200563563       -4.22556503639148        0.46729604400946
C            5.47821806653429       -3.52721204807963        1.27901662560170
C            3.61716287008959       -1.17698360907681        0.66314417573576
C            0.72220590185710        1.02170944869358       -0.02395654230595
N            1.21943944620648        2.26063757319336       -0.02707052347378
S            0.00766474961407        3.31434213538875       -0.00892637325255
N           -1.20922308430896        2.26661261118683        0.01163231777236
C           -0.71804089340899        1.02527464383823        0.01133162423775
C           -3.61119673178227        0.77871152194096        0.75033679084363
C           -5.00096654657132        0.79862957911722        0.74287230354032
N           -5.68580598343365        1.79911477986226        1.44218125949377
C           -6.75410725829470        1.61161982174910        2.29933838304228
C           -7.35510065111287        0.43473519492623        2.72390341194948
C           -8.40516966068666        0.53015979201608        3.61769498096074
C           -8.84733531597452        1.76317999387015        4.09224208904052
C           -8.23527386446955        2.93593330818304        3.69599834813962
C           -7.17781529865696        2.86514398417366        2.79816109110756
C           -6.31892999840530        3.85300297848361        2.20571052239214
C           -6.25266865035640        5.23764946399098        2.29767012187340
C           -5.29240782057816        5.90407396490910        1.56262922855714
C           -4.41468269928905        5.20772351093669        0.73401236020553
C           -4.46096045914996        3.83049652060145        0.62535856658575
C           -5.40920697681535        3.15370448934991        1.38004194223078
C           -5.70724763547039       -0.17331442919485        0.04139870806683
H           -9.56260400370097       -2.03305091131501       -4.86687845317496
H           -8.74237081413220        0.11457023301963       -4.02003809604122
H           -6.92333199064759        0.21936344815775       -2.36454063986566
H           -8.55922380926524       -4.15815639815495       -4.09729643216623
H           -7.04907212106304       -6.09350375005279       -2.85956104591401
H           -5.43630333614169       -7.33773674453685       -1.45816082060525
H           -3.93042616448091       -6.15168202758810        0.06697441217960
H           -3.95919941480743       -3.69160972064509        0.22545521988644
H           -3.10370421834445       -1.89825669851282       -1.25628412904888
H           -1.21460613457155       -2.29872583590907        0.02489429983481
H            1.20242268419415       -2.30471340130866       -0.03033462253773
H            3.08102236525592        1.49552091760546       -1.33456188866713
H            3.78973457881358        3.28669126889122        0.01176531580236
H            3.70446802009624        5.73826741387021       -0.17736099621563
H            5.25742293790543        6.95345089496126       -1.63270366012633
H            6.97935464865445        5.74119407468342       -2.92903969300952
H            8.60072391280500        3.84586998565051       -4.06599609489092
H            9.70264604482084        1.74609815018897       -4.76772129248914
H            8.90575643942610       -0.41849602415001       -3.94119002918372
H            7.01559775307082       -0.56463873785629       -2.37355988298249
H            6.78406877385839       -0.19264433583491       -0.02785585172645
H            6.91370340611352        0.19316519213334        2.37044147799578
H            8.72423925093304        0.08467837024641        4.03506258276399
H            9.53146138046651       -2.06436046919260        4.89074282844809
H            8.52364528335162       -4.18711762729169        4.12049475130497
H            7.01246210722954       -6.11921252340983        2.87859043561985
H            5.40109811460001       -7.35980509351993        1.47241072958984
H            3.90616951387610       -6.17082075930176       -0.06118929295201
H            3.94515766896397       -3.71111473870710       -0.22410432308213
H            3.09065359967194       -1.91084796299248        1.25318239125367
H           -3.07167305672379        1.51331056151299        1.32441479660010
H           -7.01014775463645       -0.52887410010443        2.38066662338808
H           -8.89103140953678       -0.37262939986253        3.95849217631096
H           -9.67329603425575        1.79627734193730        4.78752421226641
H           -8.56567087975294        3.89039693098717        4.07777937163060
H           -6.94229430367585        5.77741462295853        2.92938941372482
H           -5.22213438667023        6.98038277258192        1.62215985409507
H           -3.68216843156325        5.75653174023036        0.16027323313187
H           -3.77927470363138        3.30504473025628       -0.02520340002935
H           -6.78584648544434       -0.16189355149149        0.03308529318673

          :  Hamiltonian                  GFN2-xTB          :
         :: gradient norm              0.000026280649 Eh/a0 ::
         :: HOMO-LUMO gap              1.314533041023 eV    ::
         :: SCC energy              -186.113351051823 Eh    ::
         :: -> dispersion             -0.171917049683 Eh    ::
         :: -> Gsolv                  -0.073734162850 Eh    ::
         :: repulsion energy           3.352260491498 Eh    ::

    * Orbital Energies and Occupations

         #    Occupation            Energy/Eh            Energy/eV
      -------------------------------------------------------------
         1        2.0000           -0.7704393             -20.9647
       ...           ...                  ...                  ...
       158        2.0000           -0.4071630             -11.0795
       159        2.0000           -0.4071324             -11.0786
       160        2.0000           -0.4055624             -11.0359
       161        2.0000           -0.4055109             -11.0345
       162        2.0000           -0.3903509             -10.6220
       163        2.0000           -0.3805941             -10.3565
       164        2.0000           -0.3805885             -10.3563
       165        2.0000           -0.3790419             -10.3143
       166        2.0000           -0.3790396             -10.3142
       167        2.0000           -0.3659213              -9.9572
       168        2.0000           -0.3656863              -9.9508
       169        2.0000           -0.3642201              -9.9109
       170        2.0000           -0.3641828              -9.9099 (HOMO)
       171                         -0.3158746              -8.5954 (LUMO)
       172                         -0.2630463              -7.1579
       173                         -0.2496085              -6.7922
       174                         -0.2495765              -6.7913
       175                         -0.2477307              -6.7411
       176                         -0.2459763              -6.6934
       177                         -0.2414376              -6.5699
       178                         -0.2396306              -6.5207
       179                         -0.2396243              -6.5205
       180                         -0.2277957              -6.1986
       181                         -0.2239581              -6.0942
       ...                                ...                  ...
       337                          0.7437687              20.2390
      -------------------------------------------------------------
                  HL-Gap            0.0483082 Eh            1.3145 eV

     #   Z          covCN         q      C6AA      α(0)
     1   6 C        2.920    -0.042    29.041     8.837
     2   6 C        2.924    -0.034    28.855     8.809
     3   6 C        2.910    -0.052    29.285     8.874
     4   6 C        3.072     0.047    26.879     8.501
     5   6 C        3.067    -0.018    28.384     8.736
     6   6 C        2.912    -0.034    28.855     8.808
     7   6 C        3.066    -0.018    28.381     8.736
     8   6 C        2.912    -0.034    28.852     8.808
     9   6 C        2.920    -0.042    29.047     8.838
    10   6 C        2.924    -0.035    28.867     8.811
    11   6 C        2.910    -0.052    29.297     8.875
    12   6 C        3.074     0.046    26.883     8.501
    13   7 N        2.803    -0.044    22.095     6.981
    14   6 C        2.910     0.067    26.506     8.442
    15   6 C        2.927    -0.054    29.346     8.884
    16   6 C        2.974     0.017    27.622     8.621
    17   6 C        2.966    -0.003    28.099     8.695
    18   6 C        2.923    -0.037    28.919     8.819
    19   6 C        2.923    -0.037    28.920     8.819
    20   6 C        2.966    -0.003    28.099     8.695
    21   6 C        2.974     0.017    27.622     8.621
    22   6 C        2.928    -0.050    29.247     8.869
    23   6 C        2.910     0.068    26.484     8.439
    24   7 N        2.802    -0.044    22.084     6.979
    25   6 C        3.071     0.047    26.884     8.502
    26   6 C        2.909    -0.053    29.324     8.879
    27   6 C        2.924    -0.035    28.870     8.811
    28   6 C        2.919    -0.042    29.046     8.838
    29   6 C        2.912    -0.035    28.869     8.811
    30   6 C        3.066    -0.018    28.386     8.736
    31   6 C        3.066    -0.018    28.380     8.735
    32   6 C        2.912    -0.035    28.859     8.809
    33   6 C        2.920    -0.042    29.045     8.838
    34   6 C        2.923    -0.035    28.866     8.811
    35   6 C        2.910    -0.052    29.293     8.875
    36   6 C        3.070     0.046    26.889     8.502
    37   6 C        2.925    -0.059    29.478     8.904
    38   6 C        2.910     0.067    26.506     8.442
    39   7 N        2.803    -0.044    22.095     6.981
    40   6 C        3.073     0.047    26.879     8.501
    41   6 C        2.910    -0.052    29.285     8.874
    42   6 C        2.924    -0.034    28.855     8.809
    43   6 C        2.920    -0.042    29.041     8.837
    44   6 C        2.912    -0.034    28.855     8.808
    45   6 C        3.067    -0.018    28.384     8.736
    46   6 C        3.066    -0.018    28.381     8.736
    47   6 C        2.912    -0.034    28.852     8.808
    48   6 C        2.920    -0.042    29.047     8.838
    49   6 C        2.924    -0.035    28.867     8.811
    50   6 C        2.910    -0.052    29.297     8.875
    51   6 C        3.074     0.046    26.883     8.501
    52   6 C        2.927    -0.054    29.346     8.884
    53   6 C        3.342     0.072    23.925     7.729
    54   7 N        1.853    -0.278    28.063     7.851
    55  16 S        2.660     0.350   127.607    19.013
    56   7 N        1.853    -0.278    28.062     7.851
    57   6 C        3.342     0.072    23.925     7.729
    58   6 C        2.928    -0.050    29.246     8.869
    59   6 C        2.910     0.068    26.484     8.439
    60   7 N        2.802    -0.044    22.084     6.980
    61   6 C        3.070     0.046    26.888     8.502
    62   6 C        2.910    -0.052    29.293     8.875
    63   6 C        2.923    -0.035    28.866     8.811
    64   6 C        2.920    -0.042    29.045     8.838
    65   6 C        2.912    -0.035    28.859     8.809
    66   6 C        3.067    -0.018    28.380     8.735
    67   6 C        3.066    -0.018    28.386     8.736
    68   6 C        2.912    -0.035    28.869     8.811
    69   6 C        2.919    -0.042    29.047     8.838
    70   6 C        2.924    -0.035    28.870     8.811
    71   6 C        2.909    -0.053    29.323     8.879
    72   6 C        3.071     0.047    26.884     8.502
    73   6 C        2.925    -0.059    29.478     8.904
    74   1 H        0.926     0.029     2.599     2.521
    75   1 H        0.926     0.031     2.572     2.508
    76   1 H        0.926     0.030     2.590     2.517
    77   1 H        0.926     0.032     2.562     2.503
    78   1 H        0.926     0.031     2.566     2.505
    79   1 H        0.926     0.029     2.601     2.522
    80   1 H        0.926     0.031     2.569     2.506
    81   1 H        0.926     0.029     2.596     2.519
    82   1 H        0.926     0.051     2.311     2.377
    83   1 H        0.926     0.053     2.277     2.360
    84   1 H        0.926     0.053     2.277     2.360
    85   1 H        0.926     0.058     2.227     2.334
    86   1 H        0.926     0.040     2.447     2.446
    87   1 H        0.926     0.032     2.564     2.504
    88   1 H        0.926     0.029     2.597     2.520
    89   1 H        0.926     0.031     2.570     2.507
    90   1 H        0.926     0.032     2.562     2.503
    91   1 H        0.926     0.029     2.603     2.523
    92   1 H        0.926     0.031     2.578     2.511
    93   1 H        0.926     0.030     2.593     2.518
    94   1 H        0.926     0.054     2.275     2.359
    95   1 H        0.926     0.030     2.590     2.517
    96   1 H        0.926     0.031     2.572     2.508
    97   1 H        0.926     0.029     2.599     2.521
    98   1 H        0.926     0.032     2.562     2.503
    99   1 H        0.926     0.031     2.566     2.505
   100   1 H        0.926     0.029     2.601     2.522
   101   1 H        0.926     0.031     2.569     2.506
   102   1 H        0.926     0.029     2.596     2.519
   103   1 H        0.926     0.051     2.311     2.377
   104   1 H        0.926     0.058     2.228     2.334
   105   1 H        0.926     0.030     2.593     2.518
   106   1 H        0.926     0.031     2.579     2.511
   107   1 H        0.926     0.029     2.603     2.523
   108   1 H        0.926     0.032     2.562     2.503
   109   1 H        0.926     0.031     2.570     2.507
   110   1 H        0.926     0.029     2.597     2.520
   111   1 H        0.926     0.032     2.564     2.504
   112   1 H        0.926     0.040     2.447     2.446
   113   1 H        0.926     0.054     2.275     2.359

molecular dipole:
                 x           y           z       tot (Debye)
 q only:       -0.001      -0.021      -0.003
   full:       -0.002      -0.287      -0.002       0.729

 projected vibrational frequencies (cm⁻¹)
eigval :       -0.00    -0.00     0.00     0.00     0.00     0.00
eigval :        5.28     8.72    13.43    18.49    18.88    21.10
eigval :       23.33    24.58    25.37    26.66    27.65    31.25
eigval :       52.86    64.75    69.25    70.48    86.34    89.07
eigval :       89.85    99.23   107.28   107.98   109.44   133.82
eigval :      139.84   141.64   142.74   143.10   148.32   149.32
eigval :      156.19   174.00   191.54   196.11   210.42   225.17
eigval :      232.47   236.12   243.93   245.61   253.10   254.20
eigval :      270.93   270.98   273.41   274.23   290.50   291.53
eigval :      300.68   311.47   337.17   338.62   347.86   361.46
eigval :      377.44   392.09   394.88   395.22   396.63   396.90
eigval :      422.47   422.95   423.44   423.71   435.09   436.08
eigval :      436.92   437.43   437.65   449.69   456.30   497.92
eigval :      507.57   511.40   511.49   517.63   517.85   519.97
eigval :      519.99   530.24   533.70   537.35   540.43   540.87
eigval :      541.18   541.32   542.23   546.11   546.29   581.57
eigval :      584.39   587.81   587.84   594.79   596.70   619.02
eigval :      620.43   623.34   632.06   636.64   638.49   638.71
eigval :      651.33   656.58   670.64   671.50   673.79   673.90
eigval :      677.01   678.81   679.79   708.15   708.23   708.85
eigval :      709.27   736.67   749.19   749.39   751.49   754.27
eigval :      765.18   768.09   768.21   769.15   770.23   770.30
eigval :      772.94   779.71   779.74   780.75   783.60   788.34
eigval :      829.32   835.99   845.70   867.07   867.51   867.69
eigval :      868.49   869.70   872.81   874.03   878.30   879.63
eigval :      886.93   888.05   890.03   894.87   895.27   896.77
eigval :      896.81   898.66   898.83   899.96   902.09   903.16
eigval :      903.94   904.53   906.95   908.31   908.66   910.38
eigval :      911.82   916.20   919.82   921.44   922.99   923.58
eigval :      924.11   926.02   926.22   928.16   992.68   994.50
eigval :     1008.06  1010.00  1010.93  1010.96  1025.66  1032.44
eigval :     1033.47  1056.18  1068.48  1068.65  1070.99  1071.14
eigval :     1072.01  1072.09  1075.16  1075.22  1121.23  1121.56
eigval :     1123.92  1124.80  1137.43  1144.31  1150.23  1150.46
eigval :     1152.43  1152.66  1165.29  1165.38  1175.23  1176.90
eigval :     1179.49  1179.92  1180.44  1180.87  1181.46  1181.79
eigval :     1185.61  1197.42  1225.56  1231.15  1231.84  1234.06
eigval :     1234.28  1235.05  1235.24  1238.22  1239.16  1239.67
eigval :     1259.45  1270.06  1291.39  1295.53  1295.98  1298.47
eigval :     1299.86  1300.88  1301.32  1301.60  1303.91  1306.72
eigval :     1319.83  1321.68  1330.63  1331.53  1335.88  1355.29
eigval :     1355.33  1355.78  1355.83  1359.17  1359.46  1360.70
eigval :     1360.77  1375.35  1390.93  1391.77  1415.27  1416.98
eigval :     1424.47  1425.01  1426.50  1426.54  1430.78  1433.53
eigval :     1449.22  1453.23  1456.84  1459.30  1474.12  1474.27
eigval :     1475.33  1476.01  1486.15  1486.16  1486.41  1486.43
eigval :     1499.44  1532.12  1559.03  1563.50  1566.55  1569.00
eigval :     1571.03  1573.26  1573.51  1575.51  1575.70  1586.88
eigval :     1586.90  1587.56  1587.64  1596.87  1596.91  1597.47
eigval :     1597.51  1611.91  1611.93  1612.60  1612.68  3071.58
eigval :     3071.59  3071.94  3072.03  3072.25  3072.45  3072.47
eigval :     3072.65  3077.34  3077.36  3077.82  3078.01  3078.09
eigval :     3078.13  3078.95  3079.03  3084.86  3084.90  3085.56
eigval :     3085.64  3085.71  3085.76  3088.10  3088.67  3088.70
eigval :     3091.39  3091.41  3093.06  3093.31  3093.81  3093.87
eigval :     3098.30  3099.85  3099.90  3102.34  3102.97  3107.07
eigval :     3107.10  3126.47  3126.61

   temp. (K)  partition function   enthalpy   heat capacity  entropy
                                   cal/mol     cal/K/mol   cal/K/mol   J/K/mol
 298.15  VIB  0.494E+27            33073.277    209.568    205.421
         ROT  0.176E+09              888.752      2.981     40.716
         INT  0.872E+35            33962.030    212.549    246.137
         TR   0.283E+29             1481.254      4.968     46.405
         TOT                       35443.2838   217.5171   292.5420  1223.9958

       T/K    H(0)-H(T)+PV         H(T)/Eh          T*S/Eh         G(T)/Eh
   ------------------------------------------------------------------------
    298.15    0.564825E-01    0.907277E+00    0.138996E+00    0.768281E+00
   ------------------------------------------------------------------------

         :::::::::::::::::::::::::::::::::::::::::::::::::::::
         ::                  THERMODYNAMIC                  ::
         :::::::::::::::::::::::::::::::::::::::::::::::::::::
         :: total free energy        -181.992809300967 Eh   ::
         ::.................................................::
         :: total energy             -182.761090561367 Eh   ::
         :: zero point energy           0.850794944068 Eh   ::
         :: G(RRHO) w/o ZPVE           -0.082513683668 Eh   ::
         :: G(RRHO) contrib.            0.768281260400 Eh   ::
         :::::::::::::::::::::::::::::::::::::::::::::::::::::

           -------------------------------------------------
          | TOTAL ENERGY             -182.761090561367 Eh   |
          | TOTAL ENTHALPY           -181.853813149375 Eh   |
          | TOTAL FREE ENERGY        -181.992809300967 Eh   |
          | GRADIENT NORM               0.000026345037 Eh/α |
          | HOMO-LUMO GAP               1.314533340183 eV   |
           -------------------------------------------------

 * finished run on 2025/08/24 at 04:33:21.596
