   * xtb version 6.7.1 (edcfbbe) compiled by 'albert@albert-system' on 2024-07-22

   ID    Z sym.   atoms
    1    6 C      1-12, 14-23, 25-38, 40-53, 57-59, 61-73
    2    7 N      13, 24, 39, 54, 56, 60
    3   16 S      55
    4    1 H      74-113

          program call               : xtb data2507/toluene/BCPBT/BCPBT_toluene_T1_crest.xyz --gfn 2 --uhf 2 --gbsa toluene --ohess vtight --parallel 40 --molden --ceasefiles --namespace data2507/toluene/BCPBT/BCPBT_toluene_T1_finalOpt
      * Solvation model:               GBSA
        Solvent                        toluene
        Solvent mass                       9.2140E+01 g/mol
          :  Hamiltonian                  GFN2-xTB          :
 * total energy  :  -182.6966372 Eh     change       -0.9403379E-08 Eh
 * total energy  :  -182.6967393 Eh     change       -0.1020601E-03 Eh
 * total energy  :  -182.6967973 Eh     change       -0.5797113E-04 Eh
 * total energy  :  -182.6968157 Eh     change       -0.1844320E-04 Eh
 * total energy  :  -182.6968337 Eh     change       -0.1794731E-04 Eh
 * total energy  :  -182.6968491 Eh     change       -0.1545639E-04 Eh
 * total energy  :  -182.6968630 Eh     change       -0.1386671E-04 Eh
 * total energy  :  -182.6968767 Eh     change       -0.1371134E-04 Eh
 * total energy  :  -182.6968914 Eh     change       -0.1469493E-04 Eh
 * total energy  :  -182.6969074 Eh     change       -0.1602981E-04 Eh
 * total energy  :  -182.6970078 Eh     change       -0.2054400E-06 Eh
 * total energy  :  -182.6970080 Eh     change       -0.2552040E-06 Eh
 * total energy  :  -182.6970082 Eh     change       -0.2135392E-06 Eh
 * total energy  :  -182.6970084 Eh     change       -0.2005013E-06 Eh
 * total energy  :  -182.6970086 Eh     change       -0.2170162E-06 Eh
 * total energy  :  -182.6970089 Eh     change       -0.2318498E-06 Eh
 * total energy  :  -182.6970091 Eh     change       -0.2472190E-06 Eh
 * total energy  :  -182.6970094 Eh     change       -0.2613085E-06 Eh
 * total energy  :  -182.6970094 Eh     change       -0.3483365E-08 Eh
   *** GEOMETRY OPTIMIZATION CONVERGED AFTER 44 ITERATIONS ***

 final structure:
================
113
 xtb: 6.7.1 (edcfbbe)
C           -8.69505909973404       -2.73533023523336       -3.82079123240658
C           -8.23866296034435       -1.44606076896650       -3.55565958101801
C           -7.23644639285784       -1.21063259742274       -2.63298274973151
C           -6.70135988331922       -2.30397913873966       -1.96504924111563
C           -7.14241078255201       -3.61883757340656       -2.24507222671453
C           -8.14909145876872       -3.83009792411212       -3.17686193887544
C           -6.35427770579823       -4.49742556804014       -1.42325489717112
C           -6.33216428943818       -5.87335580479261       -1.24190252612950
C           -5.43896043166087       -6.40699645007444       -0.33161794026791
C           -4.58688802815226       -5.58551812364184        0.40336189680541
C           -4.59080519188515       -4.21280223152625        0.24008756800447
C           -5.46910514232120       -3.67318116024282       -0.68992831210870
N           -5.69221086688964       -2.35236245483748       -1.02440181011436
C           -4.99966349701990       -1.25123803997602       -0.49815615717705
C           -3.61430293214295       -1.24492975624791       -0.50197616206177
C           -2.89746583464235       -0.15786351043984        0.02236402542514
C           -1.45475676076771       -0.13238487614412        0.00299774185293
C           -0.68787626234250       -1.32536375113247       -0.02647188750458
C            0.67841095917400       -1.33062869817669       -0.02962061291977
C            1.45465022384392       -0.14348209817607       -0.04740514139778
C            2.89722350938943       -0.17981664618310       -0.05366334703016
C            3.64136517987156        0.88943125592843       -0.57374456940227
C            5.02583391943640        0.88131794371124       -0.54009171064440
N            5.74205547345744        1.97666609309856       -1.04055453042207
C            5.49114350072935        3.30293372412244       -0.74234592631164
C            4.53263400413758        3.85626716654662        0.09661820377421
C            4.51985152973159        5.23138775431744        0.24000234447626
C            5.43962933152304        6.04155609831278       -0.42179450534172
C            6.40830266231586        5.49416459986719       -1.24335775139366
C            6.43988525651468        4.11649801231830       -1.40504998834549
C            7.29181174919244        3.22816103246247       -2.15018675696216
C            8.37138058601266        3.42934492030135       -2.99789882651754
C            8.96345295183217        2.32812141643035       -3.58947180771374
C            8.47965534405785        1.04310638787207       -3.35623536832618
C            7.40507239362705        0.81818414696442       -2.51561404528826
C            6.82403980608663        1.91708584237483       -1.89608495704766
C            5.71248690772883       -0.20993764801991       -0.00821321648026
C            4.98509779176423       -1.28916720698043        0.48976102019894
N            5.66296133349057       -2.39707286529390        1.02109988162042
C            6.65274636394372       -2.35971200168135        1.98254138338518
C            7.18090659338986       -1.27299217881127        2.66659538003472
C            8.16098096242411       -1.51951746655904        3.60994175953008
C            8.60244979139069       -2.81311885148212        3.87923973772800
C            8.06340182951036       -3.90120938354668        3.21837672102897
C            7.07898453570021       -3.67878346324832        2.26565376323278
C            6.30211398159092       -4.54832119471423        1.42373084687919
C            6.27402375338706       -5.92329323783432        1.23611063200839
C            5.39510007740161       -6.44680733903646        0.30626903225344
C            4.56323873476644       -5.61634532191171       -0.44164967441708
C            4.57355243800966       -4.24436227088753       -0.27256159182854
C            5.43742664823083       -3.71482366261443        0.67655615530127
C            3.59992441982728       -1.27470723582381        0.47344568499822
C            0.72705244323778        1.07069657187425       -0.04573595193841
N            1.24095873167260        2.29787530020006       -0.05044780911537
S            0.01343515135587        3.39262996070626       -0.01434884603547
N           -1.22220609674629        2.30707269046689        0.01676973730426
C           -0.71766008338198        1.07606526949791        0.00557541728775
C           -3.62768674626227        0.91348167194839        0.55757867151780
C           -5.01246044789948        0.91371843397152        0.54382845136815
N           -5.71444396522384        2.01081443989493        1.06054664725925
C           -6.77991536194196        1.95410636899113        1.93669557897130
C           -7.35781407328677        0.85575887233545        2.56009968632896
C           -8.41356732681143        1.08376760844386        3.42343447706633
C           -8.88188419787885        2.37108402766214        3.67486756508083
C           -8.29294221733665        3.47140406500538        3.07853223936539
C           -7.23213792682832        3.26717496099998        2.20816202867387
C           -6.38814031603099        4.15357478231598        1.45180296249750
C           -6.34885942648016        5.53193197325804        1.29773034540648
C           -5.39222200038370        6.07675213121127        0.46050186505785
C           -4.49198331411979        5.26357558865125       -0.22414269877835
C           -4.51278016409749        3.88776749125922       -0.08867978664831
C           -5.45900197875740        3.33685650709257        0.76567122392872
C           -5.71329327043674       -0.17075048140032        0.01686044339548
H           -9.48097703226703       -2.87788602165926       -4.54761029785723
H           -8.67388572991240       -0.61177358508837       -4.08583708826670
H           -6.87589852405836       -0.20979040934549       -2.44987714821808
H           -8.49293362524087       -4.82990749415222       -3.39482079847042
H           -7.00294740925371       -6.51019770244674       -1.79850895734399
H           -5.40424142064847       -7.47540707832674       -0.17792399775661
H           -3.91024993890703       -6.03004040805248        1.11846762298541
H           -3.93966080538643       -3.58177021791695        0.82602010425024
H           -3.09324355057432       -2.06873758393472       -0.96340569907814
H           -1.20629202220472       -2.27163636512195       -0.00981341522068
H            1.18960997638456       -2.28067449736809       -0.05389392543393
H            3.12056847433400        1.72145279346825       -1.01642614787845
H            3.81352361993041        3.24093728850889        0.61402676759712
H            3.77782063916804        5.68508633671379        0.88018314757653
H            5.39525137334378        7.11198467673743       -0.28545644441022
H            7.12750878258471        6.12208829859826       -1.74707893171252
H            8.73567361756458        4.42633942521054       -3.19387325173652
H            9.80589802309199        2.46355592298305       -4.25132555424747
H            8.95013589375059        0.20360016045956       -3.84649427167706
H            7.02456225327597       -0.17990200651959       -2.36116088832936
H            6.79029479634044       -0.21831273124298        0.02363221711283
H            6.83137044780048       -0.26887591097299        2.48008113985233
H            8.59028299842198       -0.69070970249863        4.15335661900818
H            9.37101189881150       -2.96439349458250        4.62266587278801
H            8.39524809076074       -4.90439843227741        3.43938237131691
H            6.92907378002528       -6.56718276165911        1.80326265683566
H            5.35590397708477       -7.51429594173739        0.14739025919526
H            3.89754211431445       -6.05321385924575       -1.17158787105104
H            3.93803781896339       -3.60631185889270       -0.86799264335210
H            3.06749606500981       -2.09803862081764        0.92259755352010
H           -3.09585909902277        1.74024223834670        0.99704404653312
H           -6.98886425081957       -0.14436059002924        2.39136746770350
H           -8.88116125762638        0.24483972444493        3.91742856516612
H           -9.70937558221261        2.50888254157408        4.35482241439945
H           -8.64518169492811        4.46997763734681        3.28803504926128
H           -7.05289396775503        6.16240015096580        1.81938428724308
H           -5.34202109819642        7.14761714376708        0.32975984426962
H           -3.75909136310578        5.71545485089509       -0.87604403189849
H           -3.80907308757054        3.26980510390346       -0.62388716303789
H           -6.79147423877956       -0.17308552909348        0.00199736322387

          :  Hamiltonian                  GFN2-xTB          :
         :: gradient norm              0.000049387708 Eh/a0 ::
         :: HOMO-LUMO gap              1.206879189253 eV    ::
         :: SCC energy              -186.031718676192 Eh    ::
         :: -> dispersion             -0.171989524888 Eh    ::
         :: -> Gsolv                  -0.076856518914 Eh    ::
         :: repulsion energy           3.334709282164 Eh    ::

    * Orbital Energies and Occupations

         #    Occupation            Energy/Eh            Energy/eV
      -------------------------------------------------------------
         1        2.0000           -0.7276004             -19.7990
       ...           ...                  ...                  ...
       159        2.0000           -0.3931982             -10.6995
       160        2.0000           -0.3921758             -10.6716
       161        2.0000           -0.3877731             -10.5518
       162        2.0000           -0.3850520             -10.4778
       163        2.0000           -0.3850455             -10.4776
       164        2.0000           -0.3840980             -10.4518
       165        2.0000           -0.3840898             -10.4516
       166        1.9951           -0.3717692             -10.1164
       167        1.9746           -0.3701817             -10.0732
       168        1.8300           -0.3682235             -10.0199
       169        1.8291           -0.3682171             -10.0197
       170        1.3712           -0.3662163              -9.9653
       171        1.0000           -0.2986028              -8.1254 (HOMO)
       172                         -0.2542505              -6.9185 (LUMO)
       173                         -0.2522106              -6.8630
       174                         -0.2521463              -6.8613
       175                         -0.2509094              -6.8276
       176                         -0.2493729              -6.7858
       177                         -0.2400562              -6.5323
       178                         -0.2397367              -6.5236
       179                         -0.2390768              -6.5056
       180                         -0.2285701              -6.2197
       181                         -0.2285609              -6.2195
       182                         -0.2276869              -6.1957
       ...                                ...                  ...
       337                          0.7391362              20.1129
      -------------------------------------------------------------
                  HL-Gap            0.0443523 Eh            1.2069 eV

     #   Z          covCN         q      C6AA      α(0)
     1   6 C        2.920    -0.038    28.952     8.824
     2   6 C        2.923    -0.033    28.815     8.803
     3   6 C        2.909    -0.048    29.195     8.860
     4   6 C        3.073     0.047    26.863     8.498
     5   6 C        3.067    -0.015    28.323     8.727
     6   6 C        2.912    -0.032    28.799     8.800
     7   6 C        3.066    -0.015    28.324     8.727
     8   6 C        2.912    -0.032    28.802     8.800
     9   6 C        2.920    -0.039    28.962     8.825
    10   6 C        2.923    -0.033    28.825     8.805
    11   6 C        2.909    -0.048    29.200     8.861
    12   6 C        3.074     0.047    26.865     8.498
    13   7 N        2.803    -0.034    21.906     6.951
    14   6 C        2.908     0.064    26.564     8.451
    15   6 C        2.926    -0.054    29.346     8.884
    16   6 C        2.970     0.018    27.600     8.617
    17   6 C        2.966    -0.025    28.629     8.777
    18   6 C        2.915    -0.050    29.235     8.866
    19   6 C        2.915    -0.050    29.236     8.866
    20   6 C        2.966    -0.025    28.629     8.777
    21   6 C        2.970     0.018    27.600     8.617
    22   6 C        2.927    -0.051    29.277     8.873
    23   6 C        2.908     0.065    26.546     8.448
    24   7 N        2.803    -0.030    21.815     6.937
    25   6 C        3.071     0.048    26.841     8.495
    26   6 C        2.909    -0.045    29.117     8.848
    27   6 C        2.923    -0.031    28.776     8.797
    28   6 C        2.920    -0.037    28.915     8.818
    29   6 C        2.912    -0.032    28.798     8.800
    30   6 C        3.066    -0.015    28.310     8.725
    31   6 C        3.065    -0.014    28.292     8.722
    32   6 C        2.912    -0.031    28.783     8.797
    33   6 C        2.920    -0.037    28.925     8.820
    34   6 C        2.923    -0.033    28.818     8.803
    35   6 C        2.909    -0.047    29.175     8.857
    36   6 C        3.071     0.047    26.867     8.499
    37   6 C        2.923    -0.060    29.502     8.907
    38   6 C        2.908     0.064    26.564     8.451
    39   7 N        2.803    -0.034    21.907     6.952
    40   6 C        3.073     0.047    26.863     8.498
    41   6 C        2.909    -0.048    29.195     8.860
    42   6 C        2.923    -0.033    28.815     8.803
    43   6 C        2.920    -0.038    28.952     8.824
    44   6 C        2.912    -0.032    28.799     8.800
    45   6 C        3.067    -0.015    28.323     8.727
    46   6 C        3.066    -0.015    28.325     8.727
    47   6 C        2.912    -0.032    28.802     8.800
    48   6 C        2.920    -0.039    28.962     8.825
    49   6 C        2.923    -0.033    28.825     8.805
    50   6 C        2.909    -0.048    29.199     8.861
    51   6 C        3.074     0.047    26.865     8.498
    52   6 C        2.926    -0.054    29.344     8.884
    53   6 C        3.284     0.083    24.730     7.994
    54   7 N        1.849    -0.310    28.887     7.966
    55  16 S        2.565     0.143   135.352    19.581
    56   7 N        1.849    -0.310    28.886     7.966
    57   6 C        3.285     0.083    24.728     7.993
    58   6 C        2.927    -0.051    29.276     8.873
    59   6 C        2.908     0.065    26.547     8.448
    60   7 N        2.803    -0.030    21.817     6.937
    61   6 C        3.071     0.047    26.867     8.499
    62   6 C        2.909    -0.047    29.176     8.857
    63   6 C        2.923    -0.033    28.818     8.803
    64   6 C        2.920    -0.037    28.926     8.820
    65   6 C        2.912    -0.031    28.784     8.797
    66   6 C        3.065    -0.014    28.292     8.722
    67   6 C        3.066    -0.015    28.310     8.725
    68   6 C        2.912    -0.032    28.798     8.800
    69   6 C        2.920    -0.037    28.915     8.818
    70   6 C        2.923    -0.031    28.776     8.797
    71   6 C        2.909    -0.045    29.115     8.848
    72   6 C        3.071     0.048    26.841     8.495
    73   6 C        2.923    -0.060    29.503     8.907
    74   1 H        0.926     0.034     2.524     2.484
    75   1 H        0.926     0.035     2.510     2.478
    76   1 H        0.926     0.033     2.539     2.492
    77   1 H        0.926     0.037     2.490     2.467
    78   1 H        0.926     0.037     2.491     2.468
    79   1 H        0.926     0.034     2.529     2.487
    80   1 H        0.926     0.035     2.522     2.483
    81   1 H        0.926     0.032     2.557     2.501
    82   1 H        0.926     0.048     2.350     2.397
    83   1 H        0.926     0.033     2.547     2.496
    84   1 H        0.926     0.033     2.547     2.496
    85   1 H        0.926     0.066     2.130     2.282
    86   1 H        0.926     0.044     2.402     2.423
    87   1 H        0.926     0.036     2.506     2.475
    88   1 H        0.926     0.036     2.501     2.473
    89   1 H        0.926     0.039     2.463     2.454
    90   1 H        0.926     0.039     2.466     2.456
    91   1 H        0.926     0.036     2.500     2.473
    92   1 H        0.926     0.037     2.490     2.468
    93   1 H        0.926     0.035     2.513     2.479
    94   1 H        0.926     0.054     2.270     2.356
    95   1 H        0.926     0.033     2.540     2.492
    96   1 H        0.926     0.035     2.510     2.478
    97   1 H        0.926     0.034     2.524     2.484
    98   1 H        0.926     0.037     2.489     2.467
    99   1 H        0.926     0.037     2.491     2.468
   100   1 H        0.926     0.034     2.529     2.487
   101   1 H        0.926     0.035     2.522     2.483
   102   1 H        0.926     0.032     2.558     2.501
   103   1 H        0.926     0.048     2.350     2.397
   104   1 H        0.926     0.066     2.131     2.283
   105   1 H        0.926     0.035     2.513     2.479
   106   1 H        0.926     0.037     2.490     2.468
   107   1 H        0.926     0.036     2.500     2.473
   108   1 H        0.926     0.039     2.466     2.456
   109   1 H        0.926     0.039     2.464     2.454
   110   1 H        0.926     0.036     2.501     2.473
   111   1 H        0.926     0.036     2.506     2.475
   112   1 H        0.926     0.043     2.405     2.425
   113   1 H        0.926     0.054     2.270     2.356

molecular dipole:
                 x           y           z       tot (Debye)
 q only:       -0.000      -0.879       0.015
   full:       -0.002      -1.260       0.013       3.203

 projected vibrational frequencies (cm⁻¹)
eigval :       -0.00    -0.00    -0.00     0.00     0.00     0.00
eigval :        3.45     7.99    13.03    17.93    18.06    19.77
eigval :       20.01    21.55    22.07    25.05    26.14    30.68
eigval :       50.45    65.08    67.01    69.14    87.69    88.12
eigval :       88.91    98.09   105.92   108.38   109.98   132.70
eigval :      136.54   137.39   139.39   141.50   145.57   147.31
eigval :      149.10   172.19   173.10   194.58   208.70   224.65
eigval :      230.71   234.21   238.85   239.46   251.39   252.08
eigval :      269.80   270.12   270.33   270.99   284.85   290.24
eigval :      302.67   313.69   321.89   340.85   348.82   361.29
eigval :      368.07   391.88   392.44   392.62   393.93   395.41
eigval :      401.78   420.52   421.14   421.70   421.98   434.66
eigval :      434.80   435.31   435.68   439.95   453.59   484.03
eigval :      496.90   504.42   504.64   515.03   515.43   516.93
eigval :      517.05   518.76   525.00   534.57   535.59   536.84
eigval :      537.45   538.57   538.97   543.25   543.64   575.60
eigval :      581.55   585.82   585.94   589.27   589.86   602.85
eigval :      615.22   619.49   620.04   629.27   629.47   630.11
eigval :      635.62   650.61   661.08   661.27   672.56   673.41
eigval :      673.67   674.35   674.37   708.34   708.71   708.80
eigval :      709.10   714.00   744.95   747.59   748.02   752.78
eigval :      757.11   766.46   767.26   767.43   768.23   768.44
eigval :      769.65   772.95   777.16   777.87   778.68   779.46
eigval :      786.74   790.14   818.61   822.58   831.51   859.23
eigval :      859.82   861.88   862.59   868.88   870.24   873.19
eigval :      873.96   879.40   879.93   882.49   882.70   884.41
eigval :      894.07   895.52   895.67   897.62   898.02   899.88
eigval :      900.76   901.67   902.12   903.28   904.67   906.11
eigval :      906.34   906.43   919.33   920.49   920.62   921.83
eigval :      922.82   923.70   924.03   924.55   982.98   987.96
eigval :     1006.85  1009.06  1010.29  1010.36  1022.10  1030.99
eigval :     1033.84  1052.77  1067.38  1067.59  1068.95  1069.46
eigval :     1070.37  1070.65  1072.54  1073.14  1113.71  1119.22
eigval :     1121.47  1122.71  1124.74  1145.69  1145.92  1146.02
eigval :     1146.26  1154.33  1162.37  1163.35  1174.26  1175.27
eigval :     1177.08  1177.29  1177.91  1178.14  1179.06  1179.47
eigval :     1185.48  1194.05  1223.03  1227.97  1229.04  1230.01
eigval :     1231.33  1231.94  1232.10  1234.27  1237.94  1239.86
eigval :     1251.26  1264.14  1274.02  1288.14  1288.67  1290.41
eigval :     1291.04  1293.32  1293.56  1294.69  1296.38  1315.85
eigval :     1320.01  1326.66  1331.71  1332.90  1336.43  1345.11
eigval :     1345.18  1350.77  1351.03  1353.70  1354.53  1355.27
eigval :     1356.28  1383.29  1384.59  1397.99  1404.60  1405.80
eigval :     1413.71  1414.99  1417.53  1418.16  1419.30  1424.02
eigval :     1430.28  1432.25  1440.95  1442.90  1442.95  1446.28
eigval :     1464.09  1464.12  1466.99  1467.21  1481.48  1481.51
eigval :     1482.95  1483.07  1513.12  1521.21  1522.97  1530.70
eigval :     1547.62  1565.62  1565.68  1567.93  1568.03  1579.80
eigval :     1580.49  1582.87  1582.90  1583.49  1583.77  1587.12
eigval :     1587.15  1599.06  1600.93  1604.78  1605.11  3075.42
eigval :     3075.54  3075.92  3076.16  3077.37  3077.38  3077.66
eigval :     3077.75  3080.72  3080.73  3081.73  3081.82  3081.97
eigval :     3083.29  3083.43  3084.62  3084.88  3087.68  3087.74
eigval :     3089.09  3089.20  3090.53  3090.89  3092.79  3093.06
eigval :     3094.03  3094.10  3094.27  3094.94  3095.23  3096.00
eigval :     3097.17  3103.05  3103.77  3104.47  3105.39  3108.31
eigval :     3108.82  3128.17  3128.51

   temp. (K)  partition function   enthalpy   heat capacity  entropy
                                   cal/mol     cal/K/mol   cal/K/mol   J/K/mol
 298.15  VIB  0.287E+28            33425.638    211.234    208.525
         ROT  0.352E+09              888.752      2.981     42.090
         INT  0.101E+37            34314.391    214.215    250.616
         TR   0.283E+29             1481.254      4.968     46.405
         TOT                       35795.6448   219.1829   297.0207  1242.7346

       T/K    H(0)-H(T)+PV         H(T)/Eh          T*S/Eh         G(T)/Eh
   ------------------------------------------------------------------------
    298.15    0.570440E-01    0.903927E+00    0.141124E+00    0.762803E+00
   ------------------------------------------------------------------------

         :::::::::::::::::::::::::::::::::::::::::::::::::::::
         ::                  THERMODYNAMIC                  ::
         :::::::::::::::::::::::::::::::::::::::::::::::::::::
         :: total free energy        -181.934206299655 Eh   ::
         ::.................................................::
         :: total energy             -182.697009398096 Eh   ::
         :: zero point energy           0.846883228951 Eh   ::
         :: G(RRHO) w/o ZPVE           -0.084080130510 Eh   ::
         :: G(RRHO) contrib.            0.762803098442 Eh   ::
         :::::::::::::::::::::::::::::::::::::::::::::::::::::

           -------------------------------------------------
          | TOTAL ENERGY             -182.697009398096 Eh   |
          | TOTAL ENTHALPY           -181.793082178198 Eh   |
          | TOTAL FREE ENERGY        -181.934206299655 Eh   |
          | GRADIENT NORM               0.000047872363 Eh/α |
          | HOMO-LUMO GAP               1.206886252075 eV   |
           -------------------------------------------------

 * finished run on 2025/08/24 at 04:51:23.077
