   * xtb version 6.7.1 (edcfbbe) compiled by 'albert@albert-system' on 2024-07-22

   ID    Z sym.   atoms
    1    6 C      1-12, 14-23, 25-38, 40-53, 57-59, 61-73
    2    7 N      13, 24, 39, 54, 56, 60
    3   16 S      55
    4    1 H      74-113

          program call               : xtb data2507/toluene/BCPBT/BCPBT.xyz --gfn 2 --gbsa toluene --ohess vtight --parallel 40 --molden --ceasefiles --namespace data2507/toluene/BCPBT/BCPBT_toluene_S0_preOpt
      * Solvation model:               GBSA
        Solvent                        toluene
        Solvent mass                       9.2140E+01 g/mol
          :  Hamiltonian                  GFN2-xTB          :
 * total energy  :  -182.7206976 Eh     change       -0.8415981E-08 Eh
 * total energy  :  -182.7470385 Eh     change       -0.2634089E-01 Eh
 * total energy  :  -182.7539936 Eh     change       -0.6955097E-02 Eh
 * total energy  :  -182.7557588 Eh     change       -0.1765231E-02 Eh
 * total energy  :  -182.7572124 Eh     change       -0.1453537E-02 Eh
 * total energy  :  -182.7578594 Eh     change       -0.6470792E-03 Eh
 * total energy  :  -182.7582130 Eh     change       -0.3535902E-03 Eh
 * total energy  :  -182.7583720 Eh     change       -0.1589752E-03 Eh
 * total energy  :  -182.7584452 Eh     change       -0.7324321E-04 Eh
 * total energy  :  -182.7585336 Eh     change       -0.8833288E-04 Eh
 * total energy  :  -182.7607994 Eh     change       -0.7622521E-06 Eh
 * total energy  :  -182.7608001 Eh     change       -0.7650383E-06 Eh
 * total energy  :  -182.7608009 Eh     change       -0.7672994E-06 Eh
 * total energy  :  -182.7608017 Eh     change       -0.7714731E-06 Eh
 * total energy  :  -182.7608024 Eh     change       -0.7748031E-06 Eh
 * total energy  :  -182.7608032 Eh     change       -0.7790086E-06 Eh
 * total energy  :  -182.7608040 Eh     change       -0.7823446E-06 Eh
 * total energy  :  -182.7608048 Eh     change       -0.7856847E-06 Eh
 * total energy  :  -182.7608048 Eh     change       -0.7115801E-08 Eh
   *** GEOMETRY OPTIMIZATION CONVERGED AFTER 260 ITERATIONS ***

 final structure:
================
113
 xtb: 6.7.1 (edcfbbe)
C           -8.67390880446532       -1.23720393860296       -4.47768667053889
C           -8.19144379282926       -0.10434184194331       -3.82533527066697
C           -7.20611931653728       -0.19172509290792       -2.86007301487118
C           -6.71292344143858       -1.45114030691520       -2.54908925902245
C           -7.17921873481743       -2.60365579143910       -3.22288648386973
C           -8.16989523332817       -2.49015976367656       -4.19014075597175
C           -6.43266979658692       -3.71397348565013       -2.69918137381742
C           -6.44905282951146       -5.08045622956152       -2.94858871136887
C           -5.59155836982490       -5.89436244263450       -2.23495596380255
C           -4.73607823888707       -5.36379799893374       -1.27141199740722
C           -4.70247426340248       -4.00805245551273       -1.00520119425782
C           -5.54346169033555       -3.18192014229304       -1.73731285144890
N           -5.72389747991833       -1.81473838042568       -1.65466633350993
C           -5.01211413147093       -0.94584310014924       -0.81613583887016
C           -3.62206160105319       -0.98051135117106       -0.79936169509522
C           -2.91110365198012       -0.10846287024166        0.01899788814406
C           -1.44440334437574       -0.11731400923018        0.01724868498579
C           -0.70508518906625       -1.27866819267839        0.00908831924244
C            0.69821379281464       -1.28235308956082        0.01196518195888
C            1.44375991832062       -0.12518065469317       -0.01257191209038
C            2.91046328874079       -0.12440255116174       -0.01468014847676
C            3.60380947188504        0.75852452625596       -0.83511313540281
C            4.99324630178804        0.79210662594194       -0.81626062763281
N            5.67984473233523        1.69537943005268       -1.63534423321401
C            5.39160464932044        3.04274611735295       -1.76248825314663
C            4.43252233165700        3.80800614468449       -1.11331777097531
C            4.37551977371641        5.15659931194944       -1.41147470618730
C            5.25369588263418        5.74020275249595       -2.32264794183573
C            6.22477642132395        4.98785202499394       -2.95316008631609
C            6.30081147354717        3.62942076161175       -2.67215566398656
C            7.17003519930058        2.57649035018297       -3.11978300196769
C            8.22941904907612        2.53105880532807       -4.01698433219604
C            8.85120040912187        1.31966922303542       -4.24676055159772
C            8.41764132810547        0.16060929904969       -3.60663105904883
C            7.36570075575691        0.18101773938291       -2.71017561714979
C            6.75390971180278        1.40026714064992       -2.45419948882939
C            5.69762367084627       -0.07002285265447        0.01821619724985
C            5.00711640914755       -0.96397359410932        0.82923536992287
N            5.71427657630561       -1.82767204478068        1.67701139320621
C            6.70588365189958       -1.46032058698334        2.56700469388408
C            7.20686831996834       -0.20060298350176        2.86401665673256
C            8.19337760823385       -0.10871323024235        3.82765547534108
C            8.66954684481606       -1.23736239550062        4.49183736105434
C            8.15789040041689       -2.49031240463871        4.21811553345144
C            7.16585886912720       -2.60830238811907        3.25279432541034
C            6.41276773233214       -3.71980891853616        2.74112986010241
C            6.42164694423936       -5.08371387115985        3.00467522900976
C            5.55934177915620       -5.90019302715682        2.29982063538923
C            4.70640899641152       -5.37490145426122        1.33113254771507
C            4.68024174641801       -4.02181160417257        1.05090893734878
C            5.52615677425684       -3.19285137121497        1.77408783483616
C            3.61688774190623       -0.99085418641537        0.81354062824494
C            0.72238779861992        1.09231687229173       -0.02444963586525
N            1.22167409251320        2.33042909103629       -0.03871413605513
S            0.00882943572727        3.38359291350928       -0.02299010390567
N           -1.20949486012655        2.33711509994566        0.00794124417221
C           -0.71661275400016        1.09636272084305        0.01185950289788
C           -3.59965183050896        0.78803792625225        0.82865309100460
C           -4.98886264950662        0.82909372592773        0.80892113855487
N           -5.67067470380662        1.74605586656914        1.61673303897597
C           -6.74631071702380        1.46698893540158        2.43907681938550
C           -7.36448371958566        0.25426536667402        2.71023739464025
C           -8.41663189575188        0.25066469572507        3.60665777758570
C           -8.84410609298074        1.41993586495275        4.23214514868883
C           -8.21610269156013        2.62511721962672        3.98709892536793
C           -7.15643014742628        2.65375260649193        3.08953102113118
C           -6.28188507932791        3.69643430809955        2.62841109707451
C           -6.19905416425491        5.05804863622395        2.89155677231035
C           -5.22422248283909        5.79719757281208        2.25126477940683
C           -4.34900614262623        5.19735680331574        1.34781677524977
C           -4.41277012180808        3.84529395443549        1.06732393522349
C           -5.37569024051397        3.09346719132235        1.72642373885311
C           -5.69780534212151       -0.03875593690158       -0.01568646115553
H           -9.44690125475145       -1.12760595388832       -5.22412969131294
H           -8.59400854089648        0.86478813415261       -4.08182059804069
H           -6.82784599168569        0.69553810067520       -2.37510670755279
H           -8.53269843939193       -3.36600969111801       -4.70704951619374
H           -7.12360333194262       -5.49432430749018       -3.68315921330923
H           -5.58697321260650       -6.95919133104072       -2.41628272834201
H           -4.08850617835159       -6.02763807955463       -0.71718495807452
H           -4.05174463199819       -3.60833087468755       -0.24223377682341
H           -3.09787666427181       -1.65780737099948       -1.45585278309292
H           -1.22036574513349       -2.22726045672614        0.02116042326999
H            1.20838028501334       -2.23377737230128        0.01310419627069
H            3.06209510654651        1.40885695112214       -1.50197631704550
H            3.75264686176317        3.37113939682905       -0.39820914304242
H            3.63424485731240        5.77262125944893       -0.92358123000153
H            5.17518803347575        6.79748508113661       -2.52979478922617
H            6.91474836958787        5.44189736862583       -3.64872306814982
H            8.55332762899200        3.42625462337843       -4.52650363024416
H            9.67820901713147        1.26297312055321       -4.93930072876777
H            8.91151861286096       -0.77662493338450       -3.81858376029306
H            7.02732879225486       -0.72872973047493       -2.23770272506317
H            6.77580723450053       -0.04210612192959        0.04158370866022
H            6.83364208034131        0.68360442746326        2.36964401390616
H            8.60193487507207        0.86070512120097        4.07339506046574
H            9.44367934178527       -1.12436876218221        5.23659199110075
H            8.51590002001478       -3.36270544161352        4.74413752422302
H            7.09416217259825       -5.49369347896289        3.74328558914922
H            5.54893469303102       -6.96304930372836        2.49216975059262
H            4.05491808985605       -6.04082455560411        0.78404847897343
H            4.03149656158158       -3.62632297395018        0.28404150133717
H            3.08924662030045       -1.65748539881293        1.47813004022182
H           -3.05445464915828        1.44334242982268        1.48779127340915
H           -7.03082012283788       -0.66306377479506        2.24919887465884
H           -8.91553135438954       -0.68118181086275        3.83022723725958
H           -9.67141166132166        1.37627788345078        4.92526599593902
H           -8.53551318612183        3.52832265103474        4.48519262748944
H           -6.88673355089012        5.52467364045646        3.58105812253561
H           -5.14038538576857        6.85671310982154        2.44449107162962
H           -3.60469442982348        5.80325738177570        0.85195329966101
H           -3.73522869162794        3.39560454742737        0.35795568080798
H           -6.77580856891215       -0.00499858892010       -0.03974576912608

          :  Hamiltonian                  GFN2-xTB          :
         :: gradient norm              0.000069096338 Eh/a0 ::
         :: HOMO-LUMO gap              1.323995890626 eV    ::
         :: SCC energy              -186.114151904974 Eh    ::
         :: -> dispersion             -0.171552012068 Eh    ::
         :: -> Gsolv                  -0.073940839010 Eh    ::
         :: repulsion energy           3.353347117832 Eh    ::

    * Orbital Energies and Occupations

         #    Occupation            Energy/Eh            Energy/eV
      -------------------------------------------------------------
         1        2.0000           -0.7705784             -20.9685
       ...           ...                  ...                  ...
       158        2.0000           -0.4071265             -11.0785
       159        2.0000           -0.4070949             -11.0776
       160        2.0000           -0.4056663             -11.0387
       161        2.0000           -0.4056164             -11.0374
       162        2.0000           -0.3917679             -10.6605
       163        2.0000           -0.3805519             -10.3553
       164        2.0000           -0.3805493             -10.3553
       165        2.0000           -0.3791433             -10.3170
       166        2.0000           -0.3791430             -10.3170
       167        2.0000           -0.3659101              -9.9569
       168        2.0000           -0.3656690              -9.9504
       169        2.0000           -0.3643434              -9.9143
       170        2.0000           -0.3642956              -9.9130 (HOMO)
       171                         -0.3156397              -8.5890 (LUMO)
       172                         -0.2611327              -7.1058
       173                         -0.2496915              -6.7945
       174                         -0.2496608              -6.7936
       175                         -0.2477027              -6.7403
       176                         -0.2459900              -6.6937
       177                         -0.2413644              -6.5679
       178                         -0.2398312              -6.5261
       179                         -0.2397952              -6.5252
       180                         -0.2282412              -6.2108
       181                         -0.2238941              -6.0925
       ...                                ...                  ...
       337                          0.7437012              20.2371
      -------------------------------------------------------------
                  HL-Gap            0.0486560 Eh            1.3240 eV

     #   Z          covCN         q      C6AA      α(0)
     1   6 C        2.920    -0.042    29.041     8.837
     2   6 C        2.924    -0.034    28.855     8.809
     3   6 C        2.910    -0.052    29.285     8.874
     4   6 C        3.073     0.047    26.879     8.501
     5   6 C        3.067    -0.018    28.384     8.736
     6   6 C        2.912    -0.034    28.856     8.808
     7   6 C        3.066    -0.018    28.381     8.736
     8   6 C        2.912    -0.034    28.852     8.808
     9   6 C        2.920    -0.042    29.048     8.838
    10   6 C        2.924    -0.035    28.866     8.811
    11   6 C        2.910    -0.052    29.295     8.875
    12   6 C        3.074     0.046    26.882     8.501
    13   7 N        2.803    -0.044    22.094     6.981
    14   6 C        2.910     0.067    26.500     8.441
    15   6 C        2.926    -0.054    29.334     8.882
    16   6 C        2.975     0.018    27.609     8.619
    17   6 C        2.967    -0.003    28.096     8.694
    18   6 C        2.923    -0.037    28.910     8.817
    19   6 C        2.923    -0.037    28.910     8.817
    20   6 C        2.967    -0.003    28.096     8.694
    21   6 C        2.975     0.018    27.609     8.619
    22   6 C        2.928    -0.049    29.216     8.864
    23   6 C        2.910     0.068    26.478     8.438
    24   7 N        2.803    -0.044    22.081     6.979
    25   6 C        3.072     0.046    26.885     8.502
    26   6 C        2.909    -0.054    29.333     8.881
    27   6 C        2.924    -0.035    28.871     8.812
    28   6 C        2.919    -0.042    29.047     8.838
    29   6 C        2.912    -0.035    28.869     8.810
    30   6 C        3.066    -0.018    28.386     8.736
    31   6 C        3.067    -0.018    28.379     8.735
    32   6 C        2.912    -0.034    28.858     8.809
    33   6 C        2.920    -0.042    29.045     8.838
    34   6 C        2.924    -0.035    28.865     8.811
    35   6 C        2.910    -0.052    29.293     8.875
    36   6 C        3.070     0.046    26.888     8.502
    37   6 C        2.925    -0.059    29.477     8.904
    38   6 C        2.910     0.067    26.500     8.441
    39   7 N        2.803    -0.044    22.094     6.981
    40   6 C        3.073     0.047    26.879     8.501
    41   6 C        2.910    -0.052    29.285     8.874
    42   6 C        2.924    -0.034    28.855     8.809
    43   6 C        2.920    -0.042    29.041     8.837
    44   6 C        2.912    -0.034    28.856     8.808
    45   6 C        3.067    -0.018    28.384     8.736
    46   6 C        3.066    -0.018    28.381     8.736
    47   6 C        2.912    -0.034    28.852     8.808
    48   6 C        2.920    -0.042    29.048     8.838
    49   6 C        2.924    -0.035    28.866     8.811
    50   6 C        2.910    -0.052    29.295     8.875
    51   6 C        3.074     0.046    26.882     8.501
    52   6 C        2.926    -0.054    29.334     8.882
    53   6 C        3.345     0.072    23.863     7.711
    54   7 N        1.853    -0.278    28.075     7.853
    55  16 S        2.666     0.351   127.557    19.009
    56   7 N        1.853    -0.278    28.075     7.853
    57   6 C        3.345     0.072    23.861     7.710
    58   6 C        2.928    -0.049    29.215     8.864
    59   6 C        2.910     0.068    26.478     8.438
    60   7 N        2.803    -0.044    22.082     6.979
    61   6 C        3.070     0.046    26.888     8.502
    62   6 C        2.910    -0.052    29.293     8.875
    63   6 C        2.924    -0.035    28.865     8.811
    64   6 C        2.920    -0.042    29.045     8.838
    65   6 C        2.912    -0.034    28.858     8.809
    66   6 C        3.067    -0.018    28.379     8.735
    67   6 C        3.066    -0.018    28.386     8.736
    68   6 C        2.912    -0.035    28.868     8.810
    69   6 C        2.919    -0.042    29.047     8.838
    70   6 C        2.924    -0.035    28.871     8.812
    71   6 C        2.909    -0.054    29.333     8.881
    72   6 C        3.072     0.046    26.884     8.502
    73   6 C        2.925    -0.059    29.477     8.904
    74   1 H        0.926     0.029     2.598     2.521
    75   1 H        0.926     0.031     2.571     2.507
    76   1 H        0.926     0.030     2.589     2.516
    77   1 H        0.926     0.032     2.562     2.503
    78   1 H        0.926     0.031     2.566     2.505
    79   1 H        0.926     0.029     2.601     2.522
    80   1 H        0.926     0.031     2.569     2.507
    81   1 H        0.926     0.029     2.596     2.520
    82   1 H        0.926     0.050     2.319     2.381
    83   1 H        0.926     0.053     2.282     2.362
    84   1 H        0.926     0.053     2.282     2.362
    85   1 H        0.926     0.054     2.268     2.355
    86   1 H        0.926     0.041     2.442     2.444
    87   1 H        0.926     0.032     2.564     2.504
    88   1 H        0.926     0.029     2.598     2.520
    89   1 H        0.926     0.031     2.570     2.507
    90   1 H        0.926     0.032     2.562     2.503
    91   1 H        0.926     0.029     2.602     2.523
    92   1 H        0.926     0.031     2.577     2.510
    93   1 H        0.926     0.030     2.591     2.517
    94   1 H        0.926     0.054     2.273     2.358
    95   1 H        0.926     0.030     2.589     2.516
    96   1 H        0.926     0.031     2.571     2.507
    97   1 H        0.926     0.029     2.598     2.521
    98   1 H        0.926     0.032     2.562     2.503
    99   1 H        0.926     0.031     2.566     2.505
   100   1 H        0.926     0.029     2.601     2.522
   101   1 H        0.926     0.031     2.569     2.507
   102   1 H        0.926     0.029     2.596     2.520
   103   1 H        0.926     0.050     2.319     2.381
   104   1 H        0.926     0.054     2.269     2.356
   105   1 H        0.926     0.030     2.592     2.517
   106   1 H        0.926     0.031     2.577     2.510
   107   1 H        0.926     0.029     2.602     2.523
   108   1 H        0.926     0.032     2.562     2.503
   109   1 H        0.926     0.031     2.570     2.507
   110   1 H        0.926     0.029     2.598     2.520
   111   1 H        0.926     0.032     2.565     2.504
   112   1 H        0.926     0.040     2.442     2.444
   113   1 H        0.926     0.054     2.273     2.358

molecular dipole:
                 x           y           z       tot (Debye)
 q only:       -0.000      -0.051       0.000
   full:       -0.001      -0.318       0.002       0.809

 projected vibrational frequencies (cm⁻¹)
eigval :       -0.00    -0.00     0.00     0.00     0.00     0.00
eigval :        5.92     7.37    12.83    17.65    18.77    19.98
eigval :       20.26    22.98    25.01    26.30    26.42    32.00
eigval :       53.82    64.93    69.87    70.52    84.18    84.54
eigval :       90.21    98.28   105.18   107.59   108.89   132.89
eigval :      140.82   141.42   142.28   143.36   148.21   148.62
eigval :      158.94   175.80   193.09   195.13   210.35   225.78
eigval :      233.93   235.97   246.14   246.69   251.84   253.08
eigval :      270.62   271.26   272.53   272.61   289.62   290.56
eigval :      299.93   309.94   334.43   337.65   347.38   361.61
eigval :      380.79   389.17   393.85   394.58   396.38   396.63
eigval :      421.71   422.19   423.22   423.64   433.23   435.84
eigval :      435.94   437.23   437.41   447.26   456.71   495.63
eigval :      506.80   511.44   511.50   517.62   517.84   520.15
eigval :      520.17   530.90   532.92   538.76   540.97   541.28
eigval :      541.40   542.12   542.16   546.68   547.20   581.58
eigval :      584.64   587.62   587.83   594.75   596.98   617.80
eigval :      620.62   622.77   634.12   636.47   639.53   639.79
eigval :      651.09   656.95   670.96   671.70   673.59   673.74
eigval :      677.37   679.63   679.88   708.00   708.04   708.70
eigval :      708.97   736.13   749.19   749.46   751.36   754.20
eigval :      765.02   767.59   767.81   770.32   770.39   771.31
eigval :      772.01   778.99   779.09   782.54   783.02   788.97
eigval :      831.11   837.12   846.11   866.00   866.30   866.95
eigval :      869.05   869.42   871.77   871.79   877.86   879.10
eigval :      886.43   888.98   889.72   894.92   895.30   896.89
eigval :      897.02   898.53   898.59   900.04   902.29   902.41
eigval :      903.66   904.46   906.46   907.66   909.58   910.45
eigval :      911.93   915.13   921.68   921.76   922.53   922.64
eigval :      924.66   925.39   927.45   927.68   992.73   994.29
eigval :     1008.21  1010.08  1010.85  1010.90  1025.81  1032.43
eigval :     1033.32  1056.25  1069.31  1069.56  1071.25  1071.42
eigval :     1072.39  1072.52  1075.23  1075.35  1120.93  1121.25
eigval :     1123.30  1124.24  1136.58  1137.90  1151.05  1151.30
eigval :     1151.96  1152.88  1164.65  1165.57  1175.27  1177.06
eigval :     1179.39  1180.14  1180.46  1180.74  1181.23  1182.45
eigval :     1185.78  1196.96  1226.09  1230.86  1231.50  1234.05
eigval :     1234.32  1235.23  1235.62  1237.29  1238.05  1238.77
eigval :     1259.95  1268.53  1291.77  1295.40  1295.83  1298.61
eigval :     1299.95  1300.84  1301.31  1301.54  1304.70  1306.74
eigval :     1319.04  1320.52  1331.11  1331.91  1335.64  1355.12
eigval :     1355.19  1355.69  1355.75  1359.07  1359.39  1360.74
eigval :     1360.78  1377.00  1392.09  1392.34  1415.65  1417.12
eigval :     1424.54  1425.04  1426.58  1426.60  1431.19  1434.03
eigval :     1450.81  1454.32  1457.09  1459.17  1474.16  1474.30
eigval :     1475.50  1476.13  1486.08  1486.22  1486.40  1486.43
eigval :     1501.00  1536.38  1561.31  1564.63  1567.23  1569.32
eigval :     1572.38  1573.23  1573.85  1575.83  1576.63  1586.84
eigval :     1586.86  1587.58  1587.65  1596.87  1596.91  1597.51
eigval :     1597.55  1611.83  1611.85  1612.62  1612.70  3071.54
eigval :     3071.84  3072.09  3072.38  3072.69  3072.81  3072.97
eigval :     3073.27  3077.56  3077.65  3077.67  3078.05  3078.44
eigval :     3078.55  3078.59  3079.62  3084.99  3085.00  3085.76
eigval :     3085.76  3085.88  3085.95  3086.79  3087.94  3088.72
eigval :     3091.68  3091.73  3093.22  3093.34  3094.16  3094.25
eigval :     3096.96  3097.98  3098.02  3100.25  3100.72  3107.01
eigval :     3107.13  3118.21  3122.31

   temp. (K)  partition function   enthalpy   heat capacity  entropy
                                   cal/mol     cal/K/mol   cal/K/mol   J/K/mol
 298.15  VIB  0.818E+27            33101.875    209.541    205.972
         ROT  0.176E+09              888.752      2.981     40.715
         INT  0.144E+36            33990.628    212.522    246.686
         TR   0.283E+29             1481.254      4.968     46.405
         TOT                       35471.8816   217.4901   293.0911  1226.2930

       T/K    H(0)-H(T)+PV         H(T)/Eh          T*S/Eh         G(T)/Eh
   ------------------------------------------------------------------------
    298.15    0.565280E-01    0.907245E+00    0.139257E+00    0.767988E+00
   ------------------------------------------------------------------------

         :::::::::::::::::::::::::::::::::::::::::::::::::::::
         ::                  THERMODYNAMIC                  ::
         :::::::::::::::::::::::::::::::::::::::::::::::::::::
         :: total free energy        -181.992817052855 Eh   ::
         ::.................................................::
         :: total energy             -182.760804785626 Eh   ::
         :: zero point energy           0.850716711371 Eh   ::
         :: G(RRHO) w/o ZPVE           -0.082728978601 Eh   ::
         :: G(RRHO) contrib.            0.767987732770 Eh   ::
         :::::::::::::::::::::::::::::::::::::::::::::::::::::

           -------------------------------------------------
          | TOTAL ENERGY             -182.760804785626 Eh   |
          | TOTAL ENTHALPY           -181.853560032722 Eh   |
          | TOTAL FREE ENERGY        -181.992817052855 Eh   |
          | GRADIENT NORM               0.000069096611 Eh/α |
          | HOMO-LUMO GAP               1.323995971063 eV   |
           -------------------------------------------------

 * finished run on 2025/08/24 at 04:23:30.358
