   * xtb version 6.7.1 (edcfbbe) compiled by 'albert@albert-system' on 2024-07-22

   ID    Z sym.   atoms
    1    6 C      1-12, 14-23, 25-38, 40-53, 57-59, 61-73
    2    7 N      13, 24, 39, 54, 56, 60
    3   16 S      55
    4    1 H      74-113

          program call               : xtb data2507/toluene/BCPBT/BCPBT_toluene_S0_finalOpt.xtbopt.xyz --gfn 2 --uhf 2 --gbsa toluene --ohess vtight --parallel 40 --molden --ceasefiles --namespace data2507/toluene/BCPBT/BCPBT_toluene_T1_preOpt
      * Solvation model:               GBSA
        Solvent                        toluene
        Solvent mass                       9.2140E+01 g/mol
          :  Hamiltonian                  GFN2-xTB          :
 * total energy  :  -182.6907595 Eh     change       -0.1815837E-07 Eh
 * total energy  :  -182.6945524 Eh     change       -0.3792942E-02 Eh
 * total energy  :  -182.6960526 Eh     change       -0.1500216E-02 Eh
 * total energy  :  -182.6961674 Eh     change       -0.1147678E-03 Eh
 * total energy  :  -182.6962317 Eh     change       -0.6435217E-04 Eh
 * total energy  :  -182.6962589 Eh     change       -0.2720002E-04 Eh
 * total energy  :  -182.6962820 Eh     change       -0.2307560E-04 Eh
 * total energy  :  -182.6963018 Eh     change       -0.1977155E-04 Eh
 * total energy  :  -182.6963158 Eh     change       -0.1397287E-04 Eh
 * total energy  :  -182.6963236 Eh     change       -0.7791867E-05 Eh
 * total energy  :  -182.6967319 Eh     change       -0.7967347E-06 Eh
 * total energy  :  -182.6967327 Eh     change       -0.8224867E-06 Eh
 * total energy  :  -182.6967335 Eh     change       -0.7679843E-06 Eh
 * total energy  :  -182.6967342 Eh     change       -0.7553964E-06 Eh
 * total energy  :  -182.6967350 Eh     change       -0.7722123E-06 Eh
 * total energy  :  -182.6967358 Eh     change       -0.7797668E-06 Eh
 * total energy  :  -182.6967366 Eh     change       -0.7874743E-06 Eh
 * total energy  :  -182.6967374 Eh     change       -0.8098218E-06 Eh
 * total energy  :  -182.6967374 Eh     change       -0.1425281E-07 Eh
   *** GEOMETRY OPTIMIZATION CONVERGED AFTER 260 ITERATIONS ***

 final structure:
================
113
 xtb: 6.7.1 (edcfbbe)
C           -8.68788401893367       -2.24819781342619       -4.03539435075478
C           -8.22157938051780       -1.00424829921314       -3.61617405322851
C           -7.22550854488405       -0.89010548926298       -2.66424686671076
C           -6.70689231601685       -2.06008146838176       -2.12564289805125
C           -7.15644446520497       -3.32765789461636       -2.56437261994735
C           -8.15687846874420       -3.41688971997028       -3.52217747638643
C           -6.38268622727686       -4.30568508233825       -1.84804215824208
C           -6.37198897228576       -5.69355842644707       -1.83528959558308
C           -5.49114079834678       -6.34114706806346       -0.98915969537795
C           -4.64085513959189       -5.62200324604778       -0.15197211861231
C           -4.63379027328814       -4.23953571902582       -0.14700383051404
C           -5.49802207942267       -3.58369565382987       -1.01329881276441
N           -5.70763533661988       -2.23033094125208       -1.18780869377228
C           -5.00217857597532       -1.20343997960581       -0.54298229518521
C           -3.61625034091142       -1.21457214341742       -0.53904072225110
C           -2.89418218337459       -0.18371923814881        0.07906409476437
C           -1.45038246706440       -0.16353498482590        0.04940559183803
C           -0.68798368320630       -1.35787724159017        0.00904253905767
C            0.67904086984267       -1.36125703603487       -0.00653582098726
C            1.44733537068766       -0.17078825337699       -0.04982441235585
C            2.89102053377895       -0.19814276169290       -0.07905237206753
C            3.61190077632353        0.82200265753488       -0.71387693739461
C            4.99718433708366        0.82537219425616       -0.70838381711328
N            5.69724368763723        1.85894083082343       -1.34369879782934
C            5.43426949725659        3.21008643737072       -1.21281806936580
C            4.48186675657210        3.85734940289687       -0.43610582226308
C            4.45253925342825        5.23935406730748       -0.47382489900656
C            5.34989585411416        5.96692366919156       -1.25207372507358
C            6.31414005804447        5.32815226006524       -2.01036660910078
C            6.36216255294541        3.94170691920173       -1.99065514956706
C            7.21415328393437        2.97459496256903       -2.63001914476545
C            8.27891735587656        3.07825360910431       -3.51326433105268
C            8.87554036006657        1.91730479614987       -3.97088875539060
C            8.40853900650224        0.66729561280427       -3.57224371752061
C            7.34906132113824        0.53961328578579       -2.69285703300529
C            6.76580231225867        1.70184697429583       -2.20471277724381
C            5.70053407206720       -0.19843605843892       -0.07398207927733
C            4.99373219317199       -1.22673072670626        0.54634432877690
N            5.69414549612630       -2.25510762556062        1.19424688026654
C            6.69466412544647       -2.08653322885123        2.13106645096253
C            7.21862634464055       -0.91730496550722        2.66612182374915
C            8.21488798507062       -1.03306305921030        3.61765372028690
C            8.67620126831122       -2.27781857791382        4.03996154441897
C            8.13969427812180       -3.44564315990810        3.53050484281255
C            7.13894249453382       -3.35478475988550        2.57318131625979
C            6.36042271244361       -4.33147305939757        1.86018557131451
C            6.34361606801559       -5.71931109984343        1.85158181522915
C            5.45947493900519       -6.36553715768222        1.00784867337244
C            4.61184734916927       -5.64514350701016        0.16905560476211
C            4.61087066240693       -4.26267771050828        0.15995461672338
C            5.47845794342917       -3.60804291525726        1.02381298119308
C            3.60777157099649       -1.23111175182726        0.54174865008791
C            0.72223294715724        1.04281933623740       -0.04664287911197
N            1.23697427752740        2.26981111397405       -0.07332995905428
S            0.00711877254527        3.36302424731774       -0.00478814707022
N           -1.22807573650129        2.27603555048891        0.06666974650285
C           -0.71933783054636        1.04647496160069        0.04312566289911
C           -3.60981467971785        0.84125176177276        0.71200026139098
C           -4.99508063068510        0.85128213874674        0.70732120409449
N           -5.68949672144480        1.88920861814004        1.34172412086847
C           -6.75674888055857        1.73848823654082        2.20550991534611
C           -7.34546946205579        0.57978616291747        2.69549736486703
C           -8.40184387585325        0.71384214868042        3.57766426230226
C           -8.86056225645342        1.96662750662536        3.97717869750686
C           -8.25850837926457        3.12398235325790        3.51755581312903
C           -7.19670449150943        3.01391738889393        2.63154252014688
C           -6.34079169842382        3.97594723349086        1.98974387474528
C           -6.28457319242323        5.36208273608371        2.00911045424387
C           -5.31849244529591        5.99505076252918        1.24828462521488
C           -4.42741486638042        5.26211545730807        0.46785592419368
C           -4.46494684766259        3.88030464242467        0.43046936729180
C           -5.41910102781436        3.23877568969520        1.20979317944533
C           -5.70373701969591       -0.17034710845163        0.07532201854952
H           -9.46872883861502       -2.29580762594179       -4.77989116650319
H           -8.64357722807236       -0.10835155002211       -4.04733283009637
H           -6.85715106102552        0.07845031386700       -2.36210486353331
H           -8.50708809897863       -4.38045917360633       -3.86012880262273
H           -7.04188826536117       -6.25228217347805       -2.47121458722920
H           -5.46504825305687       -7.42056892223726       -0.96696034393233
H           -3.97474749763970       -6.15582060095288        0.50997483258663
H           -3.98480239408564       -3.68948116076193        0.51758399981259
H           -3.09637796598542       -1.99625879229104       -1.07047481177046
H           -1.21158728914969       -2.30157649187357        0.03241662138748
H            1.19797144744035       -2.30758775712535       -0.02755174563461
H            3.07422607091135        1.60001070302627       -1.22876411394513
H            3.77847767222472        3.30810825996368        0.16990784295690
H            3.71412551937476        5.76389866324184        0.11434741860314
H            5.29188753544560        7.04533446211827       -1.25727071407833
H            7.01678216632913        5.89264047221398       -2.60448537454961
H            8.62815891951707        4.04630402209187       -3.83889449105185
H            9.70712874723373        1.97670638867965       -4.65720846129257
H            8.88004292807370       -0.22284695892156       -3.96186512914355
H            6.98160121833557       -0.43507499663010       -2.41066099731374
H            6.77867977359511       -0.19336929387492       -0.05701076684008
H            6.85417078554723        0.05199637650355        2.36164999661722
H            8.64099093503204       -0.13777976563880        4.04604013675008
H            9.45742051830019       -2.32668646005840        4.78398428285131
H            8.48598201035484       -4.40975615367736        3.87093765884142
H            7.01143039191119       -6.27908400392300        2.48877868159236
H            5.42864664676709       -7.44489682157498        0.98885605042410
H            3.94301772465053       -6.17799439545519       -0.49092529909627
H            3.96388203634104       -3.71181275512427       -0.50590195828439
H            3.08383340015919       -2.00893183992780        1.07484526619967
H           -3.06815720102955        1.61774576234385        1.22499218768049
H           -6.98442667971741       -0.39710078671236        2.41264430730913
H           -8.87744400720913       -0.17345668598612        3.96878697499453
H           -9.68986780738750        2.03103864999918        4.66578810493471
H           -8.60132485846145        4.09412408079236        3.84378168491478
H           -6.98233964375755        5.93080022423693        2.60494219456752
H           -5.25410363437705        7.07309465415818        1.25321857079008
H           -3.68742820274026        5.78223399239337       -0.12226975135481
H           -3.76631215381562        3.32682416518214       -0.17718832829899
H           -6.78185761299119       -0.16009472771442        0.05878769148037

          :  Hamiltonian                  GFN2-xTB          :
         :: gradient norm              0.000079830970 Eh/a0 ::
         :: HOMO-LUMO gap              1.188443760516 eV    ::
         :: SCC energy              -186.031941527614 Eh    ::
         :: -> dispersion             -0.172035259970 Eh    ::
         :: -> Gsolv                  -0.076968554440 Eh    ::
         :: repulsion energy           3.335204141616 Eh    ::

    * Orbital Energies and Occupations

         #    Occupation            Energy/Eh            Energy/eV
      -------------------------------------------------------------
         1        2.0000           -0.7263722             -19.7656
       ...           ...                  ...                  ...
       159        2.0000           -0.3925920             -10.6830
       160        2.0000           -0.3917646             -10.6605
       161        2.0000           -0.3876147             -10.5475
       162        2.0000           -0.3851661             -10.4809
       163        2.0000           -0.3851637             -10.4808
       164        2.0000           -0.3841527             -10.4533
       165        2.0000           -0.3841463             -10.4532
       166        1.9961           -0.3720362             -10.1236
       167        1.9781           -0.3703720             -10.0783
       168        1.8271           -0.3682474             -10.0205
       169        1.8261           -0.3682412             -10.0204
       170        1.3725           -0.3662652              -9.9666
       171        1.0000           -0.2973708              -8.0919 (HOMO)
       172                         -0.2536960              -6.9034 (LUMO)
       173                         -0.2524282              -6.8689
       174                         -0.2523321              -6.8663
       175                         -0.2510353              -6.8310
       176                         -0.2491712              -6.7803
       177                         -0.2402374              -6.5372
       178                         -0.2400475              -6.5320
       179                         -0.2392533              -6.5104
       180                         -0.2286892              -6.2230
       181                         -0.2286856              -6.2229
       182                         -0.2277729              -6.1980
       ...                                ...                  ...
       337                          0.7389702              20.1084
      -------------------------------------------------------------
                  HL-Gap            0.0436748 Eh            1.1885 eV

     #   Z          covCN         q      C6AA      α(0)
     1   6 C        2.920    -0.038    28.949     8.823
     2   6 C        2.923    -0.033    28.814     8.803
     3   6 C        2.909    -0.048    29.195     8.860
     4   6 C        3.073     0.047    26.865     8.498
     5   6 C        3.067    -0.015    28.320     8.726
     6   6 C        2.912    -0.032    28.798     8.800
     7   6 C        3.066    -0.015    28.322     8.727
     8   6 C        2.912    -0.032    28.801     8.800
     9   6 C        2.920    -0.039    28.959     8.825
    10   6 C        2.923    -0.033    28.825     8.804
    11   6 C        2.909    -0.048    29.196     8.860
    12   6 C        3.074     0.047    26.866     8.498
    13   7 N        2.803    -0.034    21.898     6.950
    14   6 C        2.908     0.064    26.558     8.450
    15   6 C        2.926    -0.054    29.336     8.882
    16   6 C        2.972     0.019    27.585     8.615
    17   6 C        2.967    -0.026    28.637     8.778
    18   6 C        2.915    -0.050    29.232     8.866
    19   6 C        2.915    -0.050    29.232     8.866
    20   6 C        2.967    -0.026    28.637     8.778
    21   6 C        2.972     0.019    27.585     8.615
    22   6 C        2.927    -0.049    29.225     8.866
    23   6 C        2.908     0.065    26.541     8.448
    24   7 N        2.803    -0.029    21.812     6.936
    25   6 C        3.070     0.048    26.845     8.496
    26   6 C        2.909    -0.046    29.132     8.850
    27   6 C        2.923    -0.031    28.776     8.797
    28   6 C        2.920    -0.037    28.914     8.818
    29   6 C        2.912    -0.032    28.799     8.800
    30   6 C        3.066    -0.015    28.310     8.725
    31   6 C        3.065    -0.014    28.290     8.722
    32   6 C        2.912    -0.031    28.784     8.797
    33   6 C        2.920    -0.037    28.924     8.819
    34   6 C        2.923    -0.033    28.817     8.803
    35   6 C        2.910    -0.047    29.177     8.857
    36   6 C        3.070     0.047    26.871     8.500
    37   6 C        2.924    -0.061    29.508     8.908
    38   6 C        2.908     0.064    26.558     8.450
    39   7 N        2.803    -0.034    21.897     6.950
    40   6 C        3.073     0.047    26.865     8.498
    41   6 C        2.909    -0.048    29.195     8.860
    42   6 C        2.923    -0.033    28.814     8.803
    43   6 C        2.920    -0.038    28.949     8.823
    44   6 C        2.912    -0.032    28.798     8.800
    45   6 C        3.067    -0.015    28.320     8.726
    46   6 C        3.066    -0.015    28.322     8.727
    47   6 C        2.912    -0.032    28.801     8.800
    48   6 C        2.920    -0.039    28.959     8.825
    49   6 C        2.923    -0.033    28.825     8.804
    50   6 C        2.909    -0.048    29.196     8.860
    51   6 C        3.074     0.047    26.866     8.498
    52   6 C        2.926    -0.054    29.336     8.882
    53   6 C        3.286     0.083    24.698     7.985
    54   7 N        1.849    -0.312    28.941     7.973
    55  16 S        2.568     0.139   135.523    19.593
    56   7 N        1.849    -0.312    28.940     7.973
    57   6 C        3.286     0.083    24.697     7.985
    58   6 C        2.927    -0.049    29.224     8.865
    59   6 C        2.908     0.065    26.541     8.448
    60   7 N        2.803    -0.029    21.812     6.936
    61   6 C        3.070     0.047    26.870     8.500
    62   6 C        2.910    -0.047    29.177     8.857
    63   6 C        2.923    -0.033    28.817     8.803
    64   6 C        2.920    -0.037    28.924     8.819
    65   6 C        2.912    -0.031    28.784     8.797
    66   6 C        3.065    -0.014    28.290     8.722
    67   6 C        3.066    -0.015    28.310     8.725
    68   6 C        2.912    -0.032    28.799     8.800
    69   6 C        2.920    -0.037    28.914     8.818
    70   6 C        2.923    -0.031    28.776     8.797
    71   6 C        2.909    -0.046    29.131     8.850
    72   6 C        3.070     0.048    26.845     8.496
    73   6 C        2.924    -0.061    29.508     8.908
    74   1 H        0.926     0.035     2.521     2.483
    75   1 H        0.926     0.036     2.508     2.477
    76   1 H        0.926     0.034     2.535     2.490
    77   1 H        0.926     0.037     2.487     2.466
    78   1 H        0.926     0.037     2.490     2.467
    79   1 H        0.926     0.034     2.527     2.486
    80   1 H        0.926     0.035     2.519     2.482
    81   1 H        0.926     0.032     2.556     2.500
    82   1 H        0.926     0.047     2.351     2.398
    83   1 H        0.926     0.032     2.556     2.500
    84   1 H        0.926     0.032     2.556     2.500
    85   1 H        0.926     0.062     2.173     2.305
    86   1 H        0.926     0.045     2.377     2.411
    87   1 H        0.926     0.036     2.505     2.475
    88   1 H        0.926     0.036     2.502     2.473
    89   1 H        0.926     0.039     2.464     2.455
    90   1 H        0.926     0.039     2.466     2.455
    91   1 H        0.926     0.036     2.499     2.472
    92   1 H        0.926     0.037     2.488     2.467
    93   1 H        0.926     0.036     2.508     2.477
    94   1 H        0.926     0.055     2.262     2.352
    95   1 H        0.926     0.034     2.535     2.490
    96   1 H        0.926     0.036     2.508     2.477
    97   1 H        0.926     0.035     2.521     2.483
    98   1 H        0.926     0.037     2.487     2.466
    99   1 H        0.926     0.037     2.490     2.467
   100   1 H        0.926     0.034     2.527     2.486
   101   1 H        0.926     0.035     2.519     2.482
   102   1 H        0.926     0.032     2.556     2.500
   103   1 H        0.926     0.047     2.351     2.398
   104   1 H        0.926     0.062     2.174     2.306
   105   1 H        0.926     0.036     2.508     2.477
   106   1 H        0.926     0.037     2.488     2.467
   107   1 H        0.926     0.036     2.499     2.472
   108   1 H        0.926     0.039     2.466     2.455
   109   1 H        0.926     0.039     2.464     2.455
   110   1 H        0.926     0.036     2.502     2.473
   111   1 H        0.926     0.036     2.505     2.475
   112   1 H        0.926     0.045     2.377     2.411
   113   1 H        0.926     0.055     2.262     2.352

molecular dipole:
                 x           y           z       tot (Debye)
 q only:       -0.001      -0.953       0.003
   full:       -0.002      -1.333       0.003       3.387

 projected vibrational frequencies (cm⁻¹)
eigval :       -0.00    -0.00     0.00     0.00     0.00     0.00
eigval :        4.78     5.42    11.61    16.07    17.01    18.62
eigval :       19.70    22.35    25.13    25.17    25.82    32.46
eigval :       51.13    65.59    71.62    72.48    85.90    87.15
eigval :       89.10    98.55   105.89   107.76   108.18   132.50
eigval :      137.03   137.37   139.03   141.91   145.49   147.54
eigval :      148.76   174.59   177.05   194.21   208.11   225.53
eigval :      231.95   235.95   242.25   243.87   253.08   254.92
eigval :      269.38   269.58   270.02   270.96   285.40   290.61
eigval :      302.21   311.98   321.94   339.08   348.00   361.16
eigval :      367.76   390.77   391.48   392.05   393.50   394.51
eigval :      400.33   420.56   420.99   421.07   421.47   434.61
eigval :      434.98   435.90   436.08   437.06   452.49   479.64
eigval :      497.06   505.98   506.11   515.29   515.46   517.21
eigval :      517.31   520.63   526.61   534.08   535.06   536.66
eigval :      536.80   538.53   538.64   544.17   544.25   575.99
eigval :      582.18   585.93   585.96   589.37   590.28   602.59
eigval :      614.22   619.28   620.17   629.37   630.45   631.26
eigval :      637.05   650.48   662.77   663.08   672.33   673.01
eigval :      673.32   674.05   674.15   707.90   708.14   708.71
eigval :      708.81   712.91   743.98   747.67   748.08   752.81
eigval :      756.59   766.96   767.37   767.65   767.74   768.41
eigval :      768.74   773.35   777.22   777.75   778.43   778.82
eigval :      784.76   790.33   820.57   825.55   828.51   860.58
eigval :      860.78   862.72   863.31   871.82   872.44   874.29
eigval :      874.44   879.94   881.42   884.77   885.68   887.62
eigval :      894.17   895.42   895.44   897.63   897.99   900.15
eigval :      902.75   903.26   904.12   904.33   905.09   905.31
eigval :      905.35   906.55   920.37   921.06   922.02   922.62
eigval :      922.68   922.92   923.28   923.44   984.04   988.64
eigval :     1006.91  1009.01  1010.17  1010.29  1022.22  1031.22
eigval :     1033.72  1053.25  1067.96  1068.15  1069.92  1070.05
eigval :     1070.82  1070.91  1072.46  1073.13  1115.04  1120.42
eigval :     1122.18  1122.94  1126.41  1146.29  1146.53  1146.55
eigval :     1147.04  1151.66  1162.94  1163.03  1174.74  1175.39
eigval :     1178.04  1178.09  1178.46  1178.54  1179.79  1179.92
eigval :     1186.01  1193.83  1224.08  1228.58  1229.61  1230.74
eigval :     1231.13  1232.16  1232.36  1234.45  1236.58  1239.77
eigval :     1248.59  1262.34  1273.70  1288.13  1288.82  1290.72
eigval :     1291.22  1293.50  1293.68  1294.85  1296.61  1316.99
eigval :     1320.37  1326.94  1331.00  1332.34  1336.10  1344.88
eigval :     1344.92  1350.82  1351.03  1353.71  1354.42  1354.87
eigval :     1357.03  1383.73  1385.87  1398.91  1404.45  1406.82
eigval :     1413.77  1414.77  1417.71  1418.23  1418.91  1424.49
eigval :     1430.84  1432.69  1441.32  1443.35  1443.89  1446.56
eigval :     1464.28  1464.32  1467.09  1467.21  1481.41  1481.63
eigval :     1483.04  1483.08  1513.80  1523.17  1524.26  1530.41
eigval :     1547.13  1565.85  1565.93  1568.13  1568.20  1579.18
eigval :     1579.62  1582.63  1582.67  1583.31  1583.86  1587.13
eigval :     1587.15  1599.52  1600.76  1603.25  1605.41  3075.61
eigval :     3075.65  3075.92  3075.93  3077.12  3077.18  3077.76
eigval :     3078.14  3078.17  3080.83  3080.89  3081.67  3081.70
eigval :     3083.21  3083.21  3084.11  3084.21  3087.77  3087.86
eigval :     3088.96  3089.00  3090.43  3090.50  3090.60  3092.27
eigval :     3092.47  3094.13  3094.23  3094.51  3095.13  3095.94
eigval :     3097.29  3102.11  3102.80  3102.83  3103.08  3109.09
eigval :     3109.17  3131.93  3131.99

   temp. (K)  partition function   enthalpy   heat capacity  entropy
                                   cal/mol     cal/K/mol   cal/K/mol   J/K/mol
 298.15  VIB  0.312E+28            33404.773    211.284    208.572
         ROT  0.176E+09              888.752      2.981     40.712
         INT  0.549E+36            34293.526    214.265    249.284
         TR   0.283E+29             1481.254      4.968     46.405
         TOT                       35774.7795   219.2333   295.6884  1237.1603

       T/K    H(0)-H(T)+PV         H(T)/Eh          T*S/Eh         G(T)/Eh
   ------------------------------------------------------------------------
    298.15    0.570107E-01    0.904019E+00    0.140491E+00    0.763528E+00
   ------------------------------------------------------------------------

         :::::::::::::::::::::::::::::::::::::::::::::::::::::
         ::                  THERMODYNAMIC                  ::
         :::::::::::::::::::::::::::::::::::::::::::::::::::::
         :: total free energy        -181.933209231006 Eh   ::
         ::.................................................::
         :: total energy             -182.696737387495 Eh   ::
         :: zero point energy           0.847008519677 Eh   ::
         :: G(RRHO) w/o ZPVE           -0.083480363189 Eh   ::
         :: G(RRHO) contrib.            0.763528156489 Eh   ::
         :::::::::::::::::::::::::::::::::::::::::::::::::::::

           -------------------------------------------------
          | TOTAL ENERGY             -182.696737387495 Eh   |
          | TOTAL ENTHALPY           -181.792718127783 Eh   |
          | TOTAL FREE ENERGY        -181.933209231006 Eh   |
          | GRADIENT NORM               0.000079885408 Eh/α |
          | HOMO-LUMO GAP               1.188451138598 eV   |
           -------------------------------------------------

 * finished run on 2025/08/24 at 04:34:00.028
