   * xtb version 6.7.1 (edcfbbe) compiled by 'albert@albert-system' on 2024-07-22

   ID    Z sym.   atoms
    1    6 C      1-37, 39-45, 47-51, 53-55
    2    7 N      38, 46, 52
    3    1 H      56-88

          program call               : xtb data2507/toluene/PhICz-Pyr/PhICz-Pyr.xyz --gfn 2 --gbsa toluene --ohess vtight --parallel 40 --molden --ceasefiles --namespace data2507/toluene/PhICz-Pyr/PhICz-Pyr_toluene_S0_preOpt
      * Solvation model:               GBSA
        Solvent                        toluene
        Solvent mass                       9.2140E+01 g/mol
          :  Hamiltonian                  GFN2-xTB          :
 * total energy  :  -137.0057165 Eh     change       -0.1898542E-08 Eh
 * total energy  :  -137.0285747 Eh     change       -0.2285820E-01 Eh
 * total energy  :  -137.0349382 Eh     change       -0.6363460E-02 Eh
 * total energy  :  -137.0365523 Eh     change       -0.1614107E-02 Eh
 * total energy  :  -137.0373317 Eh     change       -0.7794126E-03 Eh
 * total energy  :  -137.0376337 Eh     change       -0.3019594E-03 Eh
 * total energy  :  -137.0378751 Eh     change       -0.2414498E-03 Eh
 * total energy  :  -137.0380960 Eh     change       -0.2208894E-03 Eh
 * total energy  :  -137.0383340 Eh     change       -0.2380049E-03 Eh
 * total energy  :  -137.0385798 Eh     change       -0.2457578E-03 Eh
 * total energy  :  -137.0393877 Eh     change       -0.4395589E-06 Eh
 * total energy  :  -137.0393882 Eh     change       -0.4474635E-06 Eh
 * total energy  :  -137.0393886 Eh     change       -0.4499901E-06 Eh
 * total energy  :  -137.0393891 Eh     change       -0.4484658E-06 Eh
 * total energy  :  -137.0393895 Eh     change       -0.4237938E-06 Eh
 * total energy  :  -137.0393899 Eh     change       -0.3756275E-06 Eh
 * total energy  :  -137.0393902 Eh     change       -0.3282675E-06 Eh
 * total energy  :  -137.0393905 Eh     change       -0.3048505E-06 Eh
 * total energy  :  -137.0393905 Eh     change       -0.2523336E-08 Eh
   *** GEOMETRY OPTIMIZATION CONVERGED AFTER 94 ITERATIONS ***

 final structure:
================
88
 xtb: 6.7.1 (edcfbbe)
C           12.01788722879242       -3.50275662262064       -0.53862392095470
C           11.57977118700231       -2.36136870762785       -1.18988605203300
C           10.25426608622380       -1.97692854694324       -1.10456018519403
C            9.34151624781040       -2.73077317399150       -0.36929772495243
C            7.93006759687107       -2.32190471141132       -0.28375326347030
C            6.91499002149677       -3.27720688978911       -0.39103457562988
C            5.57574488521528       -2.93473952237953       -0.32986646064223
C            5.24792334284995       -1.60399141720300       -0.14973859027040
C            6.26956345302317       -0.60812332888237       -0.03092244059207
C            7.59922817554689       -0.98067085943583       -0.10230090001564
C            5.61205187914433        0.67886229551897        0.14129509651034
C            5.85184415253816        2.03797524250510        0.30329127948709
C            4.75573153183324        2.91215895831474        0.41750469821953
C            5.03051239894878        4.35298553863818        0.58443240613840
C            5.98684224466192        4.98972076276757       -0.20362591944854
C            6.24176628484944        6.34037530959243       -0.05136777484350
C            5.54882002532564        7.07811778538967        0.89420751456056
C            4.59727360710503        6.45558557352638        1.68507841149660
C            4.33789753962379        5.10603744551381        1.53001978495466
C            3.41346456286198        2.49508793965315        0.37479040235707
C            3.13615018609788        1.14312851971540        0.21055227595713
C            2.04954009341554        0.18376169645422        0.08471659445140
C            0.67369367576396        0.31800723091391        0.08930394767303
C           -0.12896499557669       -0.81269197449890       -0.05095442915795
C           -1.59314129106981       -0.68480410141919       -0.05285729629439
C           -2.39587988297496       -1.60648954267016        0.61979009501825
C           -3.76910120516176       -1.48546784939948        0.60965131315545
C           -4.38846379635910       -0.43679695526966       -0.07112699166867
C           -5.85216263331998       -0.34216838627119       -0.06703301111186
C           -6.53349116157108        0.85761085976364       -0.27489510236407
C           -7.92672057792959        0.81553279581057       -0.25651650873729
C           -8.75606786001969        2.00724240246655       -0.48289236537812
C           -8.31038808535352        3.28473497553358       -0.15009334514374
C           -9.11365072536429        4.38594613569613       -0.38400194937339
C          -10.36627839365564        4.22812738288242       -0.95474198751000
C          -10.82040068696110        2.95999258047822       -1.28131717759344
C          -10.02380185663526        1.85641955151862       -1.04304890874683
N           -8.57332619062646       -0.33163036420987       -0.05331709316995
C           -7.84847295157056       -1.42612205420898        0.15298024889836
C           -8.57091680516225       -2.68025936245072        0.39167969304164
C           -9.94747598286555       -2.66778685995280        0.60891204384022
C          -10.62547346049561       -3.85054201754256        0.83554516880346
C           -9.93929168490684       -5.05514348180555        0.84574803491687
C           -8.57011985045431       -5.07423871133176        0.62882599257660
C           -7.88685729968806       -3.89442306699986        0.40294946424858
N           -6.52135400855928       -1.47327399337385        0.15755689095823
C           -3.58907064914628        0.48299033016543       -0.74858025158030
C           -2.21472846860885        0.35960307447197       -0.73686934417171
C            0.46440573965395       -2.07083541145265       -0.19675010789124
C            1.83747024311704       -2.23562920996040       -0.21531350305882
C            2.63432825805257       -1.11412675026436       -0.07513056946194
N            4.01290229585210       -0.97968964981940       -0.05589265501078
C            4.26637240096317        0.34614028810804        0.11143027654592
C            9.79323441325539       -3.87801815788623        0.27974967336417
C           11.12011737229316       -4.25861455273514        0.19728218686863
H           13.05389468754955       -3.80202264600028       -0.60478474271931
H           12.27415587697438       -1.76965750630148       -1.76943647882625
H            9.91560217397150       -1.09492761705097       -1.62919002070543
H            7.18498022856395       -4.31085632666038       -0.54926693706961
H            4.81073525541781       -3.68989191338450       -0.42514929576431
H            8.37600368936872       -0.23765823342351        0.00040997370783
H            6.85289959612792        2.43798996795585        0.36135681040241
H            6.51938198298397        4.42401531916840       -0.95487853714955
H            6.98241326427109        6.82041487603387       -0.67522116856076
H            5.74927085250614        8.13288592563192        1.01435695359747
H            4.05614388132175        7.02429142949478        2.42798338833611
H            3.60494359557111        4.62427952756260        2.16144250817991
H            2.62965663863988        3.23380308980221        0.44847215953301
H            0.22519683250282        1.29101020930409        0.22305488062773
H           -1.93485499752559       -2.41302890251213        1.17076018947238
H           -4.38951521059443       -2.19518088672795        1.13527728936202
H           -6.00596133812266        1.78016956327693       -0.44749502188904
H           -7.34444608359321        3.41845939804916        0.31469100684405
H           -8.76089650730777        5.37177541526187       -0.11769867839316
H          -10.98854202389623        5.09126780767887       -1.14006167612592
H          -11.79823934231658        2.83187592546264       -1.72200991380231
H          -10.36285866934935        0.86232588347812       -1.29206666848873
H          -10.46568753599445       -1.72120826759620        0.60127890903371
H          -11.69231533496654       -3.83495290315176        1.00529191747984
H          -10.47122683655222       -5.97857626694105        1.02274543158285
H           -8.03533800884025       -6.01293406565391        0.63493958834691
H           -6.82197756050124       -3.89195491476754        0.22820428557508
H           -4.04163344404381        1.28463213025241       -1.31361276209313
H           -1.61257641486301        1.06802197604676       -1.28687218408361
H           -0.16918566054653       -2.93584148467828       -0.32382602981122
H            2.27140347179648       -3.21567641537410       -0.33978673936161
H            9.10240643169505       -4.46361758258050        0.86925640915044
H           11.45639188360885       -5.14816195325117        0.71084706504017

          :  Hamiltonian                  GFN2-xTB          :
         :: gradient norm              0.000045246046 Eh/a0 ::
         :: HOMO-LUMO gap              2.212781205094 eV    ::
         :: SCC energy              -139.646595201783 Eh    ::
         :: -> dispersion             -0.116818408568 Eh    ::
         :: -> Gsolv                  -0.061195632602 Eh    ::
         :: repulsion energy           2.607204691673 Eh    ::

    * Orbital Energies and Occupations

         #    Occupation            Energy/Eh            Energy/eV
      -------------------------------------------------------------
         1        2.0000           -0.6875562             -18.7094
       ...           ...                  ...                  ...
       116        2.0000           -0.4075015             -11.0887
       117        2.0000           -0.4065901             -11.0639
       118        2.0000           -0.4062200             -11.0538
       119        2.0000           -0.4034411             -10.9782
       120        2.0000           -0.4032514             -10.9730
       121        2.0000           -0.4003118             -10.8930
       122        2.0000           -0.3984714             -10.8430
       123        2.0000           -0.3974415             -10.8149
       124        2.0000           -0.3924289             -10.6785
       125        2.0000           -0.3840508             -10.4506
       126        2.0000           -0.3801409             -10.3442
       127        2.0000           -0.3654500              -9.9444
       128        2.0000           -0.3632052              -9.8833 (HOMO)
       129                         -0.2818870              -7.6705 (LUMO)
       130                         -0.2730275              -7.4295
       131                         -0.2656268              -7.2281
       132                         -0.2472501              -6.7280
       133                         -0.2446663              -6.6577
       134                         -0.2355798              -6.4105
       135                         -0.2299068              -6.2561
       136                         -0.2293345              -6.2405
       137                         -0.2280496              -6.2055
       138                         -0.2247891              -6.1168
       139                         -0.2215769              -6.0294
       ...                                ...                  ...
       253                          0.7664934              20.8573
      -------------------------------------------------------------
                  HL-Gap            0.0813182 Eh            2.2128 eV

     #   Z          covCN         q      C6AA      α(0)
     1   6 C        2.920    -0.033    28.815     8.803
     2   6 C        2.918    -0.031    28.769     8.796
     3   6 C        2.925    -0.035    28.876     8.812
     4   6 C        2.977     0.010    27.796     8.648
     5   6 C        2.975     0.002    27.980     8.677
     6   6 C        2.928    -0.037    28.921     8.819
     7   6 C        2.907    -0.047    29.168     8.856
     8   6 C        3.086     0.049    26.816     8.489
     9   6 C        3.109    -0.012    28.172     8.696
    10   6 C        2.916    -0.037    28.921     8.819
    11   6 C        3.018    -0.018    28.434     8.747
    12   6 C        2.938    -0.037    28.921     8.820
    13   6 C        2.977    -0.001    28.056     8.688
    14   6 C        2.979     0.010    27.787     8.647
    15   6 C        2.925    -0.036    28.886     8.814
    16   6 C        2.918    -0.031    28.775     8.796
    17   6 C        2.920    -0.033    28.824     8.804
    18   6 C        2.918    -0.031    28.775     8.797
    19   6 C        2.925    -0.036    28.886     8.814
    20   6 C        2.938    -0.037    28.925     8.821
    21   6 C        3.019    -0.018    28.443     8.748
    22   6 C        3.110    -0.012    28.163     8.694
    23   6 C        2.916    -0.036    28.906     8.816
    24   6 C        2.975     0.002    27.981     8.677
    25   6 C        2.977     0.016    27.660     8.627
    26   6 C        2.922    -0.034    28.846     8.808
    27   6 C        2.924    -0.026    28.646     8.777
    28   6 C        2.979    -0.004    28.112     8.697
    29   6 C        2.965     0.113    25.516     8.285
    30   6 C        2.912    -0.072    29.794     8.951
    31   6 C        2.967     0.112    25.518     8.286
    32   6 C        2.980    -0.000    28.028     8.684
    33   6 C        2.923    -0.032    28.804     8.801
    34   6 C        2.918    -0.029    28.720     8.788
    35   6 C        2.920    -0.026    28.659     8.779
    36   6 C        2.918    -0.028    28.693     8.784
    37   6 C        2.926    -0.025    28.621     8.773
    38   7 N        1.849    -0.296    28.518     7.915
    39   6 C        2.943     0.190    23.943     8.025
    40   6 C        2.984    -0.004    28.118     8.698
    41   6 C        2.924    -0.029    28.718     8.788
    42   6 C        2.918    -0.029    28.724     8.789
    43   6 C        2.920    -0.026    28.656     8.778
    44   6 C        2.918    -0.029    28.725     8.789
    45   6 C        2.924    -0.029    28.718     8.788
    46   7 N        1.850    -0.295    28.503     7.913
    47   6 C        2.921    -0.033    28.824     8.804
    48   6 C        2.923    -0.035    28.866     8.811
    49   6 C        2.928    -0.036    28.905     8.817
    50   6 C        2.907    -0.047    29.156     8.854
    51   6 C        3.087     0.050    26.789     8.484
    52   7 N        2.831    -0.032    21.867     6.945
    53   6 C        3.472     0.036    21.997     7.032
    54   6 C        2.925    -0.035    28.881     8.813
    55   6 C        2.918    -0.031    28.770     8.796
    56   1 H        0.926     0.030     2.589     2.516
    57   1 H        0.926     0.030     2.582     2.513
    58   1 H        0.926     0.032     2.560     2.502
    59   1 H        0.926     0.038     2.475     2.460
    60   1 H        0.926     0.036     2.505     2.475
    61   1 H        0.926     0.039     2.467     2.456
    62   1 H        0.926     0.036     2.504     2.475
    63   1 H        0.926     0.031     2.570     2.507
    64   1 H        0.926     0.030     2.584     2.514
    65   1 H        0.926     0.030     2.592     2.518
    66   1 H        0.926     0.030     2.586     2.515
    67   1 H        0.926     0.031     2.572     2.508
    68   1 H        0.926     0.036     2.507     2.476
    69   1 H        0.926     0.040     2.449     2.447
    70   1 H        0.926     0.042     2.426     2.436
    71   1 H        0.926     0.048     2.341     2.393
    72   1 H        0.926     0.036     2.503     2.474
    73   1 H        0.926     0.034     2.526     2.486
    74   1 H        0.926     0.040     2.455     2.450
    75   1 H        0.926     0.041     2.433     2.439
    76   1 H        0.926     0.041     2.438     2.442
    77   1 H        0.926     0.047     2.358     2.401
    78   1 H        0.926     0.049     2.331     2.388
    79   1 H        0.926     0.040     2.443     2.444
    80   1 H        0.926     0.042     2.428     2.437
    81   1 H        0.926     0.041     2.441     2.443
    82   1 H        0.926     0.049     2.331     2.387
    83   1 H        0.926     0.034     2.527     2.486
    84   1 H        0.926     0.040     2.445     2.445
    85   1 H        0.926     0.040     2.444     2.445
    86   1 H        0.926     0.038     2.482     2.464
    87   1 H        0.926     0.032     2.560     2.502
    88   1 H        0.926     0.030     2.581     2.513

molecular dipole:
                 x           y           z       tot (Debye)
 q only:        0.420       0.023      -0.089
   full:        0.593       0.304      -0.168       1.748

 projected vibrational frequencies (cm⁻¹)
eigval :       -0.00    -0.00    -0.00     0.00     0.00     0.00
eigval :        2.80     9.66    12.09    23.96    33.28    36.83
eigval :       39.59    40.54    40.71    45.52    49.91    52.28
eigval :       54.43    64.58    75.23    82.79    95.41   101.86
eigval :      107.38   112.06   127.92   136.32   159.78   165.76
eigval :      180.61   197.87   210.25   225.10   229.93   245.65
eigval :      253.45   258.83   264.98   269.89   277.62   298.67
eigval :      314.29   341.48   343.60   367.52   368.61   368.96
eigval :      369.97   370.78   374.05   387.09   388.69   399.08
eigval :      409.12   415.89   430.63   445.62   448.30   461.17
eigval :      481.09   494.87   498.37   502.39   521.00   547.54
eigval :      551.61   580.67   581.24   586.16   586.64   587.70
eigval :      590.98   599.24   601.88   605.63   611.83   619.23
eigval :      624.83   625.99   629.87   632.86   646.35   657.21
eigval :      665.43   670.81   673.59   674.73   687.84   690.34
eigval :      702.67   706.42   708.86   725.68   738.10   748.19
eigval :      757.22   758.77   762.78   778.72   806.85   820.56
eigval :      824.85   829.64   835.63   843.43   845.23   859.12
eigval :      869.76   871.71   875.15   875.21   877.38   879.61
eigval :      881.82   883.65   892.48   900.05   902.60   904.56
eigval :      905.79   908.09   910.03   914.41   919.24   926.02
eigval :      927.29   927.72   929.38   930.29   931.01   931.15
eigval :      931.99   932.31   932.78   967.59   974.14   981.20
eigval :      988.09  1001.55  1025.41  1026.92  1065.92  1069.55
eigval :     1072.40  1075.40  1078.53  1084.08  1084.70  1087.76
eigval :     1104.63  1107.01  1110.52  1117.94  1120.49  1120.85
eigval :     1123.86  1141.64  1156.44  1170.63  1177.32  1178.55
eigval :     1180.95  1180.97  1186.51  1194.26  1198.90  1198.96
eigval :     1200.18  1203.87  1209.88  1218.83  1222.91  1230.55
eigval :     1246.89  1247.77  1266.44  1269.82  1271.19  1277.82
eigval :     1279.11  1280.06  1281.67  1286.08  1312.16  1316.06
eigval :     1316.74  1320.40  1320.74  1325.74  1327.81  1347.88
eigval :     1360.54  1361.06  1364.52  1385.29  1392.03  1403.82
eigval :     1407.48  1419.73  1424.62  1427.53  1429.11  1435.97
eigval :     1437.76  1447.44  1467.33  1468.82  1474.31  1476.00
eigval :     1482.72  1491.14  1497.27  1511.75  1528.50  1556.76
eigval :     1562.27  1568.82  1580.40  1580.75  1581.26  1583.82
eigval :     1584.61  1590.99  1594.32  1595.14  1595.94  1599.42
eigval :     1606.37  1609.00  1637.26  3065.09  3065.41  3066.17
eigval :     3066.83  3071.04  3071.89  3073.80  3074.40  3074.99
eigval :     3075.14  3075.81  3077.70  3078.33  3080.71  3081.43
eigval :     3081.72  3085.13  3085.60  3085.88  3086.17  3086.70
eigval :     3086.86  3087.67  3088.24  3089.75  3090.01  3094.15
eigval :     3097.16  3097.61  3098.27  3099.78  3101.29  3111.05

   temp. (K)  partition function   enthalpy   heat capacity  entropy
                                   cal/mol     cal/K/mol   cal/K/mol   J/K/mol
 298.15  VIB  0.721E+21            25182.014    157.784    159.402
         ROT  0.242E+09              888.752      2.981     41.343
         INT  0.174E+30            26070.767    160.765    200.745
         TR   0.179E+29             1481.254      4.968     45.497
         TOT                       27552.0207   165.7328   246.2421  1030.2770

       T/K    H(0)-H(T)+PV         H(T)/Eh          T*S/Eh         G(T)/Eh
   ------------------------------------------------------------------------
    298.15    0.439069E-01    0.716760E+00    0.116998E+00    0.599763E+00
   ------------------------------------------------------------------------

         :::::::::::::::::::::::::::::::::::::::::::::::::::::
         ::                  THERMODYNAMIC                  ::
         :::::::::::::::::::::::::::::::::::::::::::::::::::::
         :: total free energy        -136.439627939729 Eh   ::
         ::.................................................::
         :: total energy             -137.039390512493 Eh   ::
         :: zero point energy           0.672853202245 Eh   ::
         :: G(RRHO) w/o ZPVE           -0.073090629481 Eh   ::
         :: G(RRHO) contrib.            0.599762572764 Eh   ::
         :::::::::::::::::::::::::::::::::::::::::::::::::::::

           -------------------------------------------------
          | TOTAL ENERGY             -137.039390512493 Eh   |
          | TOTAL ENTHALPY           -136.322630370478 Eh   |
          | TOTAL FREE ENERGY        -136.439627939729 Eh   |
          | GRADIENT NORM               0.000045245164 Eh/α |
          | HOMO-LUMO GAP               2.212781232179 eV   |
           -------------------------------------------------

 * finished run on 2025/07/17 at 06:28:57.309
