   * xtb version 6.7.1 (edcfbbe) compiled by 'albert@albert-system' on 2024-07-22

   ID    Z sym.   atoms
    1    6 C      1-37, 39-45, 47-51, 53-55
    2    7 N      38, 46, 52
    3    1 H      56-88

          program call               : xtb data2507/toluene/PhICz-Pyr/PhICz-Pyr_toluene_T1_crest.xyz --gfn 2 --uhf 2 --gbsa toluene --ohess vtight --parallel 40 --molden --ceasefiles --namespace data2507/toluene/PhICz-Pyr/PhICz-Pyr_toluene_T1_finalOpt
      * Solvation model:               GBSA
        Solvent                        toluene
        Solvent mass                       9.2140E+01 g/mol
          :  Hamiltonian                  GFN2-xTB          :
 * total energy  :  -136.9572429 Eh     change       -0.1051151E-07 Eh
 * total energy  :  -136.9573046 Eh     change       -0.6167926E-04 Eh
 * total energy  :  -136.9573320 Eh     change       -0.2736858E-04 Eh
 * total energy  :  -136.9573364 Eh     change       -0.4360109E-05 Eh
 * total energy  :  -136.9573387 Eh     change       -0.2390525E-05 Eh
 * total energy  :  -136.9573411 Eh     change       -0.2311425E-05 Eh
 * total energy  :  -136.9573436 Eh     change       -0.2506004E-05 Eh
 * total energy  :  -136.9573456 Eh     change       -0.2034880E-05 Eh
 * total energy  :  -136.9573471 Eh     change       -0.1518624E-05 Eh
 * total energy  :  -136.9573484 Eh     change       -0.1322707E-05 Eh
 * total energy  :  -136.9573528 Eh     change       -0.1060844E-05 Eh
 * total energy  :  -136.9573539 Eh     change       -0.1113422E-05 Eh
 * total energy  :  -136.9573548 Eh     change       -0.9159439E-06 Eh
 * total energy  :  -136.9573555 Eh     change       -0.6763897E-06 Eh
 * total energy  :  -136.9573560 Eh     change       -0.5707498E-06 Eh
 * total energy  :  -136.9573566 Eh     change       -0.5415556E-06 Eh
 * total energy  :  -136.9573572 Eh     change       -0.6279207E-06 Eh
 * total energy  :  -136.9573579 Eh     change       -0.6996600E-06 Eh
 * total energy  :  -136.9573579 Eh     change       -0.4287790E-07 Eh
   *** GEOMETRY OPTIMIZATION CONVERGED AFTER 22 ITERATIONS ***

 final structure:
================
88
 xtb: 6.7.1 (edcfbbe)
C           12.06782151414972       -3.41927853106385       -0.41254877198601
C           11.67697966600292       -2.24483312943516       -1.03537152301208
C           10.35106598924929       -1.85443867037092       -1.01535006862290
C            9.38889576210979       -2.63853259410374       -0.37937321732244
C            7.97909028839321       -2.22544516723893       -0.35938048921476
C            6.96561809181499       -3.17075763024881       -0.55733394724132
C            5.62758075068240       -2.82354271616893       -0.54393375160597
C            5.29543881137215       -1.49852472251085       -0.31563700026303
C            6.31696434488192       -0.51185545121394       -0.10833939852985
C            7.64468149742119       -0.88730364748882       -0.13891262146325
C            5.65409305304187        0.76677585184424        0.10914128223002
C            5.88853101175084        2.11328832901323        0.36417004376754
C            4.78801705292108        2.97770211382402        0.50461046317011
C            5.05508778807727        4.40042369715038        0.78426644629106
C            6.03638684392518        5.09309422220109        0.07746091312171
C            6.28639446648159        6.42699357270092        0.34215807170984
C            5.56555341908462        7.09028321339221        1.32181043982901
C            4.58945382378137        6.41113785098282        2.03266490621735
C            4.33341865901667        5.07905336532321        1.76457666846501
C            3.44468164737154        2.56309367524915        0.40151890601407
C            3.17704650856459        1.22618889563253        0.14138668198939
C            2.09262540739154        0.27076521858878       -0.06338657315391
C            0.72480843652804        0.40254464997348       -0.06418058640839
C           -0.09327317195916       -0.72315992730117       -0.28328600764221
C           -1.53479504046280       -0.60006785024793       -0.27067912724794
C           -2.36633135760037       -1.67409255757294        0.11016937411115
C           -3.72625592978039       -1.55021555171067        0.13669846567594
C           -4.37097712188617       -0.34469843483999       -0.23125607141654
C           -5.79636705212498       -0.26942864482597       -0.19068181323630
C           -6.54447188715219        0.87185437494276       -0.54286660008034
C           -7.92306298580161        0.81408732130036       -0.45457019828722
C           -8.79987406847589        1.93268627539869       -0.76846750430800
C           -8.36719539454556        3.06003523564753       -1.47606077416633
C           -9.23628103112567        4.09848279651103       -1.74380341263440
C          -10.55502894286323        4.04257977996552       -1.31753350093123
C          -11.00012363216709        2.92734540517512       -0.62287521975992
C          -10.13746396608170        1.88632388360343       -0.35272533708990
N           -8.52133021272870       -0.33036194608205       -0.02783901311986
C           -7.78605348345249       -1.38612877130992        0.28492661337551
C           -8.46628065520240       -2.60509945800674        0.72799403669987
C           -9.85736421368378       -2.64805947071496        0.79272931533783
C          -10.50015306848039       -3.79791849482459        1.21005660049753
C           -9.76248819101130       -4.91626070065294        1.56643201210270
C           -8.37780802172802       -4.88135979059948        1.50293822923646
C           -7.73155206186605       -3.73326771935438        1.08680815719820
N           -6.47733817745028       -1.37861875910724        0.21376896530335
C           -3.53830920701140        0.72707648481491       -0.62469869979410
C           -2.17575224775288        0.60215517638336       -0.63342148147411
C            0.52467854362126       -1.97182220469832       -0.50854061564276
C            1.89306258058893       -2.13003915929479       -0.51654938152450
C            2.69051036121425       -1.01649808839291       -0.29111936500285
N            4.06315720177852       -0.87793016353634       -0.23457779770440
C            4.31053096796193        0.43919415218287        0.01620525739568
C            9.79354328205373       -3.82062534189734        0.24010754735932
C           11.12154243139438       -4.20417065513351        0.22663641642350
H           13.10485152367615       -3.72141892699778       -0.42530067807837
H           12.40981509484332       -1.63144828376030       -1.53979704395082
H           10.05117893668969       -0.94615362514796       -1.51774099974505
H            7.23955707818319       -4.19749292819010       -0.74776715560238
H            4.86418876321944       -3.56822429817701       -0.70765690637701
H            8.41947515077120       -0.15543712961169        0.03256792190649
H            6.88649509914266        2.50764121513658        0.47884229530378
H            6.59026027419244        4.58621018621169       -0.69967651907376
H            7.04571102095663        6.95258037291212       -0.21907924177815
H            5.76335192035083        8.13159965581224        1.53035009054731
H            4.02696322458452        6.92158604387565        2.80136218870885
H            3.58320346749237        4.55025711035761        2.33492279820643
H            2.65784145482052        3.29404442962084        0.50716985311242
H            0.28043192814117        1.36466824338408        0.13771994416723
H           -1.91927826234300       -2.60360853062832        0.43071167024349
H           -4.34710103228325       -2.37575169454385        0.45016256220094
H           -6.04862403292215        1.77485656155895       -0.85433384753288
H           -7.35142102201010        3.12082521127203       -1.83666731865972
H           -8.88426416076801        4.95968341561430       -2.29392264704132
H          -11.22990894755140        4.85848483689306       -1.52974518482552
H          -12.02717117642125        2.87202129717811       -0.29101526198380
H          -10.47524680480213        1.01815311093677        0.19246622467347
H          -10.41684573677550       -1.77002014477193        0.50770645091102
H          -11.57902198546997       -3.82383936394506        1.25777126402994
H          -10.26601547683395       -5.81475858677229        1.89190711200203
H           -7.80221035054012       -5.75262634030961        1.77963223183618
H           -6.65439416137059       -3.69050539005567        1.03273390337670
H           -3.97453686690665        1.66582548626743       -0.93106750396252
H           -1.57984486522283        1.43854897802790       -0.96856857066327
H           -0.09640655390571       -2.83026503406758       -0.71100601191251
H            2.33200274402529       -3.09854742923654       -0.70080471154513
H            9.06437493660647       -4.42865281883731        0.75563035177225
H           11.42125423039805       -5.11840281815961        0.71870038509714

          :  Hamiltonian                  GFN2-xTB          :
         :: gradient norm              0.000098718494 Eh/a0 ::
         :: HOMO-LUMO gap              0.364761676291 eV    ::
         :: SCC energy              -139.555025448809 Eh    ::
         :: -> dispersion             -0.116988260587 Eh    ::
         :: -> Gsolv                  -0.062079734944 Eh    ::
         :: repulsion energy           2.597667504449 Eh    ::

    * Orbital Energies and Occupations

         #    Occupation            Energy/Eh            Energy/eV
      -------------------------------------------------------------
         1        2.0000           -0.6950017             -18.9120
       ...           ...                  ...                  ...
       117        2.0000           -0.4058108             -11.0427
       118        2.0000           -0.4042285             -10.9996
       119        2.0000           -0.4040839             -10.9957
       120        2.0000           -0.4021484             -10.9430
       121        2.0000           -0.4018971             -10.9362
       122        2.0000           -0.3980295             -10.8309
       123        2.0000           -0.3950656             -10.7503
       124        2.0000           -0.3918054             -10.6616
       125        2.0000           -0.3865016             -10.5172
       126        2.0000           -0.3811304             -10.3711
       127        1.5951           -0.3670020              -9.9866
       128        1.4049           -0.3662701              -9.9667
       129        0.9991           -0.2838121              -7.7229 (HOMO)
       130        0.0008           -0.2704072              -7.3582 (LUMO)
       131        0.0001           -0.2686617              -7.3107
       132                         -0.2513038              -6.8383
       133                         -0.2489606              -6.7746
       134                         -0.2379412              -6.4747
       135                         -0.2332089              -6.3459
       136                         -0.2262911              -6.1577
       137                         -0.2248027              -6.1172
       138                         -0.2238846              -6.0922
       139                         -0.2212978              -6.0218
       140                         -0.2205630              -6.0018
       ...                                ...                  ...
       253                          0.7615552              20.7230
      -------------------------------------------------------------
                  HL-Gap            0.0134049 Eh            0.3648 eV

     #   Z          covCN         q      C6AA      α(0)
     1   6 C        2.920    -0.030    28.756     8.794
     2   6 C        2.918    -0.030    28.739     8.791
     3   6 C        2.924    -0.034    28.840     8.807
     4   6 C        2.977     0.011    27.759     8.642
     5   6 C        2.975     0.009    27.820     8.652
     6   6 C        2.927    -0.036    28.899     8.816
     7   6 C        2.906    -0.041    29.022     8.833
     8   6 C        3.084     0.047    26.861     8.496
     9   6 C        3.108    -0.009    28.095     8.684
    10   6 C        2.915    -0.033    28.831     8.805
    11   6 C        3.017    -0.014    28.337     8.732
    12   6 C        2.938    -0.036    28.901     8.817
    13   6 C        2.978     0.005    27.914     8.666
    14   6 C        2.979     0.011    27.761     8.643
    15   6 C        2.924    -0.034    28.859     8.810
    16   6 C        2.918    -0.030    28.751     8.793
    17   6 C        2.920    -0.031    28.778     8.797
    18   6 C        2.918    -0.030    28.749     8.793
    19   6 C        2.924    -0.034    28.855     8.809
    20   6 C        2.938    -0.036    28.905     8.817
    21   6 C        3.016    -0.013    28.319     8.729
    22   6 C        3.104    -0.008    28.093     8.685
    23   6 C        2.915    -0.035    28.864     8.810
    24   6 C        2.971     0.011    27.778     8.645
    25   6 C        2.973    -0.004    28.113     8.697
    26   6 C        2.918    -0.037    28.911     8.817
    27   6 C        2.921    -0.037    28.921     8.819
    28   6 C        2.973    -0.006    28.177     8.707
    29   6 C        2.936     0.076    26.302     8.411
    30   6 C        2.912    -0.059    29.460     8.900
    31   6 C        2.937     0.087    26.070     8.374
    32   6 C        2.976    -0.001    28.055     8.688
    33   6 C        2.922    -0.039    28.964     8.826
    34   6 C        2.917    -0.031    28.784     8.798
    35   6 C        2.919    -0.035    28.868     8.811
    36   6 C        2.917    -0.031    28.774     8.796
    37   6 C        2.926    -0.031    28.785     8.798
    38   7 N        1.852    -0.271    27.878     7.825
    39   6 C        2.890     0.191    23.933     8.021
    40   6 C        2.983    -0.003    28.083     8.693
    41   6 C        2.924    -0.027    28.686     8.783
    42   6 C        2.918    -0.028    28.709     8.786
    43   6 C        2.920    -0.026    28.655     8.778
    44   6 C        2.918    -0.028    28.712     8.787
    45   6 C        2.924    -0.027    28.685     8.783
    46   7 N        1.853    -0.255    27.490     7.771
    47   6 C        2.916    -0.044    29.096     8.845
    48   6 C        2.919    -0.036    28.905     8.816
    49   6 C        2.925    -0.040    29.004     8.832
    50   6 C        2.904    -0.041    29.021     8.833
    51   6 C        3.081     0.043    26.959     8.512
    52   7 N        2.830    -0.010    21.440     6.877
    53   6 C        3.467     0.033    22.125     7.066
    54   6 C        2.924    -0.034    28.843     8.807
    55   6 C        2.918    -0.030    28.739     8.791
    56   1 H        0.926     0.032     2.551     2.498
    57   1 H        0.926     0.033     2.542     2.493
    58   1 H        0.926     0.035     2.511     2.478
    59   1 H        0.926     0.044     2.397     2.421
    60   1 H        0.926     0.042     2.420     2.433
    61   1 H        0.926     0.046     2.372     2.408
    62   1 H        0.926     0.042     2.425     2.435
    63   1 H        0.926     0.034     2.526     2.485
    64   1 H        0.926     0.033     2.550     2.497
    65   1 H        0.926     0.032     2.562     2.503
    66   1 H        0.926     0.032     2.559     2.501
    67   1 H        0.926     0.033     2.539     2.492
    68   1 H        0.926     0.040     2.447     2.446
    69   1 H        0.926     0.044     2.402     2.423
    70   1 H        0.926     0.032     2.553     2.499
    71   1 H        0.926     0.035     2.517     2.481
    72   1 H        0.926     0.033     2.550     2.497
    73   1 H        0.926     0.027     2.630     2.536
    74   1 H        0.926     0.031     2.566     2.505
    75   1 H        0.926     0.032     2.556     2.500
    76   1 H        0.926     0.033     2.545     2.495
    77   1 H        0.926     0.039     2.461     2.453
    78   1 H        0.926     0.047     2.363     2.404
    79   1 H        0.926     0.042     2.424     2.435
    80   1 H        0.926     0.043     2.408     2.427
    81   1 H        0.926     0.042     2.420     2.433
    82   1 H        0.926     0.046     2.376     2.410
    83   1 H        0.926     0.022     2.707     2.573
    84   1 H        0.926     0.031     2.578     2.511
    85   1 H        0.926     0.041     2.432     2.439
    86   1 H        0.926     0.040     2.446     2.446
    87   1 H        0.926     0.035     2.513     2.479
    88   1 H        0.926     0.033     2.545     2.495

molecular dipole:
                 x           y           z       tot (Debye)
 q only:        3.523      -0.533       0.142
   full:        3.613      -0.315       0.019       9.218

 projected vibrational frequencies (cm⁻¹)
eigval :       -0.00    -0.00    -0.00     0.00     0.00     0.00
eigval :        8.15     8.92    13.56    25.80    32.82    34.33
eigval :       35.25    39.96    40.19    46.12    49.00    53.47
eigval :       56.60    61.94    70.02    88.35    99.47   103.44
eigval :      104.71   114.17   130.94   139.95   147.30   173.90
eigval :      186.86   191.69   203.29   214.13   225.33   241.09
eigval :      251.83   257.06   261.05   266.55   275.10   299.12
eigval :      317.31   329.14   345.96   365.74   367.37   367.95
eigval :      370.61   371.49   372.51   379.93   388.88   393.17
eigval :      404.42   407.76   409.59   428.64   444.90   457.16
eigval :      473.71   479.28   493.77   499.64   513.00   539.77
eigval :      545.88   548.82   573.87   582.29   584.27   585.39
eigval :      587.37   588.82   591.24   592.49   593.30   602.23
eigval :      607.59   621.23   623.57   628.64   644.75   648.70
eigval :      650.57   657.64   667.66   668.48   672.77   673.64
eigval :      687.06   689.51   698.15   707.72   718.51   742.84
eigval :      748.43   756.15   757.90   767.20   790.16   810.05
eigval :      811.55   817.32   819.07   828.21   832.96   842.94
eigval :      852.54   853.65   861.83   869.94   871.03   873.74
eigval :      877.26   879.69   884.85   887.02   895.35   897.51
eigval :      901.66   902.38   906.78   907.00   911.77   915.47
eigval :      916.14   920.57   921.70   926.84   927.94   928.09
eigval :      929.73   930.89   932.22   933.52   970.57   979.43
eigval :      979.76   981.88   984.79  1021.12  1046.87  1054.76
eigval :     1064.38  1065.93  1073.54  1076.67  1082.65  1083.25
eigval :     1083.90  1097.68  1104.18  1109.41  1112.40  1120.52
eigval :     1120.89  1124.64  1146.03  1154.01  1167.22  1178.00
eigval :     1179.49  1180.00  1180.62  1186.44  1196.96  1197.90
eigval :     1199.57  1200.91  1205.55  1216.45  1218.73  1229.20
eigval :     1241.01  1258.98  1262.64  1267.15  1274.15  1278.43
eigval :     1278.94  1279.10  1282.10  1285.06  1296.67  1305.58
eigval :     1316.35  1316.81  1321.68  1323.99  1327.58  1329.18
eigval :     1337.34  1345.67  1349.79  1365.72  1377.89  1387.90
eigval :     1401.38  1403.58  1419.50  1422.11  1427.77  1429.11
eigval :     1433.26  1437.28  1439.21  1448.01  1453.68  1464.18
eigval :     1466.52  1468.99  1472.51  1480.05  1484.39  1486.50
eigval :     1524.59  1548.29  1552.02  1557.75  1561.82  1575.82
eigval :     1576.96  1577.62  1581.85  1585.64  1587.24  1592.43
eigval :     1596.14  1597.78  1636.42  3066.94  3067.24  3068.27
eigval :     3068.36  3069.22  3070.29  3071.11  3073.93  3075.27
eigval :     3076.10  3077.39  3077.69  3079.39  3081.74  3082.29
eigval :     3084.85  3086.52  3087.41  3088.22  3088.36  3088.47
eigval :     3089.18  3091.13  3091.67  3092.37  3094.34  3094.71
eigval :     3095.26  3097.59  3097.92  3098.56  3102.59  3116.13

   temp. (K)  partition function   enthalpy   heat capacity  entropy
                                   cal/mol     cal/K/mol   cal/K/mol   J/K/mol
 298.15  VIB  0.352E+21            25461.908    159.656    159.722
         ROT  0.243E+09              888.752      2.981     41.349
         INT  0.854E+29            26350.660    162.637    201.071
         TR   0.179E+29             1481.254      4.968     45.497
         TOT                       27831.9140   167.6050   246.5677  1031.6391

       T/K    H(0)-H(T)+PV         H(T)/Eh          T*S/Eh         G(T)/Eh
   ------------------------------------------------------------------------
    298.15    0.443530E-01    0.713050E+00    0.117152E+00    0.595898E+00
   ------------------------------------------------------------------------

         :::::::::::::::::::::::::::::::::::::::::::::::::::::
         ::                  THERMODYNAMIC                  ::
         :::::::::::::::::::::::::::::::::::::::::::::::::::::
         :: total free energy        -136.361460103652 Eh   ::
         ::.................................................::
         :: total energy             -136.957357945828 Eh   ::
         :: zero point energy           0.668697112824 Eh   ::
         :: G(RRHO) w/o ZPVE           -0.072799270648 Eh   ::
         :: G(RRHO) contrib.            0.595897842176 Eh   ::
         :::::::::::::::::::::::::::::::::::::::::::::::::::::

           -------------------------------------------------
          | TOTAL ENERGY             -136.957357945828 Eh   |
          | TOTAL ENTHALPY           -136.244307854823 Eh   |
          | TOTAL FREE ENERGY        -136.361460103652 Eh   |
          | GRADIENT NORM               0.000098677946 Eh/α |
          | HOMO-LUMO GAP               0.364766119742 eV   |
           -------------------------------------------------

 * finished run on 2025/07/17 at 06:41:30.226
