   * xtb version 6.7.1 (edcfbbe) compiled by 'albert@albert-system' on 2024-07-22

   ID    Z sym.   atoms
    1    6 C      1-37, 39-45, 47-51, 53-55
    2    7 N      38, 46, 52
    3    1 H      56-88

          program call               : xtb data2507/toluene/PhICz-Pyr/PhICz-Pyr_toluene_S0_crest.xyz --gfn 2 --gbsa toluene --ohess vtight --parallel 40 --molden --ceasefiles --namespace data2507/toluene/PhICz-Pyr/PhICz-Pyr_toluene_S0_finalOpt
      * Solvation model:               GBSA
        Solvent                        toluene
        Solvent mass                       9.2140E+01 g/mol
          :  Hamiltonian                  GFN2-xTB          :
 * total energy  :  -137.0392867 Eh     change       -0.1912554E-08 Eh
 * total energy  :  -137.0393187 Eh     change       -0.3190889E-04 Eh
 * total energy  :  -137.0393339 Eh     change       -0.1526946E-04 Eh
 * total energy  :  -137.0393421 Eh     change       -0.8142632E-05 Eh
 * total energy  :  -137.0393569 Eh     change       -0.1481864E-04 Eh
 * total energy  :  -137.0393666 Eh     change       -0.9676675E-05 Eh
 * total energy  :  -137.0393787 Eh     change       -0.1216018E-04 Eh
 * total energy  :  -137.0393926 Eh     change       -0.1384823E-04 Eh
 * total energy  :  -137.0394011 Eh     change       -0.8502416E-05 Eh
 * total energy  :  -137.0394055 Eh     change       -0.4398640E-05 Eh
 * total energy  :  -137.0394127 Eh     change       -0.1241813E-05 Eh
 * total energy  :  -137.0394136 Eh     change       -0.8345369E-06 Eh
 * total energy  :  -137.0394143 Eh     change       -0.6732960E-06 Eh
 * total energy  :  -137.0394149 Eh     change       -0.6416571E-06 Eh
 * total energy  :  -137.0394155 Eh     change       -0.6494809E-06 Eh
 * total energy  :  -137.0394162 Eh     change       -0.6284766E-06 Eh
 * total energy  :  -137.0394168 Eh     change       -0.5918055E-06 Eh
 * total energy  :  -137.0394173 Eh     change       -0.5160533E-06 Eh
 * total energy  :  -137.0394173 Eh     change       -0.6483532E-08 Eh
   *** GEOMETRY OPTIMIZATION CONVERGED AFTER 22 ITERATIONS ***

 final structure:
================
88
 xtb: 6.7.1 (edcfbbe)
C           12.08175472029484       -3.30305797199786       -0.85891110777184
C           11.66513795675255       -2.08707426168510       -1.37522644815500
C           10.33573056240020       -1.71526447337086       -1.29400766140959
C            9.39788394025720       -2.55678607811316       -0.69917538478661
C            7.98242301053669       -2.16174753265947       -0.61411235737938
C            6.97683256048972       -3.09254936597576       -0.89082090877896
C            5.63451900757004       -2.76317630794107       -0.82522572564368
C            5.29397259480459       -1.47250456050656       -0.46591726690755
C            6.30582370244337       -0.50217000397181       -0.17566649757320
C            7.63916208708769       -0.85931930969089       -0.25788570402007
C            5.63589082231015        0.74302311893912        0.16882799073702
C            5.86249196076042        2.05959456400097        0.55107087405604
C            4.75808872204145        2.89969103561684        0.78223494107869
C            5.02014265450865        4.29196304198783        1.19652638557070
C            5.99658993360032        5.05352097867747        0.55813200732595
C            6.24507180020958        6.35591555486362        0.95115514371562
C            5.52501580148630        6.91959050436002        1.99149946848820
C            4.55129633680643        6.17244156332125        2.63349321387033
C            4.29936392420601        4.87126428222069        2.23865939032480
C            3.41991858180086        2.48868558799318        0.64715880334831
C            3.15578913813341        1.17923603745863        0.26353584846129
C            2.07869068629048        0.24266604639257       -0.01830290994365
C            0.70166168399512        0.36292189937390       -0.00000158257654
C           -0.08978939096739       -0.74182224631231       -0.30872637455976
C           -1.55520917161981       -0.63087565044770       -0.28520281731713
C           -2.34139901208550       -1.64568913053400        0.26084336203103
C           -3.71542534169949       -1.53711538677829        0.28537493874892
C           -4.35209446771695       -0.41757216062951       -0.25083414541214
C           -5.81665983817668       -0.34300284112512       -0.22247727797919
C           -6.55188232032500        0.40370743617221       -1.14370577676484
C           -7.94028198666403        0.38612529303084       -1.02049419715974
C           -8.82574636965337        1.13309316784603       -1.92442142415151
C           -8.46250726459533        1.41526888470219       -3.23971079336507
C           -9.32131207825471        2.11953616572477       -4.06383142187481
C          -10.54767123390577        2.55378637127400       -3.58720161600483
C          -10.91917828358640        2.27208250811201       -2.28194068787140
C          -10.06681909173317        1.56338905292397       -1.45714355338071
N           -8.53091166815929       -0.30893805494682       -0.04913887253612
C           -7.75745937754912       -0.99989347990680        0.78140550871882
C           -8.42051522280878       -1.76587089842333        1.84228622648793
C           -9.80579379735935       -1.91882197204946        1.83751170727017
C          -10.42878842878392       -2.63652350783552        2.84084570556076
C           -9.67821668507001       -3.20726419240513        3.85723939714258
C           -8.29977151941487       -3.05932164729561        3.86713569283427
C           -7.67129551112985       -2.34402137024644        2.86545382981576
N           -6.43128870127220       -1.04827461790874        0.72720437639674
C           -3.56918856955542        0.60046716770054       -0.79294527967400
C           -2.19320755102117        0.49539590515110       -0.80393327317588
C            0.51533558114557       -1.95832515329838       -0.64041061834197
C            1.88999245738299       -2.10629147642246       -0.67842807406762
C            2.67584399056488       -1.01204336856981       -0.36624469485900
N            4.05300299252894       -0.87209941356979       -0.31357157927866
C            4.29352084286994        0.41460285466037        0.05594331151560
C            9.82800495174058       -3.77853244745305       -0.18564452294523
C           11.15875471539053       -4.14644544143554       -0.26261681151825
H           13.12090743938774       -3.59192835075160       -0.92071120059465
H           12.37981329830228       -1.42645984927526       -1.84529759433098
H           10.01454456160449       -0.77219217492066       -1.71268301334646
H            7.25769696138970       -4.09321451362810       -1.18446397501001
H            4.87676166829050       -3.49768216764589       -1.05084498041621
H            8.40873871648206       -0.13825586181966       -0.02580762758568
H            6.85924860712258        2.44765860535901        0.69711272948065
H            6.55134710443168        4.62602841979454       -0.26493487798322
H            7.00296477189750        6.93482145718064        0.44257993746416
H            5.72136849148041        7.93612338791187        2.30017307719589
H            3.98773252370379        6.60462933971887        3.44825759959122
H            3.55032813908343        4.28877468257507        2.75605439387666
H            2.62884220264143        3.20112286842205        0.82647135376833
H            0.24367355324121        1.30062598145025        0.27700335472412
H           -1.86646145053184       -2.51641380467939        0.68860477221374
H           -4.32385436822961       -2.31934071091991        0.71321858121648
H           -6.06715850568041        0.97113796462335       -1.91981966284712
H           -7.51876744634957        1.06300812555477       -3.62984525715719
H           -9.03296683296461        2.32821799955997       -5.08385467498397
H          -11.21368875836311        3.10662433641019       -4.23320562968781
H          -11.87590740599235        2.60532391459272       -1.90715856957411
H          -10.34137187844800        1.33580659076156       -0.43836776536203
H          -10.37471124736722       -1.47103078305792        1.03725361568285
H          -11.50277264269819       -2.75324529419119        2.83108229666369
H          -10.16717297442454       -3.76703467229087        4.64124925569534
H           -7.71453870703953       -3.50340454995302        4.65927123010431
H           -6.59977972777510       -2.21605819908252        2.86065159598143
H           -4.03416748333784        1.49128612074744       -1.18929788827518
H           -1.60233193088477        1.28930921386144       -1.23706557908126
H           -0.11029196429660       -2.80021068709528       -0.89676295398772
H            2.33341264042298       -3.05290676699252       -0.94614813730333
H            9.11613980679380       -4.43399241857998        0.29532148791123
H           11.47822205030439       -5.09460737643534        0.14608973074734

          :  Hamiltonian                  GFN2-xTB          :
         :: gradient norm              0.000066023500 Eh/a0 ::
         :: HOMO-LUMO gap              2.217905151119 eV    ::
         :: SCC energy              -139.646806152228 Eh    ::
         :: -> dispersion             -0.116775227111 Eh    ::
         :: -> Gsolv                  -0.061200475685 Eh    ::
         :: repulsion energy           2.607388864065 Eh    ::

    * Orbital Energies and Occupations

         #    Occupation            Energy/Eh            Energy/eV
      -------------------------------------------------------------
         1        2.0000           -0.6875114             -18.7081
       ...           ...                  ...                  ...
       116        2.0000           -0.4074664             -11.0877
       117        2.0000           -0.4065528             -11.0629
       118        2.0000           -0.4061076             -11.0508
       119        2.0000           -0.4034533             -10.9785
       120        2.0000           -0.4030491             -10.9675
       121        2.0000           -0.4002214             -10.8906
       122        2.0000           -0.3989283             -10.8554
       123        2.0000           -0.3972086             -10.8086
       124        2.0000           -0.3923851             -10.6773
       125        2.0000           -0.3840299             -10.4500
       126        2.0000           -0.3800476             -10.3416
       127        2.0000           -0.3654523              -9.9445
       128        2.0000           -0.3631277              -9.8812 (HOMO)
       129                         -0.2816212              -7.6633 (LUMO)
       130                         -0.2730659              -7.4305
       131                         -0.2655651              -7.2264
       132                         -0.2471137              -6.7243
       133                         -0.2445623              -6.6549
       134                         -0.2355101              -6.4086
       135                         -0.2298960              -6.2558
       136                         -0.2293096              -6.2398
       137                         -0.2281098              -6.2072
       138                         -0.2247540              -6.1159
       139                         -0.2215895              -6.0298
       ...                                ...                  ...
       253                          0.7666186              20.8608
      -------------------------------------------------------------
                  HL-Gap            0.0815065 Eh            2.2179 eV

     #   Z          covCN         q      C6AA      α(0)
     1   6 C        2.920    -0.033    28.815     8.803
     2   6 C        2.918    -0.031    28.769     8.796
     3   6 C        2.925    -0.035    28.875     8.812
     4   6 C        2.977     0.010    27.795     8.648
     5   6 C        2.975     0.002    27.980     8.677
     6   6 C        2.928    -0.037    28.921     8.819
     7   6 C        2.907    -0.047    29.169     8.856
     8   6 C        3.086     0.049    26.816     8.489
     9   6 C        3.109    -0.012    28.171     8.696
    10   6 C        2.916    -0.037    28.920     8.819
    11   6 C        3.018    -0.018    28.435     8.747
    12   6 C        2.938    -0.037    28.921     8.820
    13   6 C        2.977    -0.001    28.055     8.688
    14   6 C        2.979     0.010    27.788     8.647
    15   6 C        2.925    -0.036    28.887     8.814
    16   6 C        2.918    -0.031    28.775     8.797
    17   6 C        2.920    -0.033    28.824     8.804
    18   6 C        2.918    -0.031    28.775     8.796
    19   6 C        2.925    -0.036    28.887     8.814
    20   6 C        2.938    -0.037    28.924     8.820
    21   6 C        3.019    -0.018    28.442     8.748
    22   6 C        3.110    -0.012    28.161     8.694
    23   6 C        2.916    -0.036    28.904     8.816
    24   6 C        2.975     0.002    27.979     8.677
    25   6 C        2.977     0.015    27.662     8.627
    26   6 C        2.923    -0.034    28.845     8.807
    27   6 C        2.924    -0.026    28.646     8.777
    28   6 C        2.979    -0.004    28.108     8.697
    29   6 C        2.966     0.113    25.512     8.285
    30   6 C        2.912    -0.072    29.794     8.951
    31   6 C        2.967     0.112    25.519     8.286
    32   6 C        2.980    -0.000    28.029     8.684
    33   6 C        2.922    -0.032    28.804     8.801
    34   6 C        2.918    -0.029    28.720     8.788
    35   6 C        2.920    -0.026    28.658     8.779
    36   6 C        2.918    -0.028    28.693     8.784
    37   6 C        2.926    -0.025    28.621     8.773
    38   7 N        1.849    -0.296    28.513     7.914
    39   6 C        2.943     0.190    23.943     8.025
    40   6 C        2.984    -0.004    28.119     8.698
    41   6 C        2.924    -0.029    28.719     8.788
    42   6 C        2.918    -0.029    28.724     8.789
    43   6 C        2.920    -0.026    28.655     8.778
    44   6 C        2.918    -0.029    28.725     8.789
    45   6 C        2.923    -0.029    28.718     8.788
    46   7 N        1.849    -0.295    28.504     7.913
    47   6 C        2.921    -0.033    28.823     8.804
    48   6 C        2.923    -0.035    28.865     8.811
    49   6 C        2.928    -0.036    28.907     8.817
    50   6 C        2.907    -0.047    29.157     8.854
    51   6 C        3.087     0.050    26.789     8.484
    52   7 N        2.831    -0.032    21.867     6.945
    53   6 C        3.472     0.036    21.989     7.030
    54   6 C        2.925    -0.035    28.881     8.813
    55   6 C        2.918    -0.031    28.770     8.796
    56   1 H        0.926     0.030     2.588     2.516
    57   1 H        0.926     0.030     2.581     2.512
    58   1 H        0.926     0.032     2.561     2.502
    59   1 H        0.926     0.038     2.477     2.461
    60   1 H        0.926     0.036     2.506     2.476
    61   1 H        0.926     0.039     2.468     2.457
    62   1 H        0.926     0.036     2.503     2.474
    63   1 H        0.926     0.031     2.569     2.506
    64   1 H        0.926     0.030     2.584     2.514
    65   1 H        0.926     0.030     2.592     2.518
    66   1 H        0.926     0.030     2.587     2.515
    67   1 H        0.926     0.031     2.571     2.508
    68   1 H        0.926     0.036     2.505     2.475
    69   1 H        0.926     0.040     2.448     2.447
    70   1 H        0.926     0.042     2.427     2.436
    71   1 H        0.926     0.048     2.347     2.396
    72   1 H        0.926     0.036     2.504     2.474
    73   1 H        0.926     0.034     2.526     2.485
    74   1 H        0.926     0.040     2.455     2.450
    75   1 H        0.926     0.041     2.433     2.439
    76   1 H        0.926     0.041     2.437     2.441
    77   1 H        0.926     0.047     2.354     2.399
    78   1 H        0.926     0.049     2.330     2.387
    79   1 H        0.926     0.040     2.442     2.444
    80   1 H        0.926     0.042     2.428     2.437
    81   1 H        0.926     0.041     2.442     2.444
    82   1 H        0.926     0.049     2.330     2.387
    83   1 H        0.926     0.034     2.528     2.486
    84   1 H        0.926     0.040     2.443     2.444
    85   1 H        0.926     0.040     2.450     2.448
    86   1 H        0.926     0.037     2.484     2.465
    87   1 H        0.926     0.032     2.561     2.502
    88   1 H        0.926     0.030     2.581     2.513

molecular dipole:
                 x           y           z       tot (Debye)
 q only:        0.395      -0.049      -0.266
   full:        0.553       0.094      -0.583       2.056

 projected vibrational frequencies (cm⁻¹)
eigval :       -0.00    -0.00     0.00     0.00     0.00     0.00
eigval :       -7.57     8.81    12.46    25.05    31.45    34.28
eigval :       36.33    40.27    40.97    42.84    49.97    52.04
eigval :       56.82    65.28    67.57    91.23    93.90    99.03
eigval :      104.86   115.02   128.05   143.77   148.62   171.39
eigval :      181.68   197.55   207.27   224.76   232.98   242.53
eigval :      253.93   258.84   266.37   267.58   279.13   299.50
eigval :      316.21   340.20   344.94   360.54   367.94   370.14
eigval :      372.93   373.30   374.70   382.49   391.88   398.55
eigval :      410.23   414.16   430.58   443.19   449.49   460.64
eigval :      480.31   495.01   501.03   502.27   523.10   549.04
eigval :      553.46   580.61   582.65   586.26   586.78   588.01
eigval :      593.83   599.06   601.50   605.03   612.28   616.69
eigval :      619.22   625.82   632.52   636.68   646.10   656.92
eigval :      664.06   670.48   672.32   675.36   690.03   690.70
eigval :      704.41   707.53   711.09   725.75   737.13   748.20
eigval :      756.85   761.19   761.46   779.06   806.94   821.83
eigval :      824.16   827.76   837.65   842.58   843.71   859.35
eigval :      871.11   872.27   872.89   873.68   879.12   881.25
eigval :      881.44   884.43   893.05   901.43   903.03   903.18
eigval :      904.98   909.71   911.09   914.57   921.45   925.92
eigval :      926.65   928.78   930.31   931.14   931.46   931.75
eigval :      932.49   933.46   933.85   967.39   974.20   981.24
eigval :      987.76  1001.79  1025.29  1026.98  1065.67  1069.04
eigval :     1072.42  1074.90  1078.32  1084.50  1084.90  1087.68
eigval :     1103.80  1107.11  1110.90  1117.99  1120.71  1121.61
eigval :     1123.77  1141.04  1154.96  1170.95  1176.49  1177.71
eigval :     1181.42  1183.14  1185.80  1194.08  1198.36  1199.59
eigval :     1200.10  1203.61  1209.78  1218.03  1222.64  1229.54
eigval :     1245.88  1247.65  1266.53  1269.73  1270.65  1277.39
eigval :     1279.79  1280.09  1281.22  1285.76  1312.43  1316.41
eigval :     1316.69  1320.49  1320.80  1325.34  1327.63  1348.20
eigval :     1360.62  1360.99  1364.69  1385.39  1392.15  1403.74
eigval :     1407.40  1419.70  1424.71  1427.89  1428.96  1435.78
eigval :     1437.62  1447.67  1467.34  1468.69  1474.32  1475.71
eigval :     1483.06  1491.31  1497.76  1511.92  1528.34  1557.09
eigval :     1562.52  1569.02  1580.57  1580.75  1581.17  1583.47
eigval :     1584.80  1591.28  1594.04  1594.96  1596.11  1599.60
eigval :     1606.47  1609.17  1637.46  3065.50  3065.58  3066.40
eigval :     3066.85  3070.72  3072.28  3073.68  3074.56  3074.96
eigval :     3076.12  3076.31  3077.74  3078.30  3079.67  3081.55
eigval :     3082.38  3084.20  3085.25  3085.75  3086.11  3086.32
eigval :     3086.96  3087.57  3088.08  3089.78  3090.58  3093.78
eigval :     3096.58  3097.82  3098.31  3099.62  3101.14  3110.39

   temp. (K)  partition function   enthalpy   heat capacity  entropy
                                   cal/mol     cal/K/mol   cal/K/mol   J/K/mol
 298.15  VIB  0.349E+21            25182.422    157.567    158.456
         ROT  0.242E+09              888.752      2.981     41.343
         INT  0.844E+29            26071.175    160.548    199.799
         TR   0.179E+29             1481.254      4.968     45.497
         TOT                       27552.4287   165.5159   245.2958  1026.3175

       T/K    H(0)-H(T)+PV         H(T)/Eh          T*S/Eh         G(T)/Eh
   ------------------------------------------------------------------------
    298.15    0.439076E-01    0.716794E+00    0.116548E+00    0.600246E+00
   ------------------------------------------------------------------------

         :::::::::::::::::::::::::::::::::::::::::::::::::::::
         ::                  THERMODYNAMIC                  ::
         :::::::::::::::::::::::::::::::::::::::::::::::::::::
         :: total free energy        -136.439171138108 Eh   ::
         ::.................................................::
         :: total energy             -137.039417294166 Eh   ::
         :: zero point energy           0.672886496136 Eh   ::
         :: G(RRHO) w/o ZPVE           -0.072640340079 Eh   ::
         :: G(RRHO) contrib.            0.600246156057 Eh   ::
         :::::::::::::::::::::::::::::::::::::::::::::::::::::

           -------------------------------------------------
          | TOTAL ENERGY             -137.039417294166 Eh   |
          | TOTAL ENTHALPY           -136.322623208047 Eh   |
          | TOTAL FREE ENERGY        -136.439171138108 Eh   |
          | GRADIENT NORM               0.000066017148 Eh/α |
          | HOMO-LUMO GAP               2.217905253548 eV   |
           -------------------------------------------------

 * finished run on 2025/07/17 at 06:34:05.371
