   * xtb version 6.7.1 (edcfbbe) compiled by 'albert@albert-system' on 2024-07-22

   ID    Z sym.   atoms
    1    6 C      1-37, 39-45, 47-51, 53-55
    2    7 N      38, 46, 52
    3    1 H      56-88

          program call               : xtb data2507/toluene/PhICz-Pyr/PhICz-Pyr_toluene_S0_finalOpt.xtbopt.xyz --gfn 2 --uhf 2 --gbsa toluene --ohess vtight --parallel 40 --molden --ceasefiles --namespace data2507/toluene/PhICz-Pyr/PhICz-Pyr_toluene_T1_preOpt
      * Solvation model:               GBSA
        Solvent                        toluene
        Solvent mass                       9.2140E+01 g/mol
          :  Hamiltonian                  GFN2-xTB          :
 * total energy  :  -136.9508032 Eh     change       -0.2876089E-07 Eh
 * total energy  :  -136.9537791 Eh     change       -0.2975848E-02 Eh
 * total energy  :  -136.9550439 Eh     change       -0.1264801E-02 Eh
 * total energy  :  -136.9551430 Eh     change       -0.9914379E-04 Eh
 * total energy  :  -136.9552664 Eh     change       -0.1233975E-03 Eh
 * total energy  :  -136.9553230 Eh     change       -0.5659283E-04 Eh
 * total energy  :  -136.9553977 Eh     change       -0.7467342E-04 Eh
 * total energy  :  -136.9554650 Eh     change       -0.6734997E-04 Eh
 * total energy  :  -136.9555155 Eh     change       -0.5042098E-04 Eh
 * total energy  :  -136.9555750 Eh     change       -0.5953539E-04 Eh
 * total energy  :  -136.9571756 Eh     change       -0.9732486E-06 Eh
 * total energy  :  -136.9571767 Eh     change       -0.1128410E-05 Eh
 * total energy  :  -136.9571780 Eh     change       -0.1252729E-05 Eh
 * total energy  :  -136.9571793 Eh     change       -0.1324426E-05 Eh
 * total energy  :  -136.9571806 Eh     change       -0.1335562E-05 Eh
 * total energy  :  -136.9571819 Eh     change       -0.1299635E-05 Eh
 * total energy  :  -136.9571832 Eh     change       -0.1253657E-05 Eh
 * total energy  :  -136.9571844 Eh     change       -0.1227920E-05 Eh
 * total energy  :  -136.9571844 Eh     change       -0.3781054E-08 Eh
   *** GEOMETRY OPTIMIZATION CONVERGED AFTER 152 ITERATIONS ***

 final structure:
================
88
 xtb: 6.7.1 (edcfbbe)
C           12.04225944077733       -3.39747403125847       -0.73735459232359
C           11.61351956837937       -2.21973426260234       -1.32820626500988
C           10.29058162863843       -1.83176366749787       -1.22702196514062
C            9.36918559676409       -2.62115258728901       -0.53919472760992
C            7.96229957679961       -2.21083260010136       -0.43528140796600
C            6.94091703436271       -3.15746433612155       -0.57924818325665
C            5.60497521469635       -2.81164844462223       -0.49734362876846
C            5.28359881046243       -1.48668652464390       -0.25410925708592
C            6.31334219723463       -0.49941211942676       -0.09614424432984
C            7.63824259071520       -0.87369709439052       -0.19370218773505
C            5.66059540427779        0.77993741628950        0.14663435076266
C            5.90595690194422        2.12728898075320        0.38629916407587
C            4.81244694979262        2.99355037421577        0.56515784464857
C            5.09202356637091        4.41577697793003        0.83513769557409
C            6.04968536927923        5.10690569911513        0.09519678460450
C            6.31270954440471        6.43965502143255        0.35297115729089
C            5.62918296675008        7.10321115683889        1.35885522673941
C            4.67673908462267        6.42567874949872        2.10257014658195
C            4.40726361511130        5.09486385368513        1.84133919046096
C            3.46564391513775        2.58129495883881        0.50937947823552
C            3.18674863909148        1.24334022694216        0.26637896596582
C            2.09430612240817        0.28905623437321        0.10241495661199
C            0.72666667031418        0.42514103677212        0.12769630011091
C           -0.09664814541514       -0.70192723847037       -0.05590169593621
C           -1.53877527562122       -0.57327505694199       -0.04410852347493
C           -2.37152788354032       -1.61684166661567        0.40846126655094
C           -3.73249705194919       -1.49606285417981        0.40381390671990
C           -4.37203224779290       -0.33050649709346       -0.08180229489837
C           -5.79910723081000       -0.27013456586237       -0.10516454261400
C           -6.53967921146498        0.74772631047561       -0.73720425392104
C           -7.92028099781426        0.66940018431280       -0.72267023650624
C           -8.79071150427689        1.65453484098344       -1.34573033810887
C           -8.33003842986328        2.58376377063872       -2.28573060190377
C           -9.19507442319892        3.49743138510291       -2.85309708812470
C          -10.53723571189608        3.50995001482397       -2.50291283388177
C          -11.00904426918042        2.59004892405924       -1.57775055765996
C          -10.15086919159070        1.67372728338691       -1.00781973149808
N           -8.52723863187106       -0.36550054277209       -0.08083269875748
C           -7.79760603021016       -1.30635468475879        0.49724318243436
C           -8.48495387147908       -2.41137315191208        1.16895958769842
C           -9.86147244559844       -2.57190281705306        1.02655277457759
C          -10.50948238695340       -3.61442705644686        1.66141913255602
C           -9.79205234915494       -4.50403397657622        2.44615874728760
C           -8.42180438388506       -4.34998950992984        2.59209643528191
C           -7.76976753414431       -3.31018094768779        1.95746526705749
N           -6.48713393114268       -1.28268691857959        0.49426172309759
C           -3.53660194312630        0.71630912652228       -0.53083942088158
C           -2.17319553882703        0.60017762126374       -0.49714701375725
C            0.51023656479196       -1.95813151261857       -0.26219020785861
C            1.87781654075930       -2.11937318983078       -0.30584222140116
C            2.68217871661143       -1.00239488702256       -0.12786004433072
N            4.05621741389932       -0.86538518625486       -0.12165831787613
C            4.31410129300095        0.45310065185843        0.10956196511750
C            9.81151208077443       -3.80650041240196        0.04738831665518
C           11.13674957814201       -4.18801410620359       -0.04801616984250
H           13.07695533786603       -3.69809032229425       -0.81418678223675
H           12.31412742273981       -1.60217527602408       -1.87185621043014
H            9.95981948281850       -0.92130182611240       -1.70554661779753
H            7.20544837209516       -4.18368536741279       -0.78508915558303
H            4.83504216161664       -3.55694201287699       -0.62317572692433
H            8.42004608282537       -0.14105204794096       -0.06206893301152
H            6.90798651585183        2.52082250354644        0.46151381342062
H            6.57440852453603        4.59971784705037       -0.70171307221589
H            7.05316998777274        6.96406667244830       -0.23396427579759
H            5.83764250611971        8.14348042671643        1.56223216046058
H            4.14349538254628        6.93634860448065        2.89170345108319
H            3.67598130347090        4.56735439994223        2.43690462589751
H            2.68430960902758        3.31447253805076        0.63804991074822
H            0.28598321287334        1.39108479656263        0.32036318449919
H           -1.92456421681781       -2.51621415652110        0.80649879626719
H           -4.35748979754793       -2.29788419540131        0.76752051012938
H           -6.03761504712529        1.56687908723690       -1.22244237983166
H           -7.29467300260887        2.58134675219842       -2.59181513931073
H           -8.82124806090900        4.20486986400254       -3.57980653649439
H          -11.20905907094829        4.22722619628470       -2.95062021405422
H          -12.05385850069456        2.58959514710629       -1.30131220672988
H          -10.50974045111906        0.95816984367479       -0.28349014126861
H          -10.40427935026223       -1.87203430859123        0.40914675763767
H          -11.57680037182390       -3.73460520760185        1.54578799572974
H          -10.30020170800712       -5.31719856203751        2.94345129967261
H           -7.86240499695725       -5.04217400299007        3.20444686634145
H           -6.70424310631801       -3.17344087381140        2.06443398807358
H           -3.97117055824480        1.63184566981820       -0.90307093860947
H           -1.57067474875139        1.41493291655130       -0.87190347874985
H           -0.12013819332464       -2.81823923316513       -0.42627802794481
H            2.31028036736915       -3.09217891018496       -0.48229889053556
H            9.11532558010699       -4.41872041307606        0.60206406570787
H           11.46638275433935       -5.10520443774529        0.41876221159923

          :  Hamiltonian                  GFN2-xTB          :
         :: gradient norm              0.000054501777 Eh/a0 ::
         :: HOMO-LUMO gap              0.351407237280 eV    ::
         :: SCC energy              -139.554835042105 Eh    ::
         :: -> dispersion             -0.116925159839 Eh    ::
         :: -> Gsolv                  -0.062118115329 Eh    ::
         :: repulsion energy           2.597650625935 Eh    ::

    * Orbital Energies and Occupations

         #    Occupation            Energy/Eh            Energy/eV
      -------------------------------------------------------------
         1        2.0000           -0.6950692             -18.9138
       ...           ...                  ...                  ...
       117        2.0000           -0.4058084             -11.0426
       118        2.0000           -0.4042394             -10.9999
       119        2.0000           -0.4038104             -10.9882
       120        2.0000           -0.4021920             -10.9442
       121        2.0000           -0.4018001             -10.9335
       122        2.0000           -0.3983549             -10.8398
       123        2.0000           -0.3949884             -10.7482
       124        2.0000           -0.3917282             -10.6595
       125        2.0000           -0.3865176             -10.5177
       126        2.0000           -0.3812322             -10.3739
       127        1.6377           -0.3674053              -9.9976
       128        1.3623           -0.3663310              -9.9684
       129        0.9988           -0.2832208              -7.7068 (HOMO)
       130        0.0010           -0.2703066              -7.3554 (LUMO)
       131        0.0001           -0.2684142              -7.3039
       132                         -0.2513176              -6.8387
       133                         -0.2486749              -6.7668
       134                         -0.2377945              -6.4707
       135                         -0.2332988              -6.3484
       136                         -0.2263245              -6.1586
       137                         -0.2248430              -6.1183
       138                         -0.2238855              -6.0922
       139                         -0.2212261              -6.0199
       140                         -0.2203094              -5.9949
       ...                                ...                  ...
       253                          0.7612703              20.7152
      -------------------------------------------------------------
                  HL-Gap            0.0129142 Eh            0.3514 eV

     #   Z          covCN         q      C6AA      α(0)
     1   6 C        2.920    -0.030    28.756     8.794
     2   6 C        2.918    -0.030    28.739     8.791
     3   6 C        2.924    -0.034    28.840     8.807
     4   6 C        2.977     0.011    27.759     8.642
     5   6 C        2.975     0.009    27.819     8.652
     6   6 C        2.927    -0.036    28.899     8.816
     7   6 C        2.906    -0.041    29.022     8.834
     8   6 C        3.084     0.047    26.860     8.496
     9   6 C        3.108    -0.009    28.096     8.684
    10   6 C        2.915    -0.033    28.831     8.805
    11   6 C        3.017    -0.014    28.337     8.732
    12   6 C        2.938    -0.036    28.901     8.817
    13   6 C        2.978     0.005    27.912     8.666
    14   6 C        2.979     0.011    27.761     8.643
    15   6 C        2.924    -0.034    28.858     8.810
    16   6 C        2.918    -0.030    28.751     8.793
    17   6 C        2.920    -0.031    28.778     8.797
    18   6 C        2.918    -0.030    28.749     8.793
    19   6 C        2.925    -0.034    28.854     8.809
    20   6 C        2.938    -0.036    28.904     8.817
    21   6 C        3.016    -0.013    28.318     8.729
    22   6 C        3.104    -0.008    28.092     8.685
    23   6 C        2.914    -0.034    28.857     8.809
    24   6 C        2.972     0.011    27.777     8.645
    25   6 C        2.974    -0.004    28.109     8.697
    26   6 C        2.918    -0.037    28.908     8.817
    27   6 C        2.921    -0.037    28.921     8.819
    28   6 C        2.974    -0.006    28.174     8.707
    29   6 C        2.936     0.076    26.306     8.412
    30   6 C        2.912    -0.058    29.453     8.899
    31   6 C        2.938     0.086    26.084     8.376
    32   6 C        2.976    -0.001    28.058     8.689
    33   6 C        2.922    -0.039    28.972     8.827
    34   6 C        2.917    -0.032    28.786     8.798
    35   6 C        2.919    -0.035    28.876     8.812
    36   6 C        2.917    -0.031    28.776     8.797
    37   6 C        2.926    -0.032    28.793     8.800
    38   7 N        1.852    -0.270    27.866     7.824
    39   6 C        2.891     0.191    23.928     8.020
    40   6 C        2.983    -0.002    28.078     8.692
    41   6 C        2.924    -0.027    28.686     8.783
    42   6 C        2.918    -0.028    28.708     8.786
    43   6 C        2.920    -0.026    28.656     8.778
    44   6 C        2.918    -0.028    28.711     8.787
    45   6 C        2.924    -0.027    28.688     8.783
    46   7 N        1.853    -0.255    27.488     7.771
    47   6 C        2.916    -0.044    29.096     8.845
    48   6 C        2.919    -0.036    28.904     8.816
    49   6 C        2.926    -0.040    28.997     8.831
    50   6 C        2.904    -0.041    29.021     8.833
    51   6 C        3.082     0.043    26.955     8.511
    52   7 N        2.830    -0.010    21.440     6.877
    53   6 C        3.466     0.033    22.130     7.068
    54   6 C        2.924    -0.034    28.843     8.807
    55   6 C        2.918    -0.030    28.739     8.791
    56   1 H        0.926     0.032     2.551     2.498
    57   1 H        0.926     0.033     2.542     2.493
    58   1 H        0.926     0.035     2.510     2.478
    59   1 H        0.926     0.044     2.397     2.421
    60   1 H        0.926     0.042     2.421     2.433
    61   1 H        0.926     0.046     2.371     2.408
    62   1 H        0.926     0.042     2.424     2.435
    63   1 H        0.926     0.034     2.526     2.485
    64   1 H        0.926     0.033     2.549     2.497
    65   1 H        0.926     0.032     2.562     2.503
    66   1 H        0.926     0.032     2.558     2.501
    67   1 H        0.926     0.033     2.538     2.491
    68   1 H        0.926     0.040     2.446     2.446
    69   1 H        0.926     0.044     2.402     2.424
    70   1 H        0.926     0.032     2.554     2.499
    71   1 H        0.926     0.035     2.516     2.481
    72   1 H        0.926     0.033     2.548     2.496
    73   1 H        0.926     0.027     2.632     2.537
    74   1 H        0.926     0.031     2.570     2.507
    75   1 H        0.926     0.032     2.561     2.502
    76   1 H        0.926     0.033     2.549     2.497
    77   1 H        0.926     0.039     2.462     2.453
    78   1 H        0.926     0.046     2.367     2.406
    79   1 H        0.926     0.042     2.424     2.435
    80   1 H        0.926     0.043     2.408     2.426
    81   1 H        0.926     0.042     2.420     2.433
    82   1 H        0.926     0.046     2.375     2.410
    83   1 H        0.926     0.022     2.703     2.571
    84   1 H        0.926     0.031     2.579     2.511
    85   1 H        0.926     0.041     2.434     2.440
    86   1 H        0.926     0.040     2.444     2.445
    87   1 H        0.926     0.035     2.513     2.479
    88   1 H        0.926     0.033     2.544     2.494

molecular dipole:
                 x           y           z       tot (Debye)
 q only:        3.569      -0.503       0.207
   full:        3.660      -0.318       0.024       9.338

 projected vibrational frequencies (cm⁻¹)
eigval :       -0.00    -0.00     0.00     0.00     0.00     0.00
eigval :        4.17     8.10    13.96    19.15    25.80    35.66
eigval :       38.20    39.82    41.70    43.87    47.55    53.28
eigval :       56.80    64.16    66.54    90.18    96.43   101.06
eigval :      103.66   112.28   127.94   141.31   145.85   173.21
eigval :      184.27   191.61   202.77   215.36   225.57   240.59
eigval :      251.36   256.40   261.48   266.25   275.35   299.33
eigval :      316.09   328.74   345.55   366.19   367.90   368.29
eigval :      370.56   372.26   372.80   380.04   385.63   390.96
eigval :      400.16   409.85   415.49   431.49   442.41   457.08
eigval :      473.89   479.57   493.90   499.59   512.93   539.51
eigval :      545.00   548.25   573.66   581.80   583.80   584.72
eigval :      586.51   588.98   590.34   591.69   593.14   601.95
eigval :      607.13   620.94   624.18   628.69   644.24   647.37
eigval :      650.56   656.79   667.92   668.86   672.23   674.07
eigval :      686.33   689.12   699.77   708.25   718.60   742.82
eigval :      749.80   755.67   759.57   766.62   788.78   807.57
eigval :      810.81   817.31   820.75   825.79   831.50   843.28
eigval :      853.04   860.84   861.49   871.20   871.59   875.24
eigval :      877.48   881.91   885.35   887.10   896.54   898.60
eigval :      902.04   904.06   906.75   908.22   909.22   913.22
eigval :      921.47   922.04   923.75   927.06   928.01   929.76
eigval :      930.70   931.03   932.17   933.52   970.69   979.46
eigval :      979.69   981.58   985.06  1021.33  1048.26  1054.88
eigval :     1064.36  1065.93  1073.66  1076.65  1082.53  1083.33
eigval :     1084.45  1097.15  1101.94  1109.29  1112.19  1120.81
eigval :     1120.87  1124.28  1145.50  1153.46  1167.42  1178.33
eigval :     1178.94  1180.55  1181.03  1186.34  1195.45  1198.32
eigval :     1199.59  1201.40  1205.53  1215.89  1218.09  1228.39
eigval :     1240.78  1257.84  1262.89  1267.57  1274.51  1278.59
eigval :     1279.15  1279.76  1282.36  1285.80  1295.90  1305.50
eigval :     1316.29  1316.92  1321.59  1323.94  1326.95  1328.99
eigval :     1337.13  1345.54  1350.57  1366.12  1376.73  1387.35
eigval :     1401.25  1403.41  1419.53  1421.97  1427.71  1429.02
eigval :     1433.00  1436.95  1438.35  1447.51  1453.85  1464.29
eigval :     1466.39  1469.44  1472.68  1480.17  1484.35  1485.81
eigval :     1524.88  1547.19  1551.67  1556.59  1561.55  1575.84
eigval :     1576.62  1577.53  1581.66  1585.03  1586.55  1592.33
eigval :     1596.14  1597.68  1636.00  3066.49  3067.22  3067.80
eigval :     3068.56  3068.96  3069.75  3070.43  3072.92  3073.41
eigval :     3076.17  3076.60  3077.58  3079.61  3081.11  3081.45
eigval :     3083.82  3086.25  3086.54  3087.02  3088.18  3088.52
eigval :     3088.73  3089.19  3091.06  3092.25  3092.39  3093.58
eigval :     3094.04  3095.50  3095.59  3098.42  3101.16  3115.18

   temp. (K)  partition function   enthalpy   heat capacity  entropy
                                   cal/mol     cal/K/mol   cal/K/mol   J/K/mol
 298.15  VIB  0.124E+22            25501.400    159.540    160.985
         ROT  0.244E+09              888.752      2.981     41.357
         INT  0.301E+30            26390.153    162.521    202.341
         TR   0.179E+29             1481.254      4.968     45.497
         TOT                       27871.4065   167.4888   247.8384  1036.9558

       T/K    H(0)-H(T)+PV         H(T)/Eh          T*S/Eh         G(T)/Eh
   ------------------------------------------------------------------------
    298.15    0.444159E-01    0.712990E+00    0.117756E+00    0.595234E+00
   ------------------------------------------------------------------------

         :::::::::::::::::::::::::::::::::::::::::::::::::::::
         ::                  THERMODYNAMIC                  ::
         :::::::::::::::::::::::::::::::::::::::::::::::::::::
         :: total free energy        -136.361950113498 Eh   ::
         ::.................................................::
         :: total energy             -136.957184417153 Eh   ::
         :: zero point energy           0.668574403187 Eh   ::
         :: G(RRHO) w/o ZPVE           -0.073340099532 Eh   ::
         :: G(RRHO) contrib.            0.595234303655 Eh   ::
         :::::::::::::::::::::::::::::::::::::::::::::::::::::

           -------------------------------------------------
          | TOTAL ENERGY             -136.957184417153 Eh   |
          | TOTAL ENTHALPY           -136.244194100472 Eh   |
          | TOTAL FREE ENERGY        -136.361950113498 Eh   |
          | GRADIENT NORM               0.000055355076 Eh/α |
          | HOMO-LUMO GAP               0.351413329675 eV   |
           -------------------------------------------------

 * finished run on 2025/07/17 at 06:34:23.627
