   * xtb version 6.7.1 (edcfbbe) compiled by 'albert@albert-system' on 2024-07-22

   ID    Z sym.   atoms
    1    7 N      1, 9, 25, 31, 49, 55
    2    6 C      2-8, 10-15, 17-24, 26-30, 32-37, 39-48, 50-54, 56-61, 63-70
    3    8 O      16, 38, 62
    4    1 H      71-106

          program call               : xtb data2507/toluene/Tri-PXZ-PCN/Tri-PXZ-PCN_toluene_T1_crest.xyz --gfn 2 --uhf 2 --gbsa toluene --ohess vtight --parallel 40 --molden --ceasefiles --namespace data2507/toluene/Tri-PXZ-PCN/Tri-PXZ-PCN_toluene_T1_finalOpt
      * Solvation model:               GBSA
        Solvent                        toluene
        Solvent mass                       9.2140E+01 g/mol
          :  Hamiltonian                  GFN2-xTB          :
 * total energy  :  -178.7577191 Eh     change       -0.5298403E-08 Eh
 * total energy  :  -178.7578244 Eh     change       -0.1053253E-03 Eh
 * total energy  :  -178.7578640 Eh     change       -0.3957962E-04 Eh
 * total energy  :  -178.7578985 Eh     change       -0.3447648E-04 Eh
 * total energy  :  -178.7579211 Eh     change       -0.2259197E-04 Eh
 * total energy  :  -178.7579495 Eh     change       -0.2844101E-04 Eh
 * total energy  :  -178.7579567 Eh     change       -0.7228988E-05 Eh
 * total energy  :  -178.7579677 Eh     change       -0.1098359E-04 Eh
 * total energy  :  -178.7579751 Eh     change       -0.7358881E-05 Eh
 * total energy  :  -178.7579817 Eh     change       -0.6583533E-05 Eh
 * total energy  :  -178.7580318 Eh     change       -0.4820213E-06 Eh
 * total energy  :  -178.7580319 Eh     change       -0.1945849E-06 Eh
 * total energy  :  -178.7580321 Eh     change       -0.1684988E-06 Eh
 * total energy  :  -178.7580323 Eh     change       -0.1438631E-06 Eh
 * total energy  :  -178.7580324 Eh     change       -0.1258451E-06 Eh
 * total energy  :  -178.7580325 Eh     change       -0.1235519E-06 Eh
 * total energy  :  -178.7580327 Eh     change       -0.1436609E-06 Eh
 * total energy  :  -178.7580328 Eh     change       -0.1094795E-06 Eh
 * total energy  :  -178.7580328 Eh     change       -0.6749835E-07 Eh
   *** GEOMETRY OPTIMIZATION CONVERGED AFTER 57 ITERATIONS ***

 final structure:
================
106
 xtb: 6.7.1 (edcfbbe)
N           -2.43970541933051        3.23550724505919        0.59602856827784
C           -1.76605772674005        2.32862337624647        0.34140305269014
C           -1.00596052408621        1.19329408349741        0.08370464963778
C            0.44072508871832        1.18643411920813       -0.00034948209672
C            1.24746605402003        2.38304223684197       -0.07710430637685
C            0.74617428450888        3.61532313548825       -0.52367224453036
C            1.55710409121199        4.72647460102471       -0.59384668748254
C            2.89639746720693        4.64294988732528       -0.22225410615918
N            3.72866811390367        5.79213449101628       -0.28368904471214
C            3.55290167656707        6.83474491326312        0.61407960993925
C            2.58103263581624        6.79947669016613        1.61225502417661
C            2.43704435256560        7.85783818147999        2.49123988609698
C            3.26186771833119        8.96690966027812        2.39831939607574
C            4.24509072744382        9.01306719319193        1.42359451878123
C            4.39604075626050        7.95773540129474        0.53949648194489
O            5.39716269467047        8.05538245081367       -0.38844967310036
C            5.55729457435343        7.01817793290662       -1.26669512150017
C            6.56896684669402        7.13135855400016       -2.20588017757110
C            6.77146552475568        6.12252618599600       -3.13341136492787
C            5.95086827334524        5.00654709097909       -3.12582143813174
C            4.93841010496528        4.88541758195787       -2.19108107127267
C            4.73160073900391        5.88042851100805       -1.23748492025864
C            3.41820667267258        3.42222148102252        0.20748273043532
C            2.60798941730253        2.31503597727950        0.27368290695829
N            1.09917360887512        0.03993624215639        0.00456244540976
C            0.50594354973094       -1.14131415054228        0.01360888215227
C            1.37822395356004       -2.29147755362476        0.08585638520508
C            2.72890626980727       -2.15101090538358       -0.28056746675881
C            3.59847674957886       -3.21273345553108       -0.22177423717846
C            3.14851544983536       -4.45858024647429        0.21727188612406
N            4.04036258176967       -5.56207920702094        0.26970370170975
C            5.06992740815748       -5.58864034115698        1.19891528372738
C            5.25584988338007       -4.56909629013372        2.13072275185182
C            6.29665039795768       -4.62807968733448        3.04000257500806
C            7.16624047202470       -5.70632496533142        3.04485820968040
C            6.98539606043785       -6.73949006552432        2.13997922588857
C            5.94591103299887       -6.68821583010268        1.22607272675648
O            5.80980572475112       -7.74783268286444        0.37089744954243
C            4.78447011296999       -7.71006602061526       -0.53464696284148
C            4.65995137878160       -8.78641773768363       -1.39729669205070
C            3.65406771114104       -8.80029097388595       -2.34959888915560
C            2.78143406881426       -7.72855341421473       -2.44341965140244
C            2.89869778187114       -6.64968547621985       -1.58565017234317
C            3.89169833320193       -6.62608582440724       -0.60805836677498
C            1.82025711724804       -4.61250369063699        0.60617961923133
C            0.94961691148527       -3.54720584143195        0.54247177242611
C           -0.93836484345222       -1.22960585426509       -0.06325016623979
C           -1.63368437933108       -2.40645986962276       -0.31764710327701
N           -2.25459780060787       -3.35101919587094       -0.56928230218545
C           -1.66533144586406       -0.03753198517331        0.01126422733612
C           -3.13908847571674       -0.07982561348380        0.01141635492777
C           -3.86114304501579        0.58016594525692       -0.97803478438782
C           -5.24104177105887        0.53420978912622       -0.98698436215067
C           -5.91527235684890       -0.16672748502466        0.00558333148572
N           -7.33341759332788       -0.21239148514319        0.00178584427145
C           -7.99573614721317       -1.39798393551739       -0.29279815891029
C           -7.31582319934783       -2.56676121759128       -0.62610862086970
C           -8.01248182948879       -3.72760366652417       -0.91424165831259
C           -9.39651074900361       -3.74302624938273       -0.88262820467465
C          -10.08999980701969       -2.58434645947002       -0.57239821046211
C           -9.40082757984977       -1.41856606906628       -0.28343298603046
O          -10.14466737784369       -0.30357221536902       -0.00241626879509
C           -9.47556811238432        0.85765721449114        0.27904991584382
C          -10.23956875850549        1.97683016473968        0.56412064303719
C           -9.62346331516914        3.17818407611835        0.87538946085773
C           -8.24142913303231        3.25232493363310        0.91145449355339
C           -7.47032597723276        2.13860264949799        0.62698487243603
C           -8.07216266502608        0.92804333522523        0.29286364100469
C           -5.20271808349899       -0.82291223057577        1.00192897456284
C           -3.82255576961649       -0.78240015491988        0.99886985747076
H           -0.28271913137498        3.69722751951620       -0.83732579941173
H            1.15819620047252        5.66721450029223       -0.94509322559631
H            1.94058987895819        5.93569566129785        1.69475448498413
H            1.67525664826732        7.80921149039520        3.25365158396026
H            3.14805860678673        9.79157261530308        3.08363794903070
H            4.91012683431134        9.85695515211517        1.33178064024132
H            7.18218423576282        8.01829826496919       -2.19331256198574
H            7.56214840253018        6.21516533698273       -3.86077262716415
H            6.09409970961135        4.22222889138602       -3.85263940370152
H            4.29614256803426        4.01925715889501       -2.19535639937888
H            4.45764092286824        3.35959168225694        0.49548828201034
H            2.99742245440301        1.36798233124541        0.61255587908969
H            3.06259446533247       -1.18544641839908       -0.62657714046564
H            4.62923446002656       -3.09514174544688       -0.52345305175251
H            4.57508249388234       -3.73295741110272        2.13852413836122
H            6.42280510653660       -3.82542350712482        3.74976901261047
H            7.97851137605296       -5.75097570743928        3.75265648044075
H            7.63666981324721       -7.59887701954103        2.12653561258792
H            5.36266800473216       -9.59928345610879       -1.30634039368674
H            3.56047884592545       -9.64171298556196       -3.01741578302406
H            2.00206739688762       -7.72555314604602       -3.18942756437492
H            2.22062011811204       -5.81530606533909       -1.66959852689795
H            1.47699583910236       -5.57200861889056        0.96532161807901
H           -0.06961087654500       -3.68320843043920        0.86879086523714
H           -3.33550485158674        1.12108152114253       -1.75174872339998
H           -5.79918863689349        1.03905032177751       -1.76138742288903
H           -6.23776376632272       -2.56336174355540       -0.66249276614491
H           -7.46242266581723       -4.62076119245083       -1.16623235204157
H           -9.93889689588564       -4.64805125506316       -1.10500942118194
H          -11.16785074303179       -2.56026231974402       -0.55116544623277
H          -11.31353084430641        1.88305134010141        0.53950916278604
H          -10.22388060931381        4.04654843228922        1.09490188522473
H           -7.75115177359265        4.17946908542313        1.16423378781628
H           -6.39441488495664        2.20426793849211        0.66668501728798
H           -5.73153201135866       -1.36169247474353        1.77407219698725
H           -3.26760724666376       -1.28934570815687        1.77510616859805

          :  Hamiltonian                  GFN2-xTB          :
         :: gradient norm              0.000068813196 Eh/a0 ::
         :: HOMO-LUMO gap              0.407676903110 eV    ::
         :: SCC energy              -181.934288196964 Eh    ::
         :: -> dispersion             -0.156326064066 Eh    ::
         :: -> Gsolv                  -0.086994314740 Eh    ::
         :: repulsion energy           3.176255369144 Eh    ::

    * Orbital Energies and Occupations

         #    Occupation            Energy/Eh            Energy/eV
      -------------------------------------------------------------
         1        2.0000           -0.7481448             -20.3581
       ...           ...                  ...                  ...
       153        2.0000           -0.4115933             -11.2000
       154        2.0000           -0.4115019             -11.1975
       155        2.0000           -0.4050880             -11.0230
       156        2.0000           -0.4039082             -10.9909
       157        2.0000           -0.4038537             -10.9894
       158        2.0000           -0.4012456             -10.9184
       159        2.0000           -0.3998560             -10.8806
       160        2.0000           -0.3782054             -10.2915
       161        1.9996           -0.3623080              -9.8589
       162        1.7146           -0.3557605              -9.6807
       163        1.6797           -0.3556033              -9.6765
       164        1.6062           -0.3552984              -9.6682
       165        0.9996           -0.2844136              -7.7393 (HOMO)
       166        0.0004           -0.2694318              -7.3316 (LUMO)
       167                         -0.2532678              -6.8918
       168                         -0.2532523              -6.8913
       169                         -0.2518683              -6.8537
       170                         -0.2497109              -6.7950
       171                         -0.2433161              -6.6210
       172                         -0.2419523              -6.5839
       173                         -0.2419353              -6.5834
       174                         -0.2401625              -6.5352
       175                         -0.2312146              -6.2917
       176                         -0.2284448              -6.2163
       ...                                ...                  ...
       316                          1.1612061              31.5980
      -------------------------------------------------------------
                  HL-Gap            0.0149818 Eh            0.4077 eV

     #   Z          covCN         q      C6AA      α(0)
     1   7 N        0.911    -0.361    29.290     7.827
     2   6 C        1.913     0.104    28.513     8.624
     3   6 C        2.964    -0.045    29.113     8.850
     4   6 C        2.933     0.073    26.372     8.422
     5   6 C        2.979    -0.004    28.106     8.696
     6   6 C        2.921    -0.040    28.999     8.831
     7   6 C        2.917    -0.040    28.993     8.830
     8   6 C        2.923     0.044    27.005     8.522
     9   7 N        2.752    -0.036    21.932     6.955
    10   6 C        2.925     0.046    26.957     8.514
    11   6 C        2.921    -0.052    29.283     8.874
    12   6 C        2.918    -0.031    28.783     8.798
    13   6 C        2.919    -0.032    28.803     8.801
    14   6 C        2.917    -0.053    29.322     8.880
    15   6 C        2.884     0.128    25.189     8.228
    16   8 O        1.709    -0.238    17.944     5.719
    17   6 C        2.884     0.128    25.188     8.228
    18   6 C        2.917    -0.053    29.320     8.879
    19   6 C        2.919    -0.032    28.807     8.801
    20   6 C        2.918    -0.032    28.789     8.799
    21   6 C        2.921    -0.052    29.298     8.876
    22   6 C        2.925     0.046    26.959     8.515
    23   6 C        2.916    -0.041    29.028     8.835
    24   6 C        2.926    -0.035    28.873     8.812
    25   7 N        1.858    -0.273    27.940     7.835
    26   6 C        2.933     0.073    26.368     8.421
    27   6 C        2.979    -0.003    28.105     8.696
    28   6 C        2.926    -0.035    28.871     8.812
    29   6 C        2.916    -0.041    29.030     8.835
    30   6 C        2.923     0.045    27.002     8.521
    31   7 N        2.752    -0.035    21.928     6.955
    32   6 C        2.924     0.046    26.962     8.515
    33   6 C        2.921    -0.052    29.300     8.877
    34   6 C        2.918    -0.032    28.789     8.799
    35   6 C        2.919    -0.032    28.806     8.801
    36   6 C        2.917    -0.053    29.320     8.879
    37   6 C        2.884     0.128    25.187     8.228
    38   8 O        1.709    -0.238    17.944     5.719
    39   6 C        2.884     0.128    25.189     8.228
    40   6 C        2.917    -0.053    29.323     8.880
    41   6 C        2.919    -0.032    28.802     8.801
    42   6 C        2.918    -0.031    28.783     8.798
    43   6 C        2.921    -0.052    29.283     8.874
    44   6 C        2.924     0.046    26.959     8.515
    45   6 C        2.917    -0.040    28.993     8.830
    46   6 C        2.921    -0.040    28.994     8.830
    47   6 C        2.964    -0.045    29.114     8.850
    48   6 C        1.913     0.104    28.514     8.624
    49   7 N        0.911    -0.361    29.289     7.827
    50   6 C        3.006     0.024    27.463     8.596
    51   6 C        2.979     0.009    27.819     8.652
    52   6 C        2.925    -0.026    28.660     8.779
    53   6 C        2.920    -0.037    28.910     8.817
    54   6 C        2.924     0.062    26.614     8.460
    55   7 N        2.752    -0.044    22.089     6.980
    56   6 C        2.923     0.045    26.981     8.518
    57   6 C        2.921    -0.053    29.307     8.878
    58   6 C        2.918    -0.032    28.786     8.798
    59   6 C        2.919    -0.033    28.819     8.803
    60   6 C        2.918    -0.053    29.325     8.880
    61   6 C        2.883     0.128    25.199     8.230
    62   8 O        1.709    -0.240    17.983     5.726
    63   6 C        2.883     0.128    25.199     8.230
    64   6 C        2.918    -0.053    29.325     8.880
    65   6 C        2.919    -0.033    28.819     8.803
    66   6 C        2.918    -0.032    28.786     8.798
    67   6 C        2.921    -0.053    29.308     8.878
    68   6 C        2.923     0.045    26.982     8.518
    69   6 C        2.920    -0.037    28.909     8.817
    70   6 C        2.925    -0.026    28.659     8.779
    71   1 H        0.926     0.028     2.610     2.527
    72   1 H        0.926     0.037     2.493     2.469
    73   1 H        0.926     0.048     2.342     2.393
    74   1 H        0.926     0.052     2.296     2.370
    75   1 H        0.926     0.055     2.252     2.347
    76   1 H        0.926     0.062     2.180     2.309
    77   1 H        0.926     0.061     2.186     2.312
    78   1 H        0.926     0.055     2.254     2.348
    79   1 H        0.926     0.053     2.283     2.363
    80   1 H        0.926     0.051     2.313     2.379
    81   1 H        0.926     0.042     2.427     2.436
    82   1 H        0.926     0.051     2.308     2.376
    83   1 H        0.926     0.051     2.309     2.376
    84   1 H        0.926     0.042     2.422     2.434
    85   1 H        0.926     0.051     2.310     2.377
    86   1 H        0.926     0.053     2.282     2.363
    87   1 H        0.926     0.055     2.254     2.348
    88   1 H        0.926     0.061     2.186     2.312
    89   1 H        0.926     0.062     2.180     2.309
    90   1 H        0.926     0.055     2.252     2.347
    91   1 H        0.926     0.052     2.296     2.370
    92   1 H        0.926     0.048     2.341     2.393
    93   1 H        0.926     0.037     2.492     2.469
    94   1 H        0.926     0.028     2.611     2.527
    95   1 H        0.926     0.036     2.504     2.475
    96   1 H        0.926     0.051     2.306     2.375
    97   1 H        0.926     0.046     2.375     2.410
    98   1 H        0.926     0.052     2.290     2.366
    99   1 H        0.926     0.056     2.250     2.346
   100   1 H        0.926     0.062     2.178     2.308
   101   1 H        0.926     0.062     2.178     2.308
   102   1 H        0.926     0.056     2.250     2.346
   103   1 H        0.926     0.052     2.290     2.366
   104   1 H        0.926     0.046     2.375     2.410
   105   1 H        0.926     0.051     2.307     2.375
   106   1 H        0.926     0.036     2.504     2.475

molecular dipole:
                 x           y           z       tot (Debye)
 q only:        2.189       0.042      -0.023
   full:        2.178       0.042      -0.021       5.537

 projected vibrational frequencies (cm⁻¹)
eigval :       -0.00    -0.00    -0.00    -0.00     0.00     0.00
eigval :        5.42     8.15    10.66    11.45    12.29    12.35
eigval :       23.04    24.74    31.69    35.43    38.45    41.77
eigval :       45.37    52.57    53.01    56.93    60.78    62.41
eigval :       70.38    73.12    90.70   104.34   110.78   112.84
eigval :      113.88   115.90   120.89   133.01   140.56   159.88
eigval :      165.90   177.41   194.15   195.21   196.81   223.68
eigval :      230.18   239.96   241.41   244.43   247.57   248.73
eigval :      254.40   267.98   272.16   277.41   289.53   301.44
eigval :      338.48   339.83   345.85   356.31   358.90   371.30
eigval :      374.48   378.34   380.60   385.16   389.35   390.83
eigval :      398.07   400.66   411.33   412.32   419.32   424.27
eigval :      430.16   431.18   431.29   433.50   448.48   451.62
eigval :      458.47   461.07   469.05   479.82   496.70   500.02
eigval :      500.67   501.27   501.47   508.38   523.64   527.13
eigval :      527.27   542.46   542.78   545.45   553.37   555.16
eigval :      580.26   583.29   585.09   587.16   587.41   598.46
eigval :      603.64   605.26   617.36   620.49   620.81   649.38
eigval :      653.01   659.37   663.88   665.78   666.46   666.81
eigval :      668.19   669.50   670.31   679.82   682.34   690.77
eigval :      691.35   705.09   705.24   772.42   775.98   777.16
eigval :      778.40   778.94   779.73   781.62   789.84   799.09
eigval :      801.01   808.33   809.12   820.20   830.27   854.60
eigval :      854.67   854.81   855.09   859.50   865.74   867.83
eigval :      868.13   868.58   868.70   870.35   871.07   900.56
eigval :      901.88   902.59   902.78   903.40   904.03   907.04
eigval :      907.40   909.11   909.59   911.14   915.06   916.26
eigval :      916.69   917.34   918.11   918.60   918.94   919.37
eigval :      920.85   921.74   922.18   923.43   924.46   984.11
eigval :      992.47  1013.47  1020.13  1049.98  1083.01  1083.40
eigval :     1083.72  1084.47  1085.49  1085.87  1110.86  1111.25
eigval :     1111.88  1117.92  1118.33  1120.02  1130.87  1132.82
eigval :     1133.98  1154.58  1165.40  1168.23  1168.99  1171.00
eigval :     1171.64  1172.06  1176.82  1179.94  1181.50  1183.28
eigval :     1190.39  1194.03  1202.57  1203.49  1204.90  1205.28
eigval :     1217.59  1220.30  1221.35  1236.53  1236.65  1237.51
eigval :     1252.40  1253.74  1255.65  1258.86  1262.33  1263.26
eigval :     1265.12  1273.88  1303.84  1304.70  1308.05  1308.51
eigval :     1308.82  1309.69  1311.46  1314.39  1315.10  1321.22
eigval :     1324.66  1325.70  1340.41  1340.67  1347.16  1347.68
eigval :     1371.65  1384.73  1387.84  1402.97  1410.94  1414.89
eigval :     1418.04  1418.40  1419.03  1428.05  1438.92  1439.36
eigval :     1439.49  1443.67  1443.73  1449.49  1464.46  1468.65
eigval :     1469.05  1477.05  1485.93  1491.15  1517.37  1519.93
eigval :     1555.68  1556.01  1558.07  1563.24  1563.29  1563.50
eigval :     1565.93  1568.83  1569.69  1570.49  1575.12  1580.79
eigval :     1583.76  1584.54  1589.05  1594.71  2250.29  2292.56
eigval :     3077.08  3077.28  3077.56  3078.99  3079.23  3079.66
eigval :     3091.56  3093.42  3094.31  3094.37  3094.65  3094.74
eigval :     3094.92  3095.47  3102.03  3102.07  3102.16  3102.38
eigval :     3102.48  3102.52  3103.68  3104.99  3105.79  3106.98
eigval :     3109.74  3109.90  3110.01  3110.07  3110.25  3110.35
eigval :     3113.76  3113.77  3113.99  3114.04  3114.10  3114.37

   temp. (K)  partition function   enthalpy   heat capacity  entropy
                                   cal/mol     cal/K/mol   cal/K/mol   J/K/mol
 298.15  VIB  0.130E+29            33335.424    204.897    210.879
         ROT  0.415E+09              888.752      2.981     42.415
         INT  0.539E+37            34224.177    207.878    253.293
         TR   0.262E+29             1481.254      4.968     46.250
         TOT                       35705.4304   212.8459   299.5430  1253.2879

       T/K    H(0)-H(T)+PV         H(T)/Eh          T*S/Eh         G(T)/Eh
   ------------------------------------------------------------------------
    298.15    0.569002E-01    0.835750E+00    0.142323E+00    0.693427E+00
   ------------------------------------------------------------------------

         :::::::::::::::::::::::::::::::::::::::::::::::::::::
         ::                  THERMODYNAMIC                  ::
         :::::::::::::::::::::::::::::::::::::::::::::::::::::
         :: total free energy        -178.064605379472 Eh   ::
         ::.................................................::
         :: total energy             -178.758032827429 Eh   ::
         :: zero point energy           0.778849770619 Eh   ::
         :: G(RRHO) w/o ZPVE           -0.085422322662 Eh   ::
         :: G(RRHO) contrib.            0.693427447956 Eh   ::
         :::::::::::::::::::::::::::::::::::::::::::::::::::::

           -------------------------------------------------
          | TOTAL ENERGY             -178.758032827429 Eh   |
          | TOTAL ENTHALPY           -177.922282831568 Eh   |
          | TOTAL FREE ENERGY        -178.064605379472 Eh   |
          | GRADIENT NORM               0.000066322237 Eh/α |
          | HOMO-LUMO GAP               0.407675571452 eV   |
           -------------------------------------------------

 * finished run on 2025/09/08 at 08:47:36.130
