   * xtb version 6.7.1 (edcfbbe) compiled by 'albert@albert-system' on 2024-07-22

   ID    Z sym.   atoms
    1    7 N      1, 9, 25, 31, 49, 55
    2    6 C      2-8, 10-15, 17-24, 26-30, 32-37, 39-48, 50-54, 56-61, 63-70
    3    8 O      16, 38, 62
    4    1 H      71-106

          program call               : xtb data2507/toluene/Tri-PXZ-PCN/Tri-PXZ-PCN.xyz --gfn 2 --gbsa toluene --ohess vtight --parallel 40 --molden --ceasefiles --namespace data2507/toluene/Tri-PXZ-PCN/Tri-PXZ-PCN_toluene_S0_preOpt
      * Solvation model:               GBSA
        Solvent                        toluene
        Solvent mass                       9.2140E+01 g/mol
          :  Hamiltonian                  GFN2-xTB          :
 * total energy  :  -178.7735677 Eh     change       -0.3427488E-08 Eh
 * total energy  :  -178.7902655 Eh     change       -0.1669778E-01 Eh
 * total energy  :  -178.7956549 Eh     change       -0.5389467E-02 Eh
 * total energy  :  -178.7975927 Eh     change       -0.1937725E-02 Eh
 * total energy  :  -178.7991560 Eh     change       -0.1563303E-02 Eh
 * total energy  :  -178.8003565 Eh     change       -0.1200505E-02 Eh
 * total energy  :  -178.8014379 Eh     change       -0.1081390E-02 Eh
 * total energy  :  -178.8024037 Eh     change       -0.9658723E-03 Eh
 * total energy  :  -178.8030987 Eh     change       -0.6949405E-03 Eh
 * total energy  :  -178.8034972 Eh     change       -0.3984925E-03 Eh
 * total energy  :  -178.8096029 Eh     change       -0.1621283E-06 Eh
 * total energy  :  -178.8096031 Eh     change       -0.1316765E-06 Eh
 * total energy  :  -178.8096032 Eh     change       -0.1282956E-06 Eh
 * total energy  :  -178.8096034 Eh     change       -0.1791324E-06 Eh
 * total energy  :  -178.8096036 Eh     change       -0.2084822E-06 Eh
 * total energy  :  -178.8096038 Eh     change       -0.1844434E-06 Eh
 * total energy  :  -178.8096039 Eh     change       -0.1446294E-06 Eh
 * total energy  :  -178.8096040 Eh     change       -0.1035846E-06 Eh
 * total energy  :  -178.8096041 Eh     change       -0.9669009E-07 Eh
   *** GEOMETRY OPTIMIZATION CONVERGED AFTER 118 ITERATIONS ***

 final structure:
================
106
 xtb: 6.7.1 (edcfbbe)
N           -2.25618880424899        3.31312438840793        0.58323982563252
C           -1.66763372473657        2.36522122749966        0.30793543325595
C           -0.95455859224351        1.17721787360193        0.05398980552320
C            0.45772556245748        1.15897053748374       -0.03109351278356
C            1.26383744658229        2.37376666133222       -0.11667070327510
C            0.80634371585334        3.52093664002298       -0.76654662701946
C            1.59698857151742        4.64855754522118       -0.83430620411929
C            2.86515473327442        4.65724499358811       -0.25427746878678
N            3.66367869277485        5.81347509581416       -0.31172369103867
C            3.22281594337484        7.01298042008067        0.25958741590266
C            2.02325153185060        7.11004532936487        0.95538344749897
C            1.61980401446330        8.31301226310155        1.51448808637245
C            2.41253815165716        9.43771278972300        1.40046079658419
C            3.62922168245661        9.34986724770927        0.74061737391047
C            4.03637704957690        8.15138114721336        0.18280139546492
O            5.27109893821933        8.13799435141743       -0.42124560460781
C            5.69092544128238        6.95266533853477       -0.97631424618671
C            6.92780386970531        6.95838480206220       -1.59562920351669
C            7.40742118235298        5.81276900626662       -2.21287722245733
C            6.63062987368793        4.67142263880246       -2.22258205340542
C            5.39129271729210        4.66068241266051       -1.60095857803461
C            4.91142463892619        5.78867440670572       -0.94531943851036
C            3.33546593215160        3.50512520988291        0.37691078615437
C            2.54725692657170        2.37731161695714        0.43664773723952
N            1.12570672944654        0.01610040526997       -0.01182396377925
C            0.50438910464540       -1.15267625539036        0.01120563593773
C            1.35998397162504       -2.33313250563717        0.09820255123789
C            2.63956984947666       -2.28675870759042       -0.46192700900358
C            3.47532176461681       -3.37948841792922       -0.39703566774136
C            3.05815083749467       -4.54466700591149        0.24743655051818
N            3.90732286196145       -5.66371185163638        0.31364103762068
C            5.15627870498135       -5.57543940183565        0.93935410206413
C            5.58761913593619       -4.42023545489450        1.58124650247362
C            6.82975386244917       -4.36794059298028        2.19510393176542
C            7.65804170052933       -5.47252549301300        2.19190552593743
C            7.22796876448290       -6.64494140615006        1.58866193829259
C            5.98864358796585       -6.70201553202490        0.97686646605641
O            5.62067335253710       -7.91070944016944        0.43563418830141
C            4.38447674913531       -7.98668229354284       -0.16073281148937
C            4.03015596749281       -9.20803515742609       -0.70481716167962
C            2.81495822696866       -9.35860772125740       -1.35592277727396
C            1.97012781493788       -8.27309060584911       -1.47526921677778
C            2.32079613680713       -7.04726995724656       -0.93030332224201
C            3.51873542641341       -6.88784724040297       -0.24323733727454
C            1.79309549713594       -4.58551834368397        0.83281519080651
C            0.95424699992133       -3.49364461957135        0.75859328116598
C           -0.90626322456731       -1.22834636442677       -0.06914641559201
C           -1.57080043284221       -2.44538370954504       -0.31705973236677
N           -2.12056952396449       -3.41807862703819       -0.58601786518935
C           -1.64983115048712       -0.04006389999228       -0.00725391907492
C           -3.11573148024822       -0.06837684199087       -0.00603543128165
C           -3.83764923164789        0.73898307800548       -0.88372682767075
C           -5.21620816530549        0.70868484025487       -0.88855425335447
C           -5.90302789988531       -0.11881999384095       -0.00230647443062
N           -7.31028535718248       -0.14399070953710       -0.00014008546502
C           -8.00130428273274       -1.32588211376098       -0.29000129675537
C           -7.35027265466729       -2.50025575324737       -0.64895047996160
C           -8.06719605923137       -3.65283047808853       -0.93324755110162
C           -9.44644075214815       -3.64975343973121       -0.87596575251921
C          -10.11317761276368       -2.47670405408506       -0.55391758306035
C           -9.40241659677470       -1.32445262192190       -0.27156058189511
O          -10.13665460361066       -0.19487285923049        0.00434238951218
C           -9.44264471736921        0.96037188776234        0.27819334218306
C          -10.19359957915721        2.08624707805951        0.56288803827256
C           -9.56858026796568        3.28242302361432        0.88350657139374
C           -8.19016602144014        3.33513674257597        0.93660065045481
C           -7.43301587579528        2.20920063636428        0.64978142062010
C           -8.04242376298369        1.01224562776526        0.29228471568843
C           -5.18425385454207       -0.92125454408345        0.88167493893756
C           -3.80548159733919       -0.90164490031928        0.87320289611289
H           -0.15823972462754        3.52452201350856       -1.25105033533743
H            1.24108993305994        5.52798966684868       -1.34966414682167
H            1.39968859323592        6.23764552626531        1.07052519135842
H            0.68005417218515        8.35765042423817        2.04309371528182
H            2.10141269870815       10.37725978819030        1.82908088932258
H            4.28430518761138       10.20227033145445        0.65135634769354
H            7.49702277492173        7.87467114109182       -1.58832941781762
H            8.37455334568718        5.82613517376911       -2.69017429189919
H            6.97877399061300        3.77817640232115       -2.71805692491315
H            4.78859535491842        3.76727575055009       -1.63492984727120
H            4.31615467574591        3.50871791676373        0.82843987667777
H            2.90067848630054        1.48667221210975        0.93219663685994
H            2.95254916489685       -1.38588385120949       -0.96605608955828
H            4.45296682633105       -3.34530772720407       -0.85382182746544
H            4.94487637958568       -3.55498041667667        1.61035796467086
H            7.13939715299499       -3.45490167776452        2.67985894292802
H            8.62744191918644       -5.43653413845563        2.66341540147335
H            7.83842443035439       -7.53431057656366        1.58673282300085
H            4.72492265383275      -10.02798966298645       -0.61180185340546
H            2.54561074244654      -10.31562026909077       -1.77395461596370
H            1.03002582345588       -8.36640897301840       -1.99683107975064
H            1.65675189617452       -6.20592416493137       -1.04993963093387
H            1.47789945027746       -5.47462025645839        1.35794646518030
H           -0.00754210631668       -3.53447041945736        1.24691631272884
H           -3.31500939636935        1.36903933098608       -1.58844984270798
H           -5.76938066540419        1.32137982137802       -1.58420379078018
H           -6.27378669173390       -2.51629035974796       -0.71587070495279
H           -7.53234097052883       -4.55046076549894       -1.20286790873043
H          -10.00938944636434       -4.54425112544784       -1.09101700541217
H          -11.19047514254747       -2.43226715168132       -0.52116434506828
H          -11.26869368553101        2.00298355176099        0.53333590844283
H          -10.16266408121183        4.15607713893501        1.10053625033739
H           -7.68724312948916        4.25140264091936        1.20505033549016
H           -6.35759756746162        2.26407331856721        0.71350947728992
H           -5.71303685052961       -1.55341789777393        1.57888015128290
H           -3.25849303153467       -1.51258506383301        1.57624207058463

          :  Hamiltonian                  GFN2-xTB          :
         :: gradient norm              0.000064526724 Eh/a0 ::
         :: HOMO-LUMO gap              0.970036696420 eV    ::
         :: SCC energy              -182.000758244618 Eh    ::
         :: -> dispersion             -0.156304068172 Eh    ::
         :: -> Gsolv                  -0.076179993391 Eh    ::
         :: repulsion energy           3.191154130339 Eh    ::

    * Orbital Energies and Occupations

         #    Occupation            Energy/Eh            Energy/eV
      -------------------------------------------------------------
         1        2.0000           -0.7331029             -19.9487
       ...           ...                  ...                  ...
       152        2.0000           -0.4188972             -11.3988
       153        2.0000           -0.4180027             -11.3744
       154        2.0000           -0.4158619             -11.3162
       155        2.0000           -0.4158168             -11.3150
       156        2.0000           -0.4150876             -11.2951
       157        2.0000           -0.4133047             -11.2466
       158        2.0000           -0.3985698             -10.8456
       159        2.0000           -0.3936511             -10.7118
       160        2.0000           -0.3935474             -10.7090
       161        2.0000           -0.3928696             -10.6905
       162        2.0000           -0.3483553              -9.4792
       163        2.0000           -0.3479282              -9.4676
       164        2.0000           -0.3471586              -9.4467 (HOMO)
       165                         -0.3115103              -8.4766 (LUMO)
       166                         -0.3014957              -8.2041
       167                         -0.2654885              -7.2243
       168                         -0.2496528              -6.7934
       169                         -0.2457857              -6.6882
       170                         -0.2456819              -6.6853
       171                         -0.2423652              -6.5951
       172                         -0.2417160              -6.5774
       173                         -0.2417119              -6.5773
       174                         -0.2407920              -6.5523
       175                         -0.2366884              -6.4406
       ...                                ...                  ...
       316                          1.1428265              31.0979
      -------------------------------------------------------------
                  HL-Gap            0.0356483 Eh            0.9700 eV

     #   Z          covCN         q      C6AA      α(0)
     1   7 N        0.911    -0.272    27.026     7.519
     2   6 C        1.909     0.119    28.168     8.571
     3   6 C        2.970    -0.015    28.379     8.738
     4   6 C        2.946     0.106    25.661     8.308
     5   6 C        2.981    -0.000    28.034     8.685
     6   6 C        2.921    -0.027    28.674     8.781
     7   6 C        2.920    -0.038    28.947     8.823
     8   6 C        2.920     0.071    26.412     8.428
     9   7 N        2.750    -0.066    22.511     7.047
    10   6 C        2.921     0.041    27.079     8.534
    11   6 C        2.924    -0.059    29.471     8.903
    12   6 C        2.919    -0.038    28.946     8.823
    13   6 C        2.919    -0.039    28.979     8.828
    14   6 C        2.919    -0.057    29.420     8.895
    15   6 C        2.883     0.123    25.289     8.244
    16   8 O        1.708    -0.268    18.448     5.799
    17   6 C        2.883     0.124    25.286     8.244
    18   6 C        2.920    -0.057    29.417     8.894
    19   6 C        2.919    -0.040    28.982     8.828
    20   6 C        2.919    -0.038    28.952     8.824
    21   6 C        2.924    -0.060    29.488     8.905
    22   6 C        2.921     0.041    27.079     8.534
    23   6 C        2.919    -0.039    28.958     8.824
    24   6 C        2.925    -0.024    28.593     8.769
    25   7 N        1.857    -0.242    27.165     7.725
    26   6 C        2.946     0.106    25.661     8.308
    27   6 C        2.981    -0.000    28.034     8.685
    28   6 C        2.925    -0.024    28.593     8.769
    29   6 C        2.919    -0.039    28.958     8.824
    30   6 C        2.920     0.071    26.413     8.428
    31   7 N        2.750    -0.066    22.511     7.047
    32   6 C        2.921     0.041    27.079     8.534
    33   6 C        2.924    -0.060    29.488     8.905
    34   6 C        2.919    -0.038    28.953     8.824
    35   6 C        2.919    -0.040    28.982     8.828
    36   6 C        2.920    -0.057    29.417     8.894
    37   6 C        2.883     0.124    25.286     8.244
    38   8 O        1.708    -0.268    18.448     5.799
    39   6 C        2.883     0.123    25.289     8.244
    40   6 C        2.919    -0.057    29.420     8.895
    41   6 C        2.919    -0.039    28.978     8.828
    42   6 C        2.919    -0.038    28.946     8.823
    43   6 C        2.924    -0.059    29.471     8.903
    44   6 C        2.921     0.041    27.079     8.534
    45   6 C        2.920    -0.038    28.948     8.823
    46   6 C        2.921    -0.027    28.673     8.781
    47   6 C        2.970    -0.015    28.379     8.738
    48   6 C        1.909     0.119    28.168     8.571
    49   7 N        0.911    -0.272    27.023     7.518
    50   6 C        2.996     0.035    27.195     8.554
    51   6 C        2.978     0.001    27.997     8.679
    52   6 C        2.923    -0.027    28.667     8.780
    53   6 C        2.921    -0.038    28.940     8.822
    54   6 C        2.921     0.071    26.406     8.427
    55   7 N        2.751    -0.070    22.606     7.062
    56   6 C        2.921     0.042    27.069     8.532
    57   6 C        2.923    -0.060    29.482     8.904
    58   6 C        2.919    -0.038    28.950     8.823
    59   6 C        2.919    -0.040    28.993     8.830
    60   6 C        2.920    -0.057    29.427     8.896
    61   6 C        2.882     0.123    25.299     8.246
    62   8 O        1.708    -0.269    18.466     5.802
    63   6 C        2.882     0.123    25.299     8.246
    64   6 C        2.920    -0.057    29.427     8.896
    65   6 C        2.919    -0.040    28.993     8.830
    66   6 C        2.919    -0.038    28.950     8.823
    67   6 C        2.923    -0.060    29.481     8.904
    68   6 C        2.921     0.042    27.069     8.532
    69   6 C        2.921    -0.038    28.940     8.822
    70   6 C        2.923    -0.027    28.668     8.780
    71   1 H        0.926     0.041     2.430     2.437
    72   1 H        0.926     0.053     2.284     2.363
    73   1 H        0.926     0.040     2.444     2.444
    74   1 H        0.926     0.043     2.409     2.427
    75   1 H        0.926     0.044     2.395     2.420
    76   1 H        0.926     0.050     2.321     2.383
    77   1 H        0.926     0.049     2.328     2.386
    78   1 H        0.926     0.044     2.397     2.421
    79   1 H        0.926     0.044     2.397     2.421
    80   1 H        0.926     0.043     2.410     2.428
    81   1 H        0.926     0.057     2.237     2.339
    82   1 H        0.926     0.063     2.160     2.298
    83   1 H        0.926     0.063     2.161     2.299
    84   1 H        0.926     0.057     2.238     2.339
    85   1 H        0.926     0.043     2.410     2.428
    86   1 H        0.926     0.044     2.397     2.421
    87   1 H        0.926     0.044     2.397     2.421
    88   1 H        0.926     0.049     2.328     2.386
    89   1 H        0.926     0.050     2.322     2.383
    90   1 H        0.926     0.044     2.395     2.420
    91   1 H        0.926     0.043     2.409     2.427
    92   1 H        0.926     0.040     2.443     2.444
    93   1 H        0.926     0.053     2.284     2.363
    94   1 H        0.926     0.041     2.430     2.438
    95   1 H        0.926     0.041     2.435     2.440
    96   1 H        0.926     0.054     2.270     2.356
    97   1 H        0.926     0.039     2.462     2.454
    98   1 H        0.926     0.043     2.405     2.425
    99   1 H        0.926     0.044     2.394     2.420
   100   1 H        0.926     0.050     2.323     2.383
   101   1 H        0.926     0.050     2.323     2.383
   102   1 H        0.926     0.044     2.394     2.420
   103   1 H        0.926     0.043     2.405     2.425
   104   1 H        0.926     0.039     2.462     2.454
   105   1 H        0.926     0.054     2.270     2.356
   106   1 H        0.926     0.041     2.435     2.440

molecular dipole:
                 x           y           z       tot (Debye)
 q only:        1.535       0.032      -0.006
   full:        1.485       0.031      -0.007       3.775

 projected vibrational frequencies (cm⁻¹)
eigval :       -0.00    -0.00    -0.00    -0.00     0.00     0.00
eigval :        8.39     9.50    10.87    11.52    12.62    14.98
eigval :       22.62    25.06    26.62    33.32    34.17    45.68
eigval :       49.26    50.98    57.94    59.42    64.04    70.66
eigval :       75.04    83.73    96.13   103.22   111.49   117.41
eigval :      120.05   120.59   126.45   138.57   140.41   162.11
eigval :      167.26   184.03   195.15   197.71   200.04   221.96
eigval :      233.04   241.16   242.18   246.39   253.24   254.25
eigval :      256.06   267.88   269.98   273.44   294.16   294.78
eigval :      327.15   348.64   349.20   356.96   363.06   367.44
eigval :      377.43   383.67   384.72   385.57   387.27   390.79
eigval :      399.99   401.19   410.55   411.97   422.06   423.81
eigval :      431.85   432.01   432.64   433.08   445.24   446.37
eigval :      448.41   480.34   481.77   487.09   491.36   500.48
eigval :      508.09   508.41   509.10   521.67   521.98   522.03
eigval :      534.31   546.71   547.70   548.25   559.89   564.95
eigval :      585.55   587.74   588.20   588.73   594.01   604.07
eigval :      605.75   618.07   623.62   630.59   650.07   651.34
eigval :      656.27   658.10   660.00   660.16   660.47   660.86
eigval :      661.42   663.02   678.78   689.38   693.40   705.17
eigval :      707.88   710.25   734.27   775.55   777.01   778.21
eigval :      778.67   779.22   779.61   780.44   791.29   798.97
eigval :      806.38   823.16   824.37   825.21   836.65   853.32
eigval :      853.63   853.78   862.61   863.63   864.44   867.20
eigval :      867.51   867.91   872.81   874.27   876.54   897.59
eigval :      898.67   899.00   899.76   899.77   900.07   910.43
eigval :      912.42   913.57   913.63   914.49   915.35   915.43
eigval :      915.61   915.89   916.29   916.78   925.08   925.76
eigval :      926.10   928.19   932.61   933.50   934.95   986.56
eigval :      996.30  1015.56  1027.19  1064.00  1088.08  1089.44
eigval :     1090.03  1090.78  1090.87  1092.71  1106.25  1106.41
eigval :     1106.89  1117.97  1118.15  1118.91  1133.14  1133.80
eigval :     1138.57  1166.67  1168.48  1168.96  1171.03  1172.94
eigval :     1173.30  1180.72  1181.39  1181.78  1183.09  1186.46
eigval :     1190.48  1193.53  1198.82  1199.25  1199.37  1208.29
eigval :     1221.13  1223.35  1227.01  1240.82  1242.10  1242.41
eigval :     1259.43  1259.72  1260.94  1261.85  1262.25  1263.52
eigval :     1267.72  1279.91  1303.63  1303.80  1303.96  1305.71
eigval :     1307.05  1308.73  1311.20  1313.99  1316.73  1331.32
eigval :     1331.72  1332.02  1346.16  1350.37  1351.05  1368.51
eigval :     1384.09  1388.22  1405.13  1406.37  1410.89  1421.66
eigval :     1421.88  1422.06  1440.44  1440.49  1440.55  1458.36
eigval :     1477.04  1477.20  1477.59  1478.98  1481.32  1486.36
eigval :     1491.49  1500.40  1500.78  1502.85  1549.43  1550.65
eigval :     1552.75  1566.46  1566.61  1566.75  1578.01  1578.14
eigval :     1578.78  1579.76  1581.45  1583.32  1588.25  1588.59
eigval :     1589.58  1600.18  1600.29  1601.24  2339.11  2342.87
eigval :     3081.04  3083.10  3087.25  3087.91  3087.95  3088.32
eigval :     3088.78  3088.79  3089.15  3089.67  3090.90  3090.99
eigval :     3095.88  3096.15  3096.77  3097.35  3097.76  3097.82
eigval :     3097.92  3098.36  3099.34  3099.51  3104.16  3104.51
eigval :     3104.77  3105.55  3106.10  3106.60  3106.88  3106.91
eigval :     3109.15  3109.35  3109.93  3110.34  3111.18  3111.62

   temp. (K)  partition function   enthalpy   heat capacity  entropy
                                   cal/mol     cal/K/mol   cal/K/mol   J/K/mol
 298.15  VIB  0.313E+28            33101.339    204.193    208.306
         ROT  0.413E+09              888.752      2.981     42.407
         INT  0.130E+37            33990.091    207.174    250.713
         TR   0.262E+29             1481.254      4.968     46.250
         TOT                       35471.3451   212.1422   296.9630  1242.4931

       T/K    H(0)-H(T)+PV         H(T)/Eh          T*S/Eh         G(T)/Eh
   ------------------------------------------------------------------------
    298.15    0.565272E-01    0.838348E+00    0.141097E+00    0.697251E+00
   ------------------------------------------------------------------------

         :::::::::::::::::::::::::::::::::::::::::::::::::::::
         ::                  THERMODYNAMIC                  ::
         :::::::::::::::::::::::::::::::::::::::::::::::::::::
         :: total free energy        -178.112352945491 Eh   ::
         ::.................................................::
         :: total energy             -178.809604113962 Eh   ::
         :: zero point energy           0.781820676299 Eh   ::
         :: G(RRHO) w/o ZPVE           -0.084569507827 Eh   ::
         :: G(RRHO) contrib.            0.697251168471 Eh   ::
         :::::::::::::::::::::::::::::::::::::::::::::::::::::

           -------------------------------------------------
          | TOTAL ENERGY             -178.809604113962 Eh   |
          | TOTAL ENTHALPY           -177.971256251135 Eh   |
          | TOTAL FREE ENERGY        -178.112352945491 Eh   |
          | GRADIENT NORM               0.000064397496 Eh/α |
          | HOMO-LUMO GAP               0.970039631532 eV   |
           -------------------------------------------------

 * finished run on 2025/09/08 at 08:21:03.670
