   * xtb version 6.7.1 (edcfbbe) compiled by 'albert@albert-system' on 2024-07-22

   ID    Z sym.   atoms
    1    7 N      1, 9, 25, 31, 49, 55
    2    6 C      2-8, 10-15, 17-24, 26-30, 32-37, 39-48, 50-54, 56-61, 63-70
    3    8 O      16, 38, 62
    4    1 H      71-106

          program call               : xtb data2507/toluene/Tri-PXZ-PCN/Tri-PXZ-PCN_toluene_S0_finalOpt.xtbopt.xyz --gfn 2 --uhf 2 --gbsa toluene --ohess vtight --parallel 40 --molden --ceasefiles --namespace data2507/toluene/Tri-PXZ-PCN/Tri-PXZ-PCN_toluene_T1_preOpt
      * Solvation model:               GBSA
        Solvent                        toluene
        Solvent mass                       9.2140E+01 g/mol
          :  Hamiltonian                  GFN2-xTB          :
 * total energy  :  -178.7525734 Eh     change       -0.1481538E-07 Eh
 * total energy  :  -178.7554174 Eh     change       -0.2843935E-02 Eh
 * total energy  :  -178.7562477 Eh     change       -0.8303238E-03 Eh
 * total energy  :  -178.7563378 Eh     change       -0.9012442E-04 Eh
 * total energy  :  -178.7564504 Eh     change       -0.1126257E-03 Eh
 * total energy  :  -178.7564232 Eh     change        0.2726548E-04 Eh
 * total energy  :  -178.7565158 Eh     change       -0.9264617E-04 Eh
 * total energy  :  -178.7565856 Eh     change       -0.6973962E-04 Eh
 * total energy  :  -178.7567042 Eh     change       -0.1186628E-03 Eh
 * total energy  :  -178.7567683 Eh     change       -0.6410644E-04 Eh
 * total energy  :  -178.7580283 Eh     change       -0.3983097E-06 Eh
 * total energy  :  -178.7580287 Eh     change       -0.3811822E-06 Eh
 * total energy  :  -178.7580291 Eh     change       -0.4008589E-06 Eh
 * total energy  :  -178.7580296 Eh     change       -0.5371472E-06 Eh
 * total energy  :  -178.7580301 Eh     change       -0.4349935E-06 Eh
 * total energy  :  -178.7580305 Eh     change       -0.3907979E-06 Eh
 * total energy  :  -178.7580309 Eh     change       -0.4641913E-06 Eh
 * total energy  :  -178.7580309 Eh     change        0.3068635E-08 Eh
 * total energy  :  -178.7580309 Eh     change       -0.1438423E-09 Eh
   *** GEOMETRY OPTIMIZATION CONVERGED AFTER 123 ITERATIONS ***

 final structure:
================
106
 xtb: 6.7.1 (edcfbbe)
N           -2.47219093210494        3.22393959052713        0.51871945820200
C           -1.79284446256124        2.31714326706482        0.27968472027136
C           -1.02356507491693        1.18378186263179        0.04118846288087
C            0.42324922236944        1.18938880293027       -0.03930948298131
C            1.21776956916586        2.39349742607803       -0.12737246572104
C            0.70914824457488        3.61135878394179       -0.60399551168625
C            1.50744992594237        4.73137855649431       -0.67944937702505
C            2.84066121824647        4.67135771626702       -0.28212819281253
N            3.65970302488062        5.82976691175950       -0.34245362109996
C            3.44969007001501        6.88502038338515        0.53341238234556
C            2.44405034366421        6.86168409674219        1.49794331751955
C            2.26630213525747        7.93279109105241        2.35509404747426
C            3.09052280736922        9.04317535699008        2.27405791518498
C            4.10743457696370        9.07737773518691        1.33407526869976
C            4.29181754256922        8.00954309602322        0.47156117349177
O            5.32534292829428        8.09653426076835       -0.42123691160641
C            5.51833762327470        7.04776228116693       -1.27883676793758
C            6.56274899711765        7.15019894952036       -2.18276003464638
C            6.79904207336448        6.12976829095065       -3.08939162429821
C            5.97962124918145        5.01291409829396       -3.09649695118717
C            4.93515642772053        4.90217260802105       -2.19634373058604
C            4.69435544438503        5.90854995879670       -1.26282167260241
C            3.37037005582120        3.46396490327082        0.17522232366660
C            2.57322754434876        2.34765173476348        0.24536947341721
N            1.09321930152126        0.04991722861980       -0.01581758632106
C            0.51112257074156       -1.13672813514025        0.00984997161027
C            1.39400834912131       -2.27755107632634        0.09895074071117
C            2.74209691278800       -2.13141578784677       -0.27469186778193
C            3.62083738646065       -3.18470688385023       -0.20226715888786
C            3.18330309051426       -4.42705554772181        0.25889421495385
N            4.08505316909711       -5.52176636429603        0.32457964271500
C            5.12070603866098       -5.52280826008440        1.24733715330103
C            5.29983147260725       -4.48806010787279        2.16364703498417
C            6.34704799422717       -4.52141467556564        3.06679344373557
C            7.23015500935904       -5.58858018645723        3.08080610218395
C            7.05642426067873       -6.63649161571773        2.19164146094574
C            6.01025497066718       -6.61117193329143        1.28429249417806
O            5.88138906487064       -7.68453689302064        0.44534731927011
C            4.84873024815983       -7.67291249952007       -0.45253816487649
C            4.73056486298430       -8.76380891003973       -1.29765078610816
C            3.71754490958806       -8.80456946104114       -2.24155785371254
C            2.83150164223053       -7.74479721796630       -2.34513728766790
C            2.94241241698600       -6.65146411594592       -1.50502305090121
C            3.94250898422440       -6.60080183030780       -0.53569943298470
C            1.85818520323024       -4.58558793766017        0.65662858988606
C            0.97822492211573       -3.52889659744926        0.57890358789241
C           -0.93222432203118       -1.24016990348224       -0.06656329907993
C           -1.61492067303238       -2.42812902299953       -0.30276397162871
N           -2.22499146275040       -3.38340374007101       -0.54020197999181
C           -1.67109729539847       -0.05429690540849       -0.01135525188423
C           -3.14420340240944       -0.11108389971539       -0.00805668934212
C           -3.87555048571766        0.53362066868690       -1.00075988069612
C           -5.25506101402446        0.47512549808461       -1.00450800129724
C           -5.91934125976632       -0.22356284528981       -0.00377380684931
N           -7.33716162196210       -0.28150081363792       -0.00103813173304
C           -7.99019529365335       -1.47420438807692       -0.28704978282500
C           -7.30134807777689       -2.63659995891417       -0.62419915068083
C           -7.98881111063793       -3.80485446146273       -0.90441829781498
C           -9.37226760073255       -3.83415668873640       -0.86022305699970
C          -10.07472824995125       -2.68210744559759       -0.54537162010704
C           -9.39484361492159       -1.50895224514725       -0.26446249955752
O          -10.14710931297506       -0.40102790296973        0.02213514349435
C           -9.48701587348245        0.76719154130215        0.29618516722351
C          -10.25939935671038        1.87879581605684        0.58808502194154
C           -9.65234639283578        3.08661075346606        0.89215210995058
C           -8.27085038996195        3.17504386977961        0.91313963529246
C           -7.49134909495284        2.06895712085270        0.62175877753503
C           -8.08431944679661        0.85183875839773        0.29579205894131
C           -5.19756965939947       -0.86533994964103        0.99531093062941
C           -3.81793749067415       -0.81185926227010        0.98744219737964
H           -0.31522959984073        3.67460328701327       -0.93646463142775
H            1.10327648133416        5.66059763178607       -1.05446057253665
H            1.80417288317144        5.99681436780958        1.57262830880858
H            1.47821777747853        7.89300611886351        3.09080067548035
H            2.95064454149473        9.87777134293698        2.94232461894908
H            4.77351299889124        9.92156868822709        1.25313921315091
H            7.17403975509621        8.03827393380331       -2.16011578808185
H            7.61471682130066        6.21404302652089       -3.78964490018219
H            6.14859890882851        4.21990002469389       -3.80819845315536
H            4.29437352553182        4.03505112776729       -2.21213843286566
H            4.40549094933147        3.41922438575148        0.48155603336554
H            2.96862027653884        1.41109050027903        0.60584425580064
H            3.06618409161968       -1.16880954210180       -0.63770726193494
H            4.64939401675713       -3.06335554830756       -0.50992000974667
H            4.60860460622955       -3.66051815861389        2.16418651730075
H            6.46755240990124       -3.70772322005580        3.76487200409172
H            8.04739288224650       -5.61325946597924        3.78382800194260
H            7.71840574057766       -7.48773399131278        2.18583759061714
H            5.44348989301246       -9.56692118404903       -1.19964436811563
H            3.62889539205280       -9.65761646820485       -2.89519016496020
H            2.04633081762889       -7.76261903573828       -3.08482892675093
H            2.25379760732504       -5.82659187866448       -1.59662377319331
H            1.52472432611866       -5.54163942059098        1.03374879145624
H           -0.03832072593836       -3.66783489265748        0.91235318778472
H           -3.35749651151423        1.07276829921145       -1.78078243084614
H           -5.82050637555903        0.96864359837890       -1.78090304427220
H           -6.22369646701601       -2.62225665315065       -0.66968623262325
H           -7.43210698259151       -4.69288144959731       -1.15986893637492
H           -9.90745227568895       -4.74495852299487       -1.07637959492645
H          -11.15252684284014       -2.66910890241756       -0.51407877191458
H          -11.33254778116880        1.77402453585882        0.57471090892988
H          -10.25924748328777        3.94898073480850        1.11738086604711
H           -7.78748580843014        4.10750081605694        1.15960567854656
H           -6.41577944045924        2.14585434157707        0.64942691362020
H           -5.71892298139424       -1.40291512740784        1.77335280195310
H           -3.25578804310610       -1.30687761185914        1.76618382321299

          :  Hamiltonian                  GFN2-xTB          :
         :: gradient norm              0.000178631165 Eh/a0 ::
         :: HOMO-LUMO gap              0.401692419031 eV    ::
         :: SCC energy              -181.934231997784 Eh    ::
         :: -> dispersion             -0.156328617896 Eh    ::
         :: -> Gsolv                  -0.086995291038 Eh    ::
         :: repulsion energy           3.176201063088 Eh    ::

    * Orbital Energies and Occupations

         #    Occupation            Energy/Eh            Energy/eV
      -------------------------------------------------------------
         1        2.0000           -0.7481530             -20.3583
       ...           ...                  ...                  ...
       153        2.0000           -0.4115627             -11.1992
       154        2.0000           -0.4114764             -11.1968
       155        2.0000           -0.4051073             -11.0235
       156        2.0000           -0.4038723             -10.9899
       157        2.0000           -0.4038382             -10.9890
       158        2.0000           -0.4012488             -10.9185
       159        2.0000           -0.3998295             -10.8799
       160        2.0000           -0.3782650             -10.2931
       161        1.9996           -0.3622883              -9.8584
       162        1.7148           -0.3557536              -9.6805
       163        1.6804           -0.3555984              -9.6763
       164        1.6052           -0.3552865              -9.6678
       165        0.9996           -0.2842946              -7.7360 (HOMO)
       166        0.0004           -0.2695327              -7.3344 (LUMO)
       167                         -0.2532737              -6.8919
       168                         -0.2532455              -6.8912
       169                         -0.2518566              -6.8534
       170                         -0.2496956              -6.7946
       171                         -0.2433413              -6.6217
       172                         -0.2419464              -6.5837
       173                         -0.2419324              -6.5833
       174                         -0.2401756              -6.5355
       175                         -0.2310796              -6.2880
       176                         -0.2284717              -6.2170
       ...                                ...                  ...
       316                          1.1613667              31.6024
      -------------------------------------------------------------
                  HL-Gap            0.0147619 Eh            0.4017 eV

     #   Z          covCN         q      C6AA      α(0)
     1   7 N        0.911    -0.360    29.285     7.827
     2   6 C        1.913     0.104    28.515     8.624
     3   6 C        2.964    -0.045    29.112     8.850
     4   6 C        2.933     0.073    26.371     8.422
     5   6 C        2.979    -0.003    28.105     8.696
     6   6 C        2.921    -0.040    28.994     8.830
     7   6 C        2.917    -0.040    28.994     8.830
     8   6 C        2.923     0.044    27.003     8.522
     9   7 N        2.752    -0.036    21.930     6.955
    10   6 C        2.924     0.046    26.958     8.515
    11   6 C        2.921    -0.052    29.285     8.874
    12   6 C        2.918    -0.031    28.783     8.798
    13   6 C        2.919    -0.032    28.802     8.801
    14   6 C        2.917    -0.053    29.322     8.880
    15   6 C        2.884     0.128    25.189     8.228
    16   8 O        1.709    -0.238    17.944     5.719
    17   6 C        2.884     0.128    25.187     8.228
    18   6 C        2.917    -0.053    29.320     8.879
    19   6 C        2.919    -0.032    28.807     8.801
    20   6 C        2.918    -0.032    28.789     8.799
    21   6 C        2.921    -0.052    29.297     8.876
    22   6 C        2.925     0.046    26.961     8.515
    23   6 C        2.916    -0.041    29.028     8.835
    24   6 C        2.926    -0.035    28.871     8.812
    25   7 N        1.858    -0.273    27.944     7.835
    26   6 C        2.933     0.073    26.370     8.422
    27   6 C        2.979    -0.003    28.105     8.696
    28   6 C        2.926    -0.035    28.871     8.812
    29   6 C        2.916    -0.041    29.030     8.835
    30   6 C        2.923     0.044    27.003     8.522
    31   7 N        2.752    -0.035    21.927     6.955
    32   6 C        2.925     0.046    26.962     8.515
    33   6 C        2.921    -0.052    29.299     8.876
    34   6 C        2.918    -0.032    28.789     8.799
    35   6 C        2.919    -0.032    28.807     8.801
    36   6 C        2.917    -0.053    29.320     8.879
    37   6 C        2.884     0.128    25.187     8.228
    38   8 O        1.709    -0.238    17.944     5.719
    39   6 C        2.884     0.128    25.189     8.228
    40   6 C        2.917    -0.053    29.323     8.880
    41   6 C        2.919    -0.032    28.802     8.801
    42   6 C        2.918    -0.031    28.783     8.798
    43   6 C        2.921    -0.052    29.283     8.874
    44   6 C        2.924     0.046    26.959     8.515
    45   6 C        2.917    -0.040    28.994     8.830
    46   6 C        2.921    -0.040    28.993     8.830
    47   6 C        2.964    -0.045    29.113     8.850
    48   6 C        1.913     0.104    28.516     8.624
    49   7 N        0.911    -0.361    29.290     7.827
    50   6 C        3.005     0.024    27.465     8.597
    51   6 C        2.979     0.009    27.820     8.652
    52   6 C        2.925    -0.026    28.659     8.779
    53   6 C        2.920    -0.037    28.909     8.817
    54   6 C        2.924     0.062    26.614     8.460
    55   7 N        2.752    -0.044    22.091     6.981
    56   6 C        2.923     0.045    26.981     8.518
    57   6 C        2.921    -0.053    29.307     8.878
    58   6 C        2.918    -0.032    28.786     8.798
    59   6 C        2.919    -0.033    28.819     8.803
    60   6 C        2.918    -0.053    29.326     8.880
    61   6 C        2.883     0.128    25.199     8.230
    62   8 O        1.709    -0.240    17.984     5.726
    63   6 C        2.883     0.128    25.199     8.230
    64   6 C        2.918    -0.053    29.325     8.880
    65   6 C        2.919    -0.033    28.819     8.803
    66   6 C        2.918    -0.032    28.786     8.798
    67   6 C        2.921    -0.053    29.309     8.878
    68   6 C        2.923     0.045    26.981     8.518
    69   6 C        2.920    -0.037    28.908     8.817
    70   6 C        2.925    -0.026    28.658     8.779
    71   1 H        0.926     0.028     2.613     2.528
    72   1 H        0.926     0.037     2.488     2.467
    73   1 H        0.926     0.048     2.341     2.392
    74   1 H        0.926     0.052     2.296     2.370
    75   1 H        0.926     0.055     2.252     2.347
    76   1 H        0.926     0.062     2.180     2.309
    77   1 H        0.926     0.061     2.186     2.312
    78   1 H        0.926     0.055     2.253     2.347
    79   1 H        0.926     0.053     2.283     2.363
    80   1 H        0.926     0.051     2.313     2.378
    81   1 H        0.926     0.042     2.428     2.437
    82   1 H        0.926     0.051     2.310     2.377
    83   1 H        0.926     0.051     2.310     2.377
    84   1 H        0.926     0.042     2.423     2.434
    85   1 H        0.926     0.051     2.310     2.377
    86   1 H        0.926     0.053     2.282     2.362
    87   1 H        0.926     0.055     2.253     2.347
    88   1 H        0.926     0.061     2.186     2.312
    89   1 H        0.926     0.062     2.180     2.309
    90   1 H        0.926     0.055     2.252     2.347
    91   1 H        0.926     0.052     2.296     2.370
    92   1 H        0.926     0.048     2.341     2.393
    93   1 H        0.926     0.037     2.491     2.468
    94   1 H        0.926     0.028     2.613     2.528
    95   1 H        0.926     0.036     2.503     2.474
    96   1 H        0.926     0.051     2.305     2.374
    97   1 H        0.926     0.046     2.376     2.411
    98   1 H        0.926     0.052     2.290     2.366
    99   1 H        0.926     0.056     2.250     2.346
   100   1 H        0.926     0.062     2.178     2.308
   101   1 H        0.926     0.062     2.178     2.308
   102   1 H        0.926     0.056     2.250     2.346
   103   1 H        0.926     0.052     2.290     2.366
   104   1 H        0.926     0.046     2.376     2.410
   105   1 H        0.926     0.051     2.308     2.376
   106   1 H        0.926     0.036     2.504     2.474

molecular dipole:
                 x           y           z       tot (Debye)
 q only:        2.188       0.073       0.010
   full:        2.176       0.071       0.011       5.534

 projected vibrational frequencies (cm⁻¹)
eigval :       -0.00    -0.00     0.00     0.00     0.00     0.00
eigval :        6.55     8.60     9.68    11.34    12.21    13.27
eigval :       22.86    25.68    31.75    35.23    38.81    41.13
eigval :       44.49    51.29    53.27    57.04    60.81    62.85
eigval :       70.86    73.15    90.67   104.31   110.74   112.26
eigval :      113.49   116.30   120.21   133.38   140.42   160.16
eigval :      166.35   177.48   194.01   195.13   196.67   223.55
eigval :      230.27   239.94   241.64   244.81   247.86   248.48
eigval :      254.32   267.98   272.01   277.44   289.17   301.03
eigval :      338.13   340.47   346.01   356.13   359.11   371.26
eigval :      375.05   378.29   380.47   385.17   389.61   390.65
eigval :      398.22   400.17   411.28   412.40   419.25   424.19
eigval :      430.54   431.15   431.42   433.89   448.25   451.85
eigval :      458.20   460.81   468.81   479.36   496.35   500.45
eigval :      500.78   501.26   501.29   508.29   523.70   526.98
eigval :      527.26   542.23   542.37   545.52   553.29   555.01
eigval :      580.40   583.27   585.01   587.29   587.37   598.30
eigval :      603.69   605.14   617.19   620.50   620.67   649.36
eigval :      652.92   659.39   664.13   665.87   666.63   666.72
eigval :      668.28   669.72   670.04   679.66   682.09   690.84
eigval :      691.37   705.23   705.38   772.59   774.36   777.28
eigval :      777.45   779.80   780.76   782.58   790.00   799.12
eigval :      799.83   804.02   805.47   819.65   830.36   853.17
eigval :      854.70   854.73   854.75   858.08   865.30   867.12
eigval :      868.53   868.89   868.92   869.50   871.28   898.45
eigval :      901.71   902.04   902.83   903.33   903.61   904.73
eigval :      905.28   907.32   909.05   910.65   914.37   914.69
eigval :      915.68   916.23   917.28   917.73   919.81   920.61
eigval :      921.82   922.07   923.08   923.77   925.81   984.09
eigval :      992.43  1013.43  1020.20  1049.86  1082.75  1082.91
eigval :     1084.03  1084.34  1085.13  1085.70  1110.67  1111.14
eigval :     1111.34  1117.73  1117.87  1119.76  1131.05  1131.92
eigval :     1133.98  1154.48  1165.05  1167.38  1167.80  1170.88
eigval :     1171.36  1171.82  1176.57  1180.20  1181.46  1183.14
eigval :     1189.23  1192.99  1202.78  1204.19  1204.91  1204.93
eigval :     1218.45  1220.55  1221.44  1236.10  1236.18  1237.56
eigval :     1252.53  1253.33  1255.62  1258.71  1262.60  1263.19
eigval :     1264.65  1274.09  1303.45  1304.33  1308.04  1308.23
eigval :     1308.88  1309.67  1311.60  1314.28  1314.95  1321.33
eigval :     1324.66  1325.58  1340.22  1340.50  1347.07  1347.09
eigval :     1371.49  1384.68  1387.94  1402.91  1410.73  1414.68
eigval :     1417.83  1418.21  1418.98  1427.88  1438.81  1439.25
eigval :     1439.35  1443.59  1443.62  1449.57  1463.97  1467.91
eigval :     1469.41  1477.56  1485.78  1490.90  1517.18  1519.76
eigval :     1555.73  1555.75  1557.98  1563.23  1563.26  1563.48
eigval :     1565.89  1568.73  1569.47  1570.32  1575.03  1580.54
eigval :     1583.72  1584.79  1589.07  1594.67  2250.17  2292.60
eigval :     3077.17  3077.22  3077.74  3079.10  3079.16  3079.86
eigval :     3091.38  3093.33  3094.36  3094.41  3094.88  3095.10
eigval :     3095.21  3095.45  3102.06  3102.28  3102.43  3102.43
eigval :     3102.48  3102.59  3103.52  3104.79  3105.74  3106.59
eigval :     3109.61  3109.98  3110.11  3110.13  3110.34  3110.79
eigval :     3113.65  3113.83  3114.11  3114.21  3114.28  3114.55

   temp. (K)  partition function   enthalpy   heat capacity  entropy
                                   cal/mol     cal/K/mol   cal/K/mol   J/K/mol
 298.15  VIB  0.108E+29            33339.525    204.916    210.684
         ROT  0.415E+09              888.752      2.981     42.414
         INT  0.446E+37            34228.277    207.897    253.098
         TR   0.262E+29             1481.254      4.968     46.250
         TOT                       35709.5311   212.8654   299.3481  1252.4724

       T/K    H(0)-H(T)+PV         H(T)/Eh          T*S/Eh         G(T)/Eh
   ------------------------------------------------------------------------
    298.15    0.569068E-01    0.835671E+00    0.142230E+00    0.693441E+00
   ------------------------------------------------------------------------

         :::::::::::::::::::::::::::::::::::::::::::::::::::::
         ::                  THERMODYNAMIC                  ::
         :::::::::::::::::::::::::::::::::::::::::::::::::::::
         :: total free energy        -178.064589479655 Eh   ::
         ::.................................................::
         :: total energy             -178.758030934060 Eh   ::
         :: zero point energy           0.778764625161 Eh   ::
         :: G(RRHO) w/o ZPVE           -0.085323170756 Eh   ::
         :: G(RRHO) contrib.            0.693441454405 Eh   ::
         :::::::::::::::::::::::::::::::::::::::::::::::::::::

           -------------------------------------------------
          | TOTAL ENERGY             -178.758030934060 Eh   |
          | TOTAL ENTHALPY           -177.922359548757 Eh   |
          | TOTAL FREE ENERGY        -178.064589479655 Eh   |
          | GRADIENT NORM               0.000181774817 Eh/α |
          | HOMO-LUMO GAP               0.401691950086 eV   |
           -------------------------------------------------

 * finished run on 2025/09/08 at 08:29:27.802
