   * xtb version 6.7.1 (edcfbbe) compiled by 'albert@albert-system' on 2024-07-22

   ID    Z sym.   atoms
    1    7 N      1, 9, 25, 31, 49, 55
    2    6 C      2-8, 10-15, 17-24, 26-30, 32-37, 39-48, 50-54, 56-61, 63-70
    3    8 O      16, 38, 62
    4    1 H      71-106

          program call               : xtb data2507/toluene/Tri-PXZ-PCN/Tri-PXZ-PCN_toluene_S0_crest.xyz --gfn 2 --gbsa toluene --ohess vtight --parallel 40 --molden --ceasefiles --namespace data2507/toluene/Tri-PXZ-PCN/Tri-PXZ-PCN_toluene_S0_finalOpt
      * Solvation model:               GBSA
        Solvent                        toluene
        Solvent mass                       9.2140E+01 g/mol
          :  Hamiltonian                  GFN2-xTB          :
 * total energy  :  -178.8093757 Eh     change       -0.3740752E-08 Eh
 * total energy  :  -178.8094726 Eh     change       -0.9693140E-04 Eh
 * total energy  :  -178.8095323 Eh     change       -0.5965469E-04 Eh
 * total energy  :  -178.8095517 Eh     change       -0.1946021E-04 Eh
 * total energy  :  -178.8095633 Eh     change       -0.1154476E-04 Eh
 * total energy  :  -178.8095722 Eh     change       -0.8980302E-05 Eh
 * total energy  :  -178.8095769 Eh     change       -0.4688843E-05 Eh
 * total energy  :  -178.8095823 Eh     change       -0.5360079E-05 Eh
 * total energy  :  -178.8095847 Eh     change       -0.2444301E-05 Eh
 * total energy  :  -178.8095871 Eh     change       -0.2354835E-05 Eh
 * total energy  :  -178.8096067 Eh     change       -0.1965913E-06 Eh
 * total energy  :  -178.8096068 Eh     change       -0.1465315E-06 Eh
 * total energy  :  -178.8096070 Eh     change       -0.1603256E-06 Eh
 * total energy  :  -178.8096071 Eh     change       -0.1415381E-06 Eh
 * total energy  :  -178.8096072 Eh     change       -0.1144279E-06 Eh
 * total energy  :  -178.8096074 Eh     change       -0.1339737E-06 Eh
 * total energy  :  -178.8096076 Eh     change       -0.1782113E-06 Eh
 * total energy  :  -178.8096078 Eh     change       -0.2441622E-06 Eh
 * total energy  :  -178.8096079 Eh     change       -0.5438343E-07 Eh
   *** GEOMETRY OPTIMIZATION CONVERGED AFTER 44 ITERATIONS ***

 final structure:
================
106
 xtb: 6.7.1 (edcfbbe)
N           -2.27709933981892        3.25600394163830        0.62517938113339
C           -1.66960759171285        2.32320337360536        0.33960286720860
C           -0.93406539628259        1.15170882979728        0.07308465312801
C            0.47819531342988        1.15993452585121       -0.01265945740008
C            1.26282306274048        2.38962196795297       -0.08441299790801
C            0.78330800718687        3.53751235171870       -0.71697094640238
C            1.55391299263384        4.67960894421785       -0.77108446690305
C            2.82381531434387        4.70215429910296       -0.19528670671814
N            3.60116567007806        5.87344772558662       -0.23844031565787
C            3.14038234485251        7.05567433850997        0.35264921664250
C            1.94464860562584        7.11809490254762        1.05889273330140
C            1.52108260794436        8.30447548671717        1.63817371601716
C            2.28958450528892        9.44680303760951        1.53388778481464
C            3.50251059142627        9.39340792820559        0.86342949983018
C            3.92981865391416        8.21152352650050        0.28562268345003
O            5.15962661099469        8.23176577164897       -0.32823375048425
C            5.59887048359039        7.06311325653207       -0.90342677296798
C            6.82985024334114        7.10288767739944       -1.53313043509573
C            7.32777977821776        5.97577287596682       -2.16971284957151
C            6.57498473184213        4.81857400779688       -2.18806379547615
C            5.34151737357930        4.77373422306520       -1.55633211771757
C            4.84383430855832        5.88286640884174       -0.88213322577101
C            3.31667700000666        3.54958689287618        0.41751141821816
C            2.54806559702533        2.40768934521432        0.46444412671376
N            1.16640343747021        0.02894160342777       -0.00792653233618
C            0.56629910304543       -1.15100271264339        0.00341462125897
C            1.44427688363645       -2.31612894194908        0.07314940564907
C            2.71961504761015       -2.23850035503041       -0.49318434483122
C            3.57671041005170       -3.31539077161103       -0.44529312857048
C            3.18574373871548       -4.49554471450416        0.18824039545973
N            4.05719140796277       -5.59821385804060        0.23740883129716
C            5.30754947213560       -5.49202543216196        0.85749925266952
C            5.71935883863444       -4.33567618338265        1.51005506792815
C            6.96363088984092       -4.26538828068757        2.11774001217039
C            7.81378235709128       -5.35305741018579        2.09749946902368
C            7.40369451515857       -6.52709092163774        1.48356062908117
C            6.16228410079553       -6.60216686429547        0.87796972851075
O            5.81517610189397       -7.81201495509677        0.32559380027938
C            4.57756338823044       -7.90587833303167       -0.26532051242029
C            4.24437523243130       -9.12789031194835       -0.82112634274848
C            3.02909081712039       -9.29502307767405       -1.46805960627320
C            2.16284304127434       -8.22491413079202       -1.57173439531652
C            2.49226244136540       -6.99851009311292       -1.01494571005938
C            3.69007985430787       -6.82339052770055       -0.33152318661854
C            1.92498600879646       -4.56769628617394        0.77982930540458
C            1.06454407855384       -3.49166910942952        0.72223887218621
C           -0.84296963711064       -1.25142709457377       -0.07405430761478
C           -1.48664382574957       -2.47796803809513       -0.33007926327456
N           -2.02037674969108       -3.45822534829267       -0.60389162187845
C           -1.60737710896339       -0.07724904917648       -0.00071181599994
C           -3.07275529541177       -0.12944055835202       -0.00235732578302
C           -3.80432175585227        0.67193951146113       -0.87757380894840
C           -5.18226405818202        0.62311253076374       -0.88439175888576
C           -5.85891608389300       -0.21701084638158       -0.00222047843323
N           -7.26586625635679       -0.25774289659565        0.00024188988778
C           -7.94449493265580       -1.44456692574992       -0.29818907971603
C           -7.28109983536793       -2.60985584291669       -0.66395288435772
C           -7.98597146275845       -3.76764202500634       -0.95709586199308
C           -9.36525164517204       -3.77883307834103       -0.90195592647926
C          -10.04427572071589       -2.61487409124631       -0.57262270946707
C           -9.34557620230361       -1.45752860716234       -0.28122112899637
O          -10.09152743011375       -0.33751081489287        0.00223307313587
C           -9.40957127283136        0.82330641208344        0.28281148179899
C          -10.17225371529572        1.93985598111476        0.57299119430879
C           -9.55978693431864        3.14075384463397        0.90011246425280
C           -8.18202143934922        3.20742169542691        0.95405844928674
C           -7.41312957604278        2.09083539617761        0.66199082805510
C           -8.00996190412486        0.88947292906071        0.29808616115476
C           -5.13056584256017       -1.01501917243802        0.87785010190235
C           -3.75205304452799       -0.97709774983714        0.87106947658501
H           -0.18273443993630        3.53099923230397       -1.19848020076438
H            1.18092663376101        5.56010776185522       -1.27238201260003
H            1.33998542222965        6.23149706395188        1.16604910420610
H            0.58503286931858        8.32202049925543        2.17489112216349
H            1.96264620671066       10.37375142238822        1.97798818880456
H            4.13906589777069       10.26041461622767        0.78127974658107
H            7.38009325294382        8.03060710505919       -1.51832369668573
H            8.29018090298502        6.01597981506340       -2.65496562676112
H            6.93738431234260        3.93926871614297       -2.69807608324594
H            4.75717498983307        3.86849028922992       -1.59696526522090
H            4.29901155907883        3.56397218778797        0.86522524115846
H            2.91847217580876        1.51642040570666        0.94627904282254
H            3.01222258934245       -1.32590501239709       -0.98838550408078
H            4.55096759770139       -3.25718931838150       -0.90686228738456
H            5.05961309320835       -3.48386849996951        1.55237350013397
H            7.25760473220528       -3.35179911615034        2.61112498421943
H            8.78494452472640       -5.30297181715773        2.56408623309600
H            8.03169633130467       -7.40401862255333        1.46842187608361
H            4.95517907252879       -9.93531803292698       -0.74044438026177
H            2.77634165959266      -10.25257276084508       -1.89517058363734
H            1.22221209173008       -8.33081017407830       -2.08993780921361
H            1.81142588264952       -6.16900007506233       -1.12220278035471
H            1.63014771080401       -5.46862181191293        1.29658845501508
H            0.10624721081477       -3.55667770701151        1.21477025056308
H           -3.28917197410201        1.31249993787707       -1.57834830881148
H           -5.74288811682571        1.23170228122044       -1.57767128283395
H           -6.20440641637776       -2.61453651223144       -0.72923506889607
H           -7.44172298695505       -4.65799129096544       -1.23195091510191
H           -9.91885276348210       -4.67740412722071       -1.12416212607654
H          -11.12201288787977       -2.58160377918058       -0.54100520888430
H          -11.24641827740596        1.84563765246769        0.54247659057596
H          -10.16291196158291        4.00711789131112        1.12138903542002
H           -7.68864124955670        4.12743531156424        1.22731508581717
H           -6.33838351524236        2.15674445184852        0.72663432874220
H           -5.65170626811452       -1.65765138995834        1.57123025568424
H           -3.19762745741663       -1.58479933546205        1.57107976826078

          :  Hamiltonian                  GFN2-xTB          :
         :: gradient norm              0.000153780585 Eh/a0 ::
         :: HOMO-LUMO gap              0.967591798604 eV    ::
         :: SCC energy              -182.000778818636 Eh    ::
         :: -> dispersion             -0.156301534999 Eh    ::
         :: -> Gsolv                  -0.076192344546 Eh    ::
         :: repulsion energy           3.191170957770 Eh    ::

    * Orbital Energies and Occupations

         #    Occupation            Energy/Eh            Energy/eV
      -------------------------------------------------------------
         1        2.0000           -0.7330906             -19.9484
       ...           ...                  ...                  ...
       152        2.0000           -0.4188900             -11.3986
       153        2.0000           -0.4179762             -11.3737
       154        2.0000           -0.4158629             -11.3162
       155        2.0000           -0.4158157             -11.3149
       156        2.0000           -0.4150642             -11.2945
       157        2.0000           -0.4133357             -11.2474
       158        2.0000           -0.3985721             -10.8457
       159        2.0000           -0.3936525             -10.7118
       160        2.0000           -0.3935486             -10.7090
       161        2.0000           -0.3928469             -10.6899
       162        2.0000           -0.3483436              -9.4789
       163        2.0000           -0.3479176              -9.4673
       164        2.0000           -0.3471228              -9.4457 (HOMO)
       165                         -0.3115643              -8.4781 (LUMO)
       166                         -0.3014823              -8.2038
       167                         -0.2654959              -7.2245
       168                         -0.2496490              -6.7933
       169                         -0.2458187              -6.6891
       170                         -0.2456958              -6.6857
       171                         -0.2424633              -6.5978
       172                         -0.2417094              -6.5772
       173                         -0.2417038              -6.5771
       174                         -0.2407616              -6.5515
       175                         -0.2366995              -6.4409
       ...                                ...                  ...
       316                          1.1427383              31.0955
      -------------------------------------------------------------
                  HL-Gap            0.0355585 Eh            0.9676 eV

     #   Z          covCN         q      C6AA      α(0)
     1   7 N        0.911    -0.272    27.025     7.519
     2   6 C        1.909     0.119    28.168     8.571
     3   6 C        2.970    -0.015    28.378     8.738
     4   6 C        2.946     0.106    25.662     8.308
     5   6 C        2.981    -0.000    28.033     8.685
     6   6 C        2.921    -0.027    28.674     8.781
     7   6 C        2.920    -0.038    28.946     8.823
     8   6 C        2.920     0.071    26.412     8.428
     9   7 N        2.750    -0.066    22.512     7.047
    10   6 C        2.921     0.041    27.079     8.534
    11   6 C        2.924    -0.059    29.471     8.903
    12   6 C        2.919    -0.038    28.946     8.823
    13   6 C        2.919    -0.039    28.979     8.828
    14   6 C        2.919    -0.057    29.420     8.895
    15   6 C        2.883     0.123    25.289     8.244
    16   8 O        1.708    -0.268    18.449     5.799
    17   6 C        2.883     0.124    25.286     8.244
    18   6 C        2.919    -0.057    29.417     8.894
    19   6 C        2.919    -0.040    28.983     8.828
    20   6 C        2.919    -0.038    28.952     8.824
    21   6 C        2.924    -0.060    29.489     8.905
    22   6 C        2.921     0.041    27.078     8.533
    23   6 C        2.919    -0.038    28.957     8.824
    24   6 C        2.925    -0.024    28.592     8.769
    25   7 N        1.857    -0.242    27.165     7.725
    26   6 C        2.946     0.106    25.660     8.308
    27   6 C        2.982    -0.000    28.034     8.685
    28   6 C        2.925    -0.024    28.593     8.769
    29   6 C        2.919    -0.039    28.958     8.824
    30   6 C        2.920     0.071    26.413     8.428
    31   7 N        2.750    -0.066    22.511     7.047
    32   6 C        2.921     0.041    27.079     8.534
    33   6 C        2.924    -0.060    29.488     8.905
    34   6 C        2.919    -0.038    28.953     8.824
    35   6 C        2.919    -0.040    28.982     8.828
    36   6 C        2.920    -0.057    29.417     8.894
    37   6 C        2.883     0.124    25.286     8.244
    38   8 O        1.708    -0.268    18.448     5.799
    39   6 C        2.883     0.123    25.289     8.244
    40   6 C        2.919    -0.057    29.420     8.895
    41   6 C        2.919    -0.039    28.979     8.828
    42   6 C        2.919    -0.038    28.946     8.823
    43   6 C        2.924    -0.059    29.471     8.903
    44   6 C        2.921     0.041    27.079     8.533
    45   6 C        2.920    -0.038    28.948     8.823
    46   6 C        2.921    -0.027    28.673     8.781
    47   6 C        2.970    -0.015    28.378     8.738
    48   6 C        1.909     0.119    28.168     8.571
    49   7 N        0.911    -0.271    27.017     7.518
    50   6 C        2.996     0.036    27.194     8.554
    51   6 C        2.978     0.001    27.996     8.679
    52   6 C        2.923    -0.027    28.668     8.780
    53   6 C        2.921    -0.038    28.939     8.822
    54   6 C        2.921     0.071    26.406     8.427
    55   7 N        2.751    -0.071    22.607     7.062
    56   6 C        2.921     0.042    27.068     8.532
    57   6 C        2.923    -0.060    29.483     8.904
    58   6 C        2.919    -0.038    28.950     8.823
    59   6 C        2.919    -0.040    28.993     8.830
    60   6 C        2.920    -0.057    29.428     8.896
    61   6 C        2.882     0.123    25.300     8.246
    62   8 O        1.708    -0.269    18.467     5.802
    63   6 C        2.882     0.123    25.300     8.246
    64   6 C        2.920    -0.057    29.427     8.896
    65   6 C        2.919    -0.040    28.993     8.830
    66   6 C        2.919    -0.038    28.950     8.823
    67   6 C        2.923    -0.060    29.481     8.904
    68   6 C        2.921     0.042    27.069     8.532
    69   6 C        2.921    -0.038    28.939     8.822
    70   6 C        2.923    -0.027    28.668     8.780
    71   1 H        0.926     0.042     2.429     2.437
    72   1 H        0.926     0.053     2.285     2.364
    73   1 H        0.926     0.040     2.445     2.445
    74   1 H        0.926     0.043     2.410     2.427
    75   1 H        0.926     0.044     2.396     2.420
    76   1 H        0.926     0.050     2.322     2.383
    77   1 H        0.926     0.049     2.328     2.386
    78   1 H        0.926     0.044     2.397     2.421
    79   1 H        0.926     0.044     2.397     2.421
    80   1 H        0.926     0.043     2.410     2.428
    81   1 H        0.926     0.057     2.236     2.339
    82   1 H        0.926     0.063     2.158     2.297
    83   1 H        0.926     0.063     2.161     2.299
    84   1 H        0.926     0.057     2.238     2.339
    85   1 H        0.926     0.043     2.410     2.427
    86   1 H        0.926     0.044     2.397     2.421
    87   1 H        0.926     0.044     2.397     2.421
    88   1 H        0.926     0.049     2.328     2.386
    89   1 H        0.926     0.050     2.322     2.383
    90   1 H        0.926     0.044     2.396     2.420
    91   1 H        0.926     0.043     2.409     2.427
    92   1 H        0.926     0.040     2.443     2.444
    93   1 H        0.926     0.053     2.284     2.363
    94   1 H        0.926     0.041     2.430     2.438
    95   1 H        0.926     0.041     2.436     2.441
    96   1 H        0.926     0.054     2.270     2.356
    97   1 H        0.926     0.039     2.463     2.454
    98   1 H        0.926     0.043     2.405     2.425
    99   1 H        0.926     0.044     2.394     2.420
   100   1 H        0.926     0.050     2.323     2.384
   101   1 H        0.926     0.050     2.323     2.384
   102   1 H        0.926     0.044     2.394     2.420
   103   1 H        0.926     0.043     2.405     2.425
   104   1 H        0.926     0.039     2.462     2.454
   105   1 H        0.926     0.054     2.269     2.356
   106   1 H        0.926     0.041     2.434     2.440

molecular dipole:
                 x           y           z       tot (Debye)
 q only:        1.541       0.056      -0.012
   full:        1.491       0.055      -0.014       3.792

 projected vibrational frequencies (cm⁻¹)
eigval :       -0.00    -0.00     0.00     0.00     0.00     0.00
eigval :        8.48     9.59    11.61    12.34    13.08    15.28
eigval :       22.45    26.99    28.69    34.00    35.24    45.67
eigval :       49.19    51.07    58.00    59.63    63.85    70.70
eigval :       74.61    83.52    96.31   103.43   111.81   116.49
eigval :      120.45   121.11   125.89   138.61   140.53   162.23
eigval :      167.89   183.68   195.64   197.37   200.27   221.37
eigval :      232.84   241.37   242.45   246.82   253.53   254.34
eigval :      256.15   268.18   270.28   273.99   293.81   294.46
eigval :      326.93   348.42   349.27   356.85   363.11   367.45
eigval :      377.34   383.57   384.68   385.51   387.15   390.64
eigval :      399.96   401.19   410.57   411.89   422.22   423.92
eigval :      431.87   432.13   432.88   433.14   445.23   446.65
eigval :      448.73   480.45   481.58   487.06   491.35   500.45
eigval :      508.93   509.37   509.76   521.75   522.85   523.27
eigval :      534.17   546.68   547.68   548.20   559.82   564.70
eigval :      585.54   587.69   588.19   588.69   593.90   604.02
eigval :      605.73   618.03   623.77   630.39   649.79   651.20
eigval :      656.46   658.07   659.96   660.07   661.05   662.35
eigval :      662.46   663.33   678.88   689.40   693.37   704.67
eigval :      707.68   710.18   733.37   775.54   777.29   777.36
eigval :      778.52   779.65   781.26   781.60   791.29   799.00
eigval :      806.36   823.37   824.22   825.12   836.61   853.29
eigval :      853.85   853.86   861.97   863.29   865.07   867.38
eigval :      867.74   868.31   873.15   874.47   876.82   898.26
eigval :      898.39   899.69   899.96   900.12   900.59   910.43
eigval :      912.55   913.56   914.22   914.76   914.89   915.45
eigval :      915.70   916.28   917.38   918.05   925.07   925.66
eigval :      926.28   927.42   932.29   933.49   934.31   986.51
eigval :      996.23  1015.45  1027.01  1063.87  1089.26  1089.29
eigval :     1089.71  1090.76  1091.16  1092.55  1106.33  1106.37
eigval :     1106.82  1117.97  1118.09  1118.84  1131.57  1133.86
eigval :     1138.01  1167.55  1168.41  1168.85  1171.54  1172.82
eigval :     1173.41  1179.64  1181.12  1181.91  1182.70  1185.91
eigval :     1190.17  1193.12  1198.87  1198.98  1199.05  1208.27
eigval :     1221.11  1223.35  1227.00  1241.14  1241.52  1242.37
eigval :     1258.54  1259.41  1261.00  1261.61  1262.02  1263.38
eigval :     1267.08  1279.83  1303.64  1303.75  1303.97  1305.80
eigval :     1307.09  1308.68  1311.13  1313.94  1316.78  1331.27
eigval :     1331.76  1332.04  1346.23  1350.52  1351.04  1368.39
eigval :     1384.08  1388.11  1405.11  1406.21  1410.88  1421.79
eigval :     1422.00  1422.09  1440.54  1440.57  1440.66  1458.42
eigval :     1476.90  1477.32  1477.44  1479.02  1481.23  1486.27
eigval :     1491.53  1500.44  1500.67  1502.85  1549.50  1550.72
eigval :     1552.80  1566.51  1566.55  1566.73  1578.28  1578.33
eigval :     1578.78  1579.79  1581.48  1583.31  1588.29  1588.62
eigval :     1589.57  1600.37  1600.43  1601.25  2339.03  2342.78
eigval :     3080.97  3083.06  3087.09  3088.09  3088.16  3088.21
eigval :     3088.63  3088.65  3089.33  3089.73  3090.68  3090.96
eigval :     3096.22  3096.40  3096.77  3096.81  3097.49  3097.86
eigval :     3097.96  3098.83  3099.14  3099.38  3104.19  3104.53
eigval :     3105.04  3105.40  3106.12  3106.32  3106.76  3106.94
eigval :     3109.21  3109.53  3109.98  3110.02  3110.75  3111.49

   temp. (K)  partition function   enthalpy   heat capacity  entropy
                                   cal/mol     cal/K/mol   cal/K/mol   J/K/mol
 298.15  VIB  0.213E+28            33085.732    204.244    207.994
         ROT  0.413E+09              888.752      2.981     42.407
         INT  0.878E+36            33974.484    207.225    250.401
         TR   0.262E+29             1481.254      4.968     46.250
         TOT                       35455.7384   212.1930   296.6509  1241.1873

       T/K    H(0)-H(T)+PV         H(T)/Eh          T*S/Eh         G(T)/Eh
   ------------------------------------------------------------------------
    298.15    0.565023E-01    0.838359E+00    0.140948E+00    0.697410E+00
   ------------------------------------------------------------------------

         :::::::::::::::::::::::::::::::::::::::::::::::::::::
         ::                  THERMODYNAMIC                  ::
         :::::::::::::::::::::::::::::::::::::::::::::::::::::
         :: total free energy        -178.112197460004 Eh   ::
         ::.................................................::
         :: total energy             -178.809607860269 Eh   ::
         :: zero point energy           0.781856496369 Eh   ::
         :: G(RRHO) w/o ZPVE           -0.084446096105 Eh   ::
         :: G(RRHO) contrib.            0.697410400265 Eh   ::
         :::::::::::::::::::::::::::::::::::::::::::::::::::::

           -------------------------------------------------
          | TOTAL ENERGY             -178.809607860269 Eh   |
          | TOTAL ENTHALPY           -177.971249048199 Eh   |
          | TOTAL FREE ENERGY        -178.112197460004 Eh   |
          | GRADIENT NORM               0.000153610788 Eh/α |
          | HOMO-LUMO GAP               0.967595595048 eV   |
           -------------------------------------------------

 * finished run on 2025/09/08 at 08:28:59.438
