   * xtb version 6.7.1 (edcfbbe) compiled by 'albert@albert-system' on 2024-07-22

   ID    Z sym.   atoms
    1    6 C      1-9, 12-18, 21-31, 33, 35, 36
    2    7 N      10, 11, 19, 20
    3    8 O      32, 34
    4    1 H      37-66

          program call               : xtb data2507/toluene/OXD-7/OXD-7_toluene_S0_finalOpt.xtbopt.xyz --gfn 2 --uhf 2 --gbsa toluene --ohess vtight --parallel 40 --molden --ceasefiles --namespace data2507/toluene/OXD-7/OXD-7_toluene_T1_preOpt
      * Solvation model:               GBSA
        Solvent                        toluene
        Solvent mass                       9.2140E+01 g/mol
          :  Hamiltonian                  GFN2-xTB          :
 * total energy  :   -99.3331539 Eh     change       -0.6979832E-08 Eh
 * total energy  :   -99.3384363 Eh     change       -0.5282423E-02 Eh
 * total energy  :   -99.3400341 Eh     change       -0.1597846E-02 Eh
 * total energy  :   -99.3401108 Eh     change       -0.7671260E-04 Eh
 * total energy  :   -99.3401617 Eh     change       -0.5085920E-04 Eh
 * total energy  :   -99.3402198 Eh     change       -0.5810465E-04 Eh
 * total energy  :   -99.3399925 Eh     change        0.2273024E-03 Eh
 * total energy  :   -99.3404116 Eh     change       -0.4190981E-03 Eh
 * total energy  :   -99.3405283 Eh     change       -0.1166816E-03 Eh
 * total energy  :   -99.3396398 Eh     change        0.8884809E-03 Eh
 * total energy  :   -99.3409199 Eh     change       -0.6743428E-06 Eh
 * total energy  :   -99.3409205 Eh     change       -0.5716560E-06 Eh
 * total energy  :   -99.3409210 Eh     change       -0.4761619E-06 Eh
 * total energy  :   -99.3409214 Eh     change       -0.4013789E-06 Eh
 * total energy  :   -99.3409217 Eh     change       -0.3281022E-06 Eh
 * total energy  :   -99.3409220 Eh     change       -0.2438707E-06 Eh
 * total energy  :   -99.3409221 Eh     change       -0.1661488E-06 Eh
 * total energy  :   -99.3409222 Eh     change       -0.1149624E-06 Eh
 * total energy  :   -99.3409223 Eh     change       -0.6360830E-07 Eh
   *** GEOMETRY OPTIMIZATION CONVERGED AFTER 42 ITERATIONS ***

 final structure:
================
66
 xtb: 6.7.1 (edcfbbe)
C           -9.62082411985082       -2.36627830458246       -1.26246217050603
C           -9.33316462551936       -1.52415877760444       -0.00720710569647
C          -10.27390247823132       -0.31584091939799       -0.01430275729855
C           -9.63048168734868       -2.35922722609051        1.25049351159791
C           -7.87193599573598       -1.13459059721100       -0.00279857828827
C           -6.88443349785736       -2.14022876795057        0.00380374932743
C           -5.55018153242079       -1.84550217075427        0.00726354478838
C           -5.11707780926415       -0.49389119527581        0.00444672679800
C           -3.75263912976834       -0.18617559467297        0.00682428489422
N           -2.72936212336175       -1.05856827904331        0.01013400492472
N           -1.62225878462285       -0.40067135431207        0.00986187410101
C           -1.91054534667547        0.92160611313968        0.00661069866656
C           -1.00032867324949        1.97924786460188        0.00513304918384
C           -1.44866448864395        3.33985088501777        0.00353686184682
C           -0.53553618960498        4.36461406229764        0.00243027715279
C            0.83021702737604        4.10569411075150        0.00248669711945
C            1.28664680936962        2.76187188778834        0.00355117379858
C            2.70220491639026        2.51111278346829        0.00267777738621
N            3.65663044508136        3.40518162297955        0.00346307153586
N            4.81971260490985        2.74900176580089        0.00190477192322
C            4.54893450674511        1.47073470441980        0.00008963942843
C            5.49434062048881        0.38655304949651       -0.00248611006148
C            5.06594048608765       -0.94257561203878       -0.00673435225858
C            5.99083048637098       -1.96378059336078       -0.00922888486519
C            7.36438546396905       -1.70986859141742       -0.00736528832168
C            8.33953385440155       -2.87458010511672       -0.00974102160855
C            8.09697738313977       -3.72945424203681        1.24388532226136
C            8.10169871891980       -3.72033596881865       -1.27042871595321
C            9.80261444757633       -2.42185277814610       -0.00529150631029
C            7.77607940337628       -0.37781082824245       -0.00329856509460
C            6.86339535544051        0.65707502356312       -0.00092079509577
O            3.21045225919645        1.25360349267574        0.00053258724883
C            0.38710551902165        1.71889331257407        0.00508644842698
O           -3.27546282723867        1.10908760122228        0.00468275325474
C           -6.10520400114359        0.52324000534059       -0.00157209645350
C           -7.43675219677073        0.20039887333345       -0.00507173464287
H           -9.39083575375532       -1.79470860498159       -2.15928928365577
H           -9.03014965236928       -3.27749673447461       -1.27680291561002
H          -10.67284022999912       -2.64079115434908       -1.28712551053301
H          -11.30506502893849       -0.66247109207039       -0.01734259643042
H          -10.13072751550839        0.29880567109448        0.87136551460695
H          -10.12378686015821        0.29369447911006       -0.90235674478305
H           -9.04013522033225       -3.27046186406093        1.27432947929161
H          -10.68269998201444       -2.63345982608791        1.26870471685540
H           -9.40718889912128       -1.78275632537465        2.14587701589759
H           -7.18192772119887       -3.17717251951152        0.00602543431019
H           -4.80021128441150       -2.62034787846064        0.01208032294617
H           -2.50980381623892        3.53234155932576        0.00345073989884
H           -0.87888455999704        5.38830773083771        0.00146819635203
H            1.55910344746272        4.89812921071176        0.00157394728655
H            4.00825697561721       -1.16222552585675       -0.00812382562901
H            5.62981445808709       -2.98053948973549       -0.01259391406182
H            8.80273796825327       -4.55663080247689        1.27046215994114
H            8.23421597466821       -3.12925757372775        2.14116653178484
H            7.09138799052620       -4.14005444232492        1.25841849685795
H            8.80660284758875       -4.54815956567524       -1.29963318530289
H            8.24374859027639       -3.11400157518824       -2.16282040602331
H            7.09565662064713       -4.12951449248073       -1.29243495217594
H           10.03372658868422       -1.83269598683198       -0.88963011744921
H           10.03000292865639       -1.83843101648050        0.88380757786183
H           10.45026138711168       -3.29610989487529       -0.00680616522849
H            8.82423101937403       -0.13016364448392       -0.00182955874865
H            7.18751849074494        1.68597383448785        0.00222485631444
H            0.71934082305089        0.69251149053160        0.00608719172839
H           -5.78694615818466        1.55488581205715       -0.00352367173030
H           -8.15599493415167        1.00263494127344       -0.00979056755504

          :  Hamiltonian                  GFN2-xTB          :
         :: gradient norm              0.000035027102 Eh/a0 ::
         :: HOMO-LUMO gap              0.348369810673 eV    ::
         :: SCC energy              -100.863690612281 Eh    ::
         :: -> dispersion             -0.072001356232 Eh    ::
         :: -> Gsolv                  -0.046801550818 Eh    ::
         :: repulsion energy           1.522768292538 Eh    ::

    * Orbital Energies and Occupations

         #    Occupation            Energy/Eh            Energy/eV
      -------------------------------------------------------------
         1        2.0000           -0.7705982             -20.9690
       ...           ...                  ...                  ...
        80        2.0000           -0.4284871             -11.6597
        81        2.0000           -0.4244997             -11.5512
        82        2.0000           -0.4231042             -11.5133
        83        2.0000           -0.4226052             -11.4997
        84        2.0000           -0.4216485             -11.4736
        85        2.0000           -0.4193637             -11.4115
        86        2.0000           -0.4184371             -11.3863
        87        2.0000           -0.4160202             -11.3205
        88        1.9971           -0.3950242             -10.7492
        89        1.9874           -0.3936359             -10.7114
        90        1.9713           -0.3928352             -10.6896
        91        1.0442           -0.3865702             -10.5191
        92        0.9988           -0.2971197              -8.0850 (HOMO)
        93        0.0012           -0.2843171              -7.7367 (LUMO)
        94                         -0.2682921              -7.3006
        95                         -0.2585949              -7.0367
        96                         -0.2337969              -6.3619
        97                         -0.2323276              -6.3220
        98                         -0.2080538              -5.6614
        99                         -0.1910812              -5.1996
       100                         -0.1870592              -5.0901
       101                         -0.1706477              -4.6436
       102                         -0.0984016              -2.6776
       103                         -0.0922479              -2.5102
       ...                                ...                  ...
       174                          0.6614550              17.9991
      -------------------------------------------------------------
                  HL-Gap            0.0128026 Eh            0.3484 eV

     #   Z          covCN         q      C6AA      α(0)
     1   6 C        3.761    -0.109    22.621     6.780
     2   6 C        3.902     0.030    20.009     6.358
     3   6 C        3.761    -0.113    22.701     6.792
     4   6 C        3.761    -0.109    22.621     6.780
     5   6 C        2.972     0.026    27.414     8.588
     6   6 C        2.918    -0.026    28.657     8.778
     7   6 C        2.917    -0.031    28.771     8.796
     8   6 C        2.969    -0.005    28.134     8.700
     9   6 C        3.100     0.197    23.700     7.978
    10   7 N        2.027    -0.178    25.581     7.502
    11   7 N        2.028    -0.190    25.867     7.544
    12   6 C        3.100     0.198    23.687     7.976
    13   6 C        2.967    -0.010    28.273     8.722
    14   6 C        2.917    -0.032    28.810     8.802
    15   6 C        2.909    -0.022    28.544     8.761
    16   6 C        2.921    -0.035    28.877     8.812
    17   6 C        2.967    -0.005    28.148     8.702
    18   6 C        3.161     0.216    23.176     7.870
    19   7 N        2.044    -0.211    26.324     7.610
    20   7 N        2.043    -0.211    26.331     7.612
    21   6 C        3.160     0.219    23.126     7.862
    22   6 C        2.974    -0.013    28.331     8.731
    23   6 C        2.920    -0.028    28.701     8.785
    24   6 C        2.925    -0.031    28.770     8.796
    25   6 C        2.973     0.024    27.475     8.598
    26   6 C        3.902     0.028    20.056     6.366
    27   6 C        3.761    -0.108    22.614     6.779
    28   6 C        3.761    -0.108    22.613     6.779
    29   6 C        3.761    -0.112    22.695     6.791
    30   6 C        2.923    -0.034    28.836     8.806
    31   6 C        2.922    -0.029    28.724     8.789
    32   8 O        1.721    -0.233    17.861     5.706
    33   6 C        2.926    -0.029    28.723     8.789
    34   8 O        1.712    -0.273    18.525     5.811
    35   6 C        2.916    -0.029    28.724     8.789
    36   6 C        2.916    -0.031    28.779     8.797
    37   1 H        0.925     0.039     2.467     2.456
    38   1 H        0.925     0.044     2.395     2.420
    39   1 H        0.925     0.050     2.324     2.384
    40   1 H        0.925     0.046     2.375     2.410
    41   1 H        0.925     0.041     2.432     2.439
    42   1 H        0.925     0.041     2.432     2.439
    43   1 H        0.925     0.044     2.395     2.420
    44   1 H        0.925     0.050     2.324     2.384
    45   1 H        0.925     0.039     2.466     2.456
    46   1 H        0.926     0.055     2.255     2.348
    47   1 H        0.926     0.054     2.269     2.355
    48   1 H        0.926     0.051     2.311     2.377
    49   1 H        0.926     0.055     2.260     2.351
    50   1 H        0.926     0.060     2.194     2.316
    51   1 H        0.926     0.042     2.416     2.431
    52   1 H        0.926     0.049     2.327     2.385
    53   1 H        0.925     0.046     2.368     2.407
    54   1 H        0.925     0.037     2.496     2.470
    55   1 H        0.925     0.040     2.443     2.444
    56   1 H        0.925     0.046     2.368     2.407
    57   1 H        0.925     0.037     2.495     2.470
    58   1 H        0.925     0.040     2.443     2.444
    59   1 H        0.925     0.040     2.443     2.444
    60   1 H        0.925     0.040     2.443     2.444
    61   1 H        0.925     0.044     2.396     2.421
    62   1 H        0.926     0.060     2.204     2.321
    63   1 H        0.926     0.054     2.272     2.357
    64   1 H        0.926     0.057     2.234     2.337
    65   1 H        0.926     0.045     2.385     2.415
    66   1 H        0.926     0.059     2.210     2.325

molecular dipole:
                 x           y           z       tot (Debye)
 q only:       -1.672      -1.725      -0.009
   full:       -2.184      -1.684      -0.011       7.009

 projected vibrational frequencies (cm⁻¹)
eigval :       -0.00    -0.00    -0.00    -0.00     0.00     0.00
eigval :        4.53    13.57    19.51    23.08    35.14    39.33
eigval :       48.85    50.94    60.59    68.62    78.72    91.76
eigval :      113.10   126.46   133.15   140.45   167.93   169.92
eigval :      178.91   194.14   196.80   218.79   221.74   228.02
eigval :      231.63   237.71   277.01   285.23   303.61   311.50
eigval :      314.90   319.35   327.68   334.39   335.39   361.56
eigval :      364.93   368.95   370.89   377.48   391.84   410.09
eigval :      422.33   427.41   432.46   451.17   458.91   477.44
eigval :      489.24   507.82   516.92   526.59   536.93   589.77
eigval :      591.98   592.89   603.88   606.47   631.63   671.16
eigval :      677.41   687.40   700.19   714.72   721.02   741.33
eigval :      742.88   761.00   807.18   821.79   822.58   823.53
eigval :      840.10   861.68   865.19   872.26   881.03   890.01
eigval :      910.19   913.06   921.35   922.35   929.29   934.21
eigval :      953.93   956.71   959.45   959.49   961.72   962.52
eigval :      963.95   964.53   977.62   999.64  1026.14  1031.20
eigval :     1033.24  1033.69  1034.60  1047.11  1052.30  1072.65
eigval :     1102.98  1110.88  1120.39  1134.57  1136.84  1143.60
eigval :     1158.25  1168.18  1187.50  1198.80  1205.88  1207.13
eigval :     1220.99  1222.06  1229.26  1229.90  1259.17  1266.65
eigval :     1271.66  1276.57  1282.92  1288.22  1304.06  1321.83
eigval :     1328.57  1330.08  1351.82  1358.94  1393.27  1396.81
eigval :     1398.24  1399.50  1401.82  1406.85  1410.45  1424.51
eigval :     1426.25  1426.55  1452.37  1457.68  1462.82  1480.40
eigval :     1483.78  1487.01  1487.33  1489.27  1493.95  1495.66
eigval :     1497.49  1501.88  1508.19  1510.45  1512.78  1513.43
eigval :     1514.82  1530.76  1544.39  1552.29  1566.92  1585.60
eigval :     3025.53  3025.89  3026.44  3027.47  3029.58  3029.87
eigval :     3030.58  3031.20  3033.63  3034.60  3035.74  3036.22
eigval :     3040.22  3041.27  3047.75  3050.86  3051.37  3054.37
eigval :     3082.43  3086.51  3089.54  3093.46  3097.04  3103.58
eigval :     3104.58  3106.54  3107.26  3118.88  3122.53  3128.63

   temp. (K)  partition function   enthalpy   heat capacity  entropy
                                   cal/mol     cal/K/mol   cal/K/mol   J/K/mol
 298.15  VIB  0.660E+16            19619.170    119.093    123.441
         ROT  0.718E+08              888.752      2.981     38.928
         INT  0.474E+24            20507.922    122.074    162.370
         TR   0.101E+29             1481.254      4.968     44.365
         TOT                       21989.1760   127.0417   206.7343   864.9765

       T/K    H(0)-H(T)+PV         H(T)/Eh          T*S/Eh         G(T)/Eh
   ------------------------------------------------------------------------
    298.15    0.350420E-01    0.557563E+00    0.982262E-01    0.459337E+00
   ------------------------------------------------------------------------

         :::::::::::::::::::::::::::::::::::::::::::::::::::::
         ::                  THERMODYNAMIC                  ::
         :::::::::::::::::::::::::::::::::::::::::::::::::::::
         :: total free energy         -98.881585572778 Eh   ::
         ::.................................................::
         :: total energy              -99.340922320270 Eh   ::
         :: zero point energy           0.522520920234 Eh   ::
         :: G(RRHO) w/o ZPVE           -0.063184172742 Eh   ::
         :: G(RRHO) contrib.            0.459336747492 Eh   ::
         :::::::::::::::::::::::::::::::::::::::::::::::::::::

           -------------------------------------------------
          | TOTAL ENERGY              -99.340922320270 Eh   |
          | TOTAL ENTHALPY            -98.783359417510 Eh   |
          | TOTAL FREE ENERGY         -98.881585572778 Eh   |
          | GRADIENT NORM               0.000034570420 Eh/α |
          | HOMO-LUMO GAP               0.348376519946 eV   |
           -------------------------------------------------

 * finished run on 2025/09/13 at 10:40:26.490
