   * xtb version 6.7.1 (edcfbbe) compiled by 'albert@albert-system' on 2024-07-22

   ID    Z sym.   atoms
    1    6 C      1-9, 12-18, 21-31, 33, 35, 36
    2    7 N      10, 11, 19, 20
    3    8 O      32, 34
    4    1 H      37-66

          program call               : xtb data2507/toluene/OXD-7/OXD-7_toluene_S0_crest.xyz --gfn 2 --gbsa toluene --ohess vtight --parallel 40 --molden --ceasefiles --namespace data2507/toluene/OXD-7/OXD-7_toluene_S0_finalOpt
      * Solvation model:               GBSA
        Solvent                        toluene
        Solvent mass                       9.2140E+01 g/mol
          :  Hamiltonian                  GFN2-xTB          :
 * total energy  :   -99.4381976 Eh     change       -0.1051745E-08 Eh
 * total energy  :   -99.4382284 Eh     change       -0.3081015E-04 Eh
 * total energy  :   -99.4382369 Eh     change       -0.8501615E-05 Eh
 * total energy  :   -99.4382388 Eh     change       -0.1968825E-05 Eh
 * total energy  :   -99.4382399 Eh     change       -0.1097404E-05 Eh
 * total energy  :   -99.4382411 Eh     change       -0.1144768E-05 Eh
 * total energy  :   -99.4382428 Eh     change       -0.1674088E-05 Eh
 * total energy  :   -99.4382442 Eh     change       -0.1409342E-05 Eh
 * total energy  :   -99.4382450 Eh     change       -0.7819562E-06 Eh
 * total energy  :   -99.4382455 Eh     change       -0.5680456E-06 Eh
 * total energy  :   -99.4382472 Eh     change       -0.2551668E-06 Eh
 * total energy  :   -99.4382475 Eh     change       -0.2671516E-06 Eh
 * total energy  :   -99.4382478 Eh     change       -0.3206267E-06 Eh
 * total energy  :   -99.4382482 Eh     change       -0.4240455E-06 Eh
 * total energy  :   -99.4382487 Eh     change       -0.4670539E-06 Eh
 * total energy  :   -99.4382491 Eh     change       -0.3992547E-06 Eh
 * total energy  :   -99.4382494 Eh     change       -0.2651975E-06 Eh
 * total energy  :   -99.4382496 Eh     change       -0.2501697E-06 Eh
 * total energy  :   -99.4382496 Eh     change       -0.7937629E-08 Eh
   *** GEOMETRY OPTIMIZATION CONVERGED AFTER 22 ITERATIONS ***

 final structure:
================
66
 xtb: 6.7.1 (edcfbbe)
C           -9.65423705086699       -2.32336834534682       -1.26379320649725
C           -9.34391111747375       -1.49387894929961       -0.00849172643601
C          -10.25423258881792       -0.26204603337529       -0.01168926462455
C           -9.65476336913404       -2.31741580208388        1.25066366860539
C           -7.86740014912220       -1.13391494560538       -0.00812926695995
C           -6.91177132528964       -2.15257166939172       -0.00559895460859
C           -5.56165978550346       -1.87888009111807       -0.00290563472271
C           -5.11892526203152       -0.55544486490920       -0.00269727008134
C           -3.70544250948246       -0.27176223409967        0.00143477841404
N           -2.73085028543010       -1.13732911363210        0.00450049136270
N           -1.58178339149266       -0.44446064341145        0.00782321868893
C           -1.89144399521390        0.81955179840731        0.00670005506066
C           -0.97752429702336        1.93966958919695        0.00794189726795
C           -1.45399882869266        3.25086213271787        0.00794393223348
C           -0.56145606611648        4.30944203460990        0.00724821876792
C            0.80087937442298        4.07621084485511        0.00627495186432
C            1.28149901482471        2.76413759019399        0.00669891363733
C            2.70797962810153        2.52793722782188        0.00426057165596
N            3.65059237741510        3.42532845012912       -0.00292504947576
N            4.82287229587472        2.77318010322618       -0.00485832103947
C            4.55588809670488        1.49684924422030        0.00146601797784
C            5.50279806411358        0.40954965339888        0.00080474059971
C            5.07147572145964       -0.91671528878106        0.01949667046483
C            5.99430385236887       -1.94092975343056        0.01671855093697
C            7.36699576808595       -1.69039003995086       -0.00547971776541
C            8.33955204686827       -2.85844299106414       -0.00904333889170
C            8.12059176051061       -3.69211794900656        1.26273179112659
C            8.07509568133977       -3.72314170131944       -1.25114190073542
C            9.80338506055111       -2.40914896890439       -0.04132617807255
C            7.78128386448875       -0.36040640824752       -0.02316303374245
C            6.87019183093755        0.67727613594271       -0.01996536864691
O            3.21975288743847        1.27482548081618        0.00768248426257
C            0.39308013805996        1.69518082953142        0.00780558288689
O           -3.23386958068869        0.99869039829955        0.00274924708969
C           -6.05890708607211        0.47221529639860       -0.00627030426726
C           -7.40966398315790        0.18066877876075       -0.00892263603279
H           -9.41100767765435       -1.75601025059126       -2.16004505200647
H           -9.08513954284325       -3.24842383759133       -1.28101328369599
H          -10.71238233827736       -2.57391452878062       -1.29060983439956
H          -11.29386828476883       -0.58280902406815       -0.01182903522839
H          -10.09266795441355        0.34783113722955        0.87418271648005
H          -10.09127733101747        0.34419367601248       -0.89980656705644
H           -9.08690246694358       -3.24316486072850        1.27145601992801
H          -10.71323886904064       -2.56632383205443        1.27938254433379
H           -9.41000156229565       -1.74651123246559        2.14425793927681
H           -7.22450865260901       -3.18504685145453       -0.00545079796893
H           -4.82976185625889       -2.67124707669433       -0.00067649799760
H           -2.51838803727428        3.43054915698756        0.00830444379743
H           -0.93249859652815        5.32270526619569        0.00715468474920
H            1.51159901131613        4.88711246499022        0.00500837361400
H            4.01362471144131       -1.13536634612131        0.03615082107399
H            5.63036601090282       -2.95659213449373        0.03182973355493
H            8.82381612720332       -4.52155101200134        1.28867432974990
H            8.27823697668530       -3.07798778733678        2.14719547065833
H            7.11393595389919       -4.09839706277858        1.30457901717699
H            8.78008061925954       -4.55081239536856       -1.28423626177692
H            8.19606077261724       -3.13005444405644       -2.15551829509694
H            7.06937837174071       -4.13374179123091       -1.24442539442679
H           10.01681289004937       -1.83261204361024       -0.93838315482395
H           10.05056684634341       -1.81403603719047        0.83464762624915
H           10.44912383798134       -3.28487101454934       -0.04425855439455
H            8.82976319738359       -0.11451886086965       -0.04014262338176
H            7.19717755625068        1.70521326973443       -0.03393528941910
H            0.74562178088653        0.67595210657683        0.00786173094119
H           -5.72684956324776        1.50024348821132       -0.00665950054108
H           -8.10550892254601        1.00312883384790       -0.01141631167361

          :  Hamiltonian                  GFN2-xTB          :
         :: gradient norm              0.000055466575 Eh/a0 ::
         :: HOMO-LUMO gap              2.747189908251 eV    ::
         :: SCC energy              -100.981135527066 Eh    ::
         :: -> dispersion             -0.072058162997 Eh    ::
         :: -> Gsolv                  -0.045910835729 Eh    ::
         :: repulsion energy           1.542885890156 Eh    ::

    * Orbital Energies and Occupations

         #    Occupation            Energy/Eh            Energy/eV
      -------------------------------------------------------------
         1        2.0000           -0.7758386             -21.1116
       ...           ...                  ...                  ...
        79        2.0000           -0.4288549             -11.6697
        80        2.0000           -0.4270291             -11.6201
        81        2.0000           -0.4258233             -11.5872
        82        2.0000           -0.4233315             -11.5194
        83        2.0000           -0.4230747             -11.5124
        84        2.0000           -0.4201916             -11.4340
        85        2.0000           -0.4183732             -11.3845
        86        2.0000           -0.4166413             -11.3374
        87        2.0000           -0.4143525             -11.2751
        88        2.0000           -0.3979382             -10.8284
        89        2.0000           -0.3964886             -10.7890
        90        2.0000           -0.3948018             -10.7431
        91        2.0000           -0.3944396             -10.7332 (HOMO)
        92                         -0.2934823              -7.9861 (LUMO)
        93                         -0.2842836              -7.7357
        94                         -0.2647373              -7.2039
        95                         -0.2610782              -7.1043
        96                         -0.2333818              -6.3506
        97                         -0.2310098              -6.2861
        98                         -0.2155794              -5.8662
        99                         -0.1885692              -5.1312
       100                         -0.1861972              -5.0667
       101                         -0.1757023              -4.7811
       102                         -0.0957953              -2.6067
       ...                                ...                  ...
       174                          0.6576816              17.8964
      -------------------------------------------------------------
                  HL-Gap            0.1009573 Eh            2.7472 eV

     #   Z          covCN         q      C6AA      α(0)
     1   6 C        3.761    -0.108    22.616     6.779
     2   6 C        3.902     0.027    20.066     6.367
     3   6 C        3.761    -0.111    22.670     6.787
     4   6 C        3.761    -0.108    22.615     6.779
     5   6 C        2.973     0.022    27.520     8.605
     6   6 C        2.926    -0.030    28.748     8.793
     7   6 C        2.922    -0.030    28.747     8.792
     8   6 C        2.974    -0.016    28.394     8.741
     9   6 C        3.163     0.220    23.087     7.853
    10   7 N        2.045    -0.218    26.490     7.634
    11   7 N        2.044    -0.216    26.440     7.627
    12   6 C        3.166     0.217    23.140     7.861
    13   6 C        2.973    -0.004    28.130     8.700
    14   6 C        2.922    -0.023    28.571     8.766
    15   6 C        2.917    -0.020    28.516     8.757
    16   6 C        2.924    -0.024    28.601     8.770
    17   6 C        2.973    -0.001    28.051     8.688
    18   6 C        3.167     0.216    23.145     7.861
    19   7 N        2.044    -0.211    26.338     7.612
    20   7 N        2.046    -0.217    26.472     7.632
    21   6 C        3.165     0.220    23.077     7.851
    22   6 C        2.974    -0.015    28.391     8.740
    23   6 C        2.921    -0.029    28.721     8.788
    24   6 C        2.926    -0.032    28.798     8.800
    25   6 C        2.973     0.021    27.524     8.606
    26   6 C        3.902     0.027    20.066     6.367
    27   6 C        3.761    -0.108    22.608     6.778
    28   6 C        3.761    -0.108    22.608     6.778
    29   6 C        3.761    -0.112    22.684     6.790
    30   6 C        2.923    -0.034    28.858     8.810
    31   6 C        2.923    -0.030    28.743     8.792
    32   8 O        1.722    -0.229    17.790     5.695
    33   6 C        2.929    -0.027    28.669     8.781
    34   8 O        1.722    -0.230    17.804     5.697
    35   6 C        2.921    -0.029    28.721     8.788
    36   6 C        2.923    -0.037    28.909     8.817
    37   1 H        0.925     0.036     2.507     2.476
    38   1 H        0.925     0.041     2.439     2.442
    39   1 H        0.925     0.045     2.380     2.413
    40   1 H        0.925     0.043     2.407     2.426
    41   1 H        0.925     0.039     2.460     2.453
    42   1 H        0.925     0.039     2.460     2.453
    43   1 H        0.925     0.041     2.439     2.442
    44   1 H        0.925     0.045     2.380     2.412
    45   1 H        0.925     0.036     2.507     2.476
    46   1 H        0.926     0.050     2.314     2.379
    47   1 H        0.926     0.051     2.302     2.373
    48   1 H        0.926     0.060     2.195     2.317
    49   1 H        0.926     0.065     2.139     2.287
    50   1 H        0.926     0.070     2.083     2.257
    51   1 H        0.926     0.041     2.435     2.440
    52   1 H        0.926     0.047     2.353     2.399
    53   1 H        0.925     0.045     2.382     2.414
    54   1 H        0.925     0.036     2.504     2.475
    55   1 H        0.925     0.040     2.453     2.449
    56   1 H        0.925     0.045     2.383     2.414
    57   1 H        0.925     0.036     2.505     2.475
    58   1 H        0.925     0.040     2.452     2.449
    59   1 H        0.925     0.040     2.451     2.448
    60   1 H        0.925     0.040     2.450     2.448
    61   1 H        0.925     0.043     2.406     2.426
    62   1 H        0.926     0.058     2.227     2.334
    63   1 H        0.926     0.052     2.290     2.366
    64   1 H        0.926     0.064     2.149     2.293
    65   1 H        0.926     0.041     2.432     2.439
    66   1 H        0.926     0.055     2.263     2.353

molecular dipole:
                 x           y           z       tot (Debye)
 q only:       -1.206      -0.812      -0.003
   full:       -1.761      -0.754       0.000       4.868

 projected vibrational frequencies (cm⁻¹)
eigval :       -0.00    -0.00     0.00     0.00     0.00     0.00
eigval :       -7.52    14.72    18.92    21.62    31.16    40.17
eigval :       49.96    51.25    58.93    61.51    79.56    85.18
eigval :       97.75   132.32   134.15   141.30   169.96   180.52
eigval :      183.16   195.22   220.67   223.62   228.88   235.51
eigval :      239.27   240.66   285.76   298.29   307.77   313.32
eigval :      315.92   318.42   328.58   337.45   363.23   363.58
eigval :      371.00   372.65   374.56   407.53   407.71   425.85
eigval :      431.29   432.86   443.81   452.01   459.45   489.41
eigval :      516.78   529.46   535.42   548.71   593.48   594.00
eigval :      605.32   605.37   644.54   651.38   683.60   683.62
eigval :      699.13   719.10   723.21   727.83   738.45   752.36
eigval :      777.29   803.82   822.84   824.18   870.49   870.89
eigval :      881.70   882.05   888.82   904.25   917.68   921.75
eigval :      929.96   930.40   932.64   951.30   959.73   959.82
eigval :      962.11   962.31   964.57   964.90   966.11   966.31
eigval :      992.06   993.40  1011.30  1013.90  1034.62  1034.67
eigval :     1035.35  1035.69  1085.40  1088.57  1095.49  1103.06
eigval :     1121.38  1136.89  1137.48  1144.77  1145.47  1172.23
eigval :     1176.74  1177.35  1202.02  1204.92  1224.01  1224.43
eigval :     1231.18  1231.30  1233.57  1263.23  1271.84  1274.21
eigval :     1275.67  1282.45  1299.59  1308.64  1319.91  1327.68
eigval :     1329.11  1331.94  1396.19  1396.72  1403.01  1403.12
eigval :     1406.80  1407.41  1414.56  1426.99  1427.19  1440.69
eigval :     1463.32  1465.77  1487.11  1488.18  1489.78  1489.96
eigval :     1496.55  1496.57  1500.86  1502.62  1509.96  1510.71
eigval :     1514.55  1515.06  1531.36  1534.08  1535.22  1537.77
eigval :     1565.08  1566.67  1572.91  1581.88  1593.48  1593.71
eigval :     3024.33  3024.44  3025.00  3025.29  3028.38  3028.53
eigval :     3028.92  3029.26  3032.53  3033.12  3034.33  3035.30
eigval :     3039.48  3039.92  3047.07  3049.04  3050.45  3052.10
eigval :     3081.29  3082.27  3092.20  3093.78  3096.57  3101.25
eigval :     3102.91  3109.20  3113.79  3115.60  3119.78  3121.72

   temp. (K)  partition function   enthalpy   heat capacity  entropy
                                   cal/mol     cal/K/mol   cal/K/mol   J/K/mol
 298.15  VIB  0.318E+16            19193.765    116.053    120.729
         ROT  0.713E+08              888.752      2.981     38.915
         INT  0.227E+24            20082.518    119.034    159.644
         TR   0.101E+29             1481.254      4.968     44.365
         TOT                       21563.7714   124.0019   204.0090   853.5738

       T/K    H(0)-H(T)+PV         H(T)/Eh          T*S/Eh         G(T)/Eh
   ------------------------------------------------------------------------
    298.15    0.343641E-01    0.562687E+00    0.969313E-01    0.465756E+00
   ------------------------------------------------------------------------

         :::::::::::::::::::::::::::::::::::::::::::::::::::::
         ::                  THERMODYNAMIC                  ::
         :::::::::::::::::::::::::::::::::::::::::::::::::::::
         :: total free energy         -98.972494042483 Eh   ::
         ::.................................................::
         :: total energy              -99.438249638077 Eh   ::
         :: zero point energy           0.528322817344 Eh   ::
         :: G(RRHO) w/o ZPVE           -0.062567221750 Eh   ::
         :: G(RRHO) contrib.            0.465755595595 Eh   ::
         :::::::::::::::::::::::::::::::::::::::::::::::::::::

           -------------------------------------------------
          | TOTAL ENERGY              -99.438249638077 Eh   |
          | TOTAL ENTHALPY            -98.875562763580 Eh   |
          | TOTAL FREE ENERGY         -98.972494042483 Eh   |
          | GRADIENT NORM               0.000055481947 Eh/α |
          | HOMO-LUMO GAP               2.747189272765 eV   |
           -------------------------------------------------

 * finished run on 2025/09/13 at 10:40:21.877
