   * xtb version 6.7.1 (edcfbbe) compiled by 'albert@albert-system' on 2024-07-22

   ID    Z sym.   atoms
    1    6 C      1-9, 12-18, 21-31, 33, 35, 36
    2    7 N      10, 11, 19, 20
    3    8 O      32, 34
    4    1 H      37-66

          program call               : xtb data2507/toluene/OXD-7/OXD-7_toluene_T1_crest.xyz --gfn 2 --uhf 2 --gbsa toluene --ohess vtight --parallel 40 --molden --ceasefiles --namespace data2507/toluene/OXD-7/OXD-7_toluene_T1_finalOpt
      * Solvation model:               GBSA
        Solvent                        toluene
        Solvent mass                       9.2140E+01 g/mol
          :  Hamiltonian                  GFN2-xTB          :
 * total energy  :   -99.3408232 Eh     change       -0.5300365E-09 Eh
 * total energy  :   -99.3408817 Eh     change       -0.5847271E-04 Eh
 * total energy  :   -99.3408973 Eh     change       -0.1559073E-04 Eh
 * total energy  :   -99.3409004 Eh     change       -0.3158813E-05 Eh
 * total energy  :   -99.3409023 Eh     change       -0.1837884E-05 Eh
 * total energy  :   -99.3409041 Eh     change       -0.1817427E-05 Eh
 * total energy  :   -99.3409066 Eh     change       -0.2461544E-05 Eh
 * total energy  :   -99.3409089 Eh     change       -0.2377015E-05 Eh
 * total energy  :   -99.3409105 Eh     change       -0.1554242E-05 Eh
 * total energy  :   -99.3409116 Eh     change       -0.1101445E-05 Eh
 * total energy  :   -99.3409149 Eh     change       -0.4019934E-06 Eh
 * total energy  :   -99.3409153 Eh     change       -0.4084507E-06 Eh
 * total energy  :   -99.3409159 Eh     change       -0.5673741E-06 Eh
 * total energy  :   -99.3409164 Eh     change       -0.5568429E-06 Eh
 * total energy  :   -99.3409169 Eh     change       -0.5088354E-06 Eh
 * total energy  :   -99.3409174 Eh     change       -0.4389195E-06 Eh
 * total energy  :   -99.3409176 Eh     change       -0.2662762E-06 Eh
 * total energy  :   -99.3409178 Eh     change       -0.1718971E-06 Eh
 * total energy  :   -99.3409178 Eh     change       -0.6581161E-08 Eh
   *** GEOMETRY OPTIMIZATION CONVERGED AFTER 22 ITERATIONS ***

 final structure:
================
66
 xtb: 6.7.1 (edcfbbe)
C           -9.61843853154462       -2.40584016787333        1.22826704951529
C           -9.32207736326316       -1.56594768035502       -0.02645512086172
C           -9.60015470306151       -2.40696204486342       -1.28462922013107
C          -10.27026251503208       -0.36348058644411       -0.03414687369417
C           -7.86335033939220       -1.16737168914150       -0.01579586299392
C           -6.86980878188090       -2.16711019242623       -0.01206641633794
C           -5.53746409321465       -1.86428992808402       -0.00414301569375
C           -5.11259974459974       -0.50994701343996        0.00114792947839
C           -3.74992133819477       -0.19530930956288        0.00726837688700
N           -2.72320618682868       -1.06379990708098        0.00650794796218
N           -1.61880975712038       -0.40178259176681        0.01074156820866
C           -1.91214412036734        0.91950240834752        0.01466142823792
C           -1.00439925776461        1.97920704620353        0.01818950862122
C           -1.45354019674260        3.33939435146305        0.02293862759058
C           -0.54086226388806        4.36462113776808        0.02324065737604
C            0.82519331064540        4.10672119643280        0.01847889294023
C            1.28228283088437        2.76334933417662        0.01423553542006
C            2.69761029700825        2.51084446945392        0.00677481058765
N            3.65469675389645        3.40181833385414       -0.00354481427352
N            4.81585139719363        2.74168890888649       -0.01069984698170
C            4.54083461592593        1.46444917318094       -0.00401358535905
C            5.48070868617068        0.37538640542000       -0.00712091609856
C            5.04532122519922       -0.94929533977540        0.01843197371283
C            5.96132531404899       -1.98272612914738        0.01739618672645
C            7.33235736586426       -1.73705472412406       -0.00986573193383
C            8.36927938335863       -2.84703745785945       -0.00997064127688
C            9.26751623395401       -2.68813979195888        1.22657965652112
C            7.74286109492105       -4.24410198396770        0.02984865076295
C            9.21695690063348       -2.73620545262028       -1.28678293299146
C            7.75228389408006       -0.40401617994161       -0.03757350808507
C            6.85273433954108        0.63817301614950       -0.03586975885620
O            3.20177371192725        1.25181679056318        0.00743438789376
C            0.38326308172042        1.71996507051990        0.01495798610418
O           -3.27774440871023        1.10191928668337        0.01301676861488
C           -6.10681441194783        0.50127900562430       -0.00094952277440
C           -7.43633397623303        0.17029248280203       -0.00926691669121
H           -9.02110182354313       -3.31251004596597        1.25282047747627
H           -9.40349641625105       -1.82949212491858        2.12576030989884
H          -10.66858017881432       -2.68819022634552        1.24127883721516
H          -10.65124582897065       -2.68432828258507       -1.31580634747676
H           -9.36659535450095       -1.83342294217716       -2.17926775501956
H           -9.00703032797599       -3.31661019578719       -1.29696611071402
H          -10.13463422432166        0.24967825392251        0.85372757246088
H          -11.29923880402823       -0.71647231553784       -0.04232871375213
H          -10.12018297620568        0.24931414642322       -0.91996760072507
H           -7.16105459135535       -3.20581508248290       -0.01587516075350
H           -4.78254562281778       -2.63434920942212       -0.00192064168923
H           -2.51477790316124        3.53138092802940        0.02607427963854
H           -0.88482703831800        5.38810773361524        0.02686674947125
H            1.55351171543554        4.89969648530065        0.01785230808974
H            3.98631252332273       -1.16174095595935        0.03988098475822
H            5.58593730928216       -2.99228332523515        0.03842966305186
H           10.00340729515913       -3.48859838831459        1.25516981012277
H            9.79659816383958       -1.73963393184271        1.21579853893803
H            8.66982268017062       -2.73572001362486        2.13469805702216
H            8.53239365741011       -4.99264286434134        0.03060796257743
H            7.11695489102976       -4.41914122806946       -0.84212637723491
H            7.14964630814811       -4.38256961411609        0.93077927230305
H            8.58403646159115       -2.82044269606017       -2.16802527473341
H            9.74330037713221       -1.78723892422788       -1.33425722202053
H            9.95328425341772       -3.53637699218854       -1.31298290742979
H            8.80542066477392       -0.17155131061205       -0.06047979790811
H            7.18350598135021        1.66467089231172       -0.05628476425503
H            0.71598976536749        0.69376678397110        0.01147234901679
H           -5.79472580172568        1.53480702834508        0.00365728326609
H           -8.16052066802724        0.96808521550031       -0.01101531142247

          :  Hamiltonian                  GFN2-xTB          :
         :: gradient norm              0.000051974331 Eh/a0 ::
         :: HOMO-LUMO gap              0.350694353078 eV    ::
         :: SCC energy              -100.863767398373 Eh    ::
         :: -> dispersion             -0.072003819283 Eh    ::
         :: -> Gsolv                  -0.046789133509 Eh    ::
         :: repulsion energy           1.522849569247 Eh    ::

    * Orbital Energies and Occupations

         #    Occupation            Energy/Eh            Energy/eV
      -------------------------------------------------------------
         1        2.0000           -0.7705801             -20.9686
       ...           ...                  ...                  ...
        80        2.0000           -0.4282676             -11.6538
        81        2.0000           -0.4248702             -11.5613
        82        2.0000           -0.4230997             -11.5131
        83        2.0000           -0.4226154             -11.5000
        84        2.0000           -0.4216672             -11.4741
        85        2.0000           -0.4189891             -11.4013
        86        2.0000           -0.4184615             -11.3869
        87        2.0000           -0.4158207             -11.3151
        88        1.9971           -0.3950467             -10.7498
        89        1.9874           -0.3936398             -10.7115
        90        1.9714           -0.3928419             -10.6898
        91        1.0441           -0.3865715             -10.5191
        92        0.9989           -0.2971524              -8.0859 (HOMO)
        93        0.0011           -0.2842652              -7.7352 (LUMO)
        94                         -0.2682934              -7.3006
        95                         -0.2585489              -7.0355
        96                         -0.2338017              -6.3621
        97                         -0.2322268              -6.3192
        98                         -0.2081015              -5.6627
        99                         -0.1911001              -5.2001
       100                         -0.1869988              -5.0885
       101                         -0.1706243              -4.6429
       102                         -0.0984240              -2.6783
       103                         -0.0921755              -2.5082
       ...                                ...                  ...
       174                          0.6613200              17.9954
      -------------------------------------------------------------
                  HL-Gap            0.0128872 Eh            0.3507 eV

     #   Z          covCN         q      C6AA      α(0)
     1   6 C        3.761    -0.109    22.620     6.780
     2   6 C        3.902     0.030    20.009     6.358
     3   6 C        3.761    -0.109    22.621     6.780
     4   6 C        3.761    -0.113    22.701     6.792
     5   6 C        2.972     0.026    27.413     8.588
     6   6 C        2.918    -0.026    28.657     8.778
     7   6 C        2.917    -0.031    28.771     8.796
     8   6 C        2.969    -0.005    28.133     8.700
     9   6 C        3.100     0.197    23.701     7.978
    10   7 N        2.027    -0.178    25.578     7.501
    11   7 N        2.028    -0.190    25.864     7.543
    12   6 C        3.100     0.198    23.686     7.976
    13   6 C        2.967    -0.010    28.273     8.722
    14   6 C        2.917    -0.032    28.809     8.802
    15   6 C        2.909    -0.022    28.544     8.761
    16   6 C        2.920    -0.035    28.875     8.812
    17   6 C        2.967    -0.005    28.148     8.702
    18   6 C        3.161     0.216    23.174     7.869
    19   7 N        2.044    -0.211    26.328     7.611
    20   7 N        2.043    -0.211    26.333     7.612
    21   6 C        3.160     0.219    23.125     7.861
    22   6 C        2.974    -0.013    28.332     8.731
    23   6 C        2.921    -0.028    28.693     8.784
    24   6 C        2.923    -0.035    28.878     8.813
    25   6 C        2.973     0.024    27.476     8.598
    26   6 C        3.902     0.027    20.057     6.366
    27   6 C        3.761    -0.109    22.623     6.780
    28   6 C        3.761    -0.111    22.679     6.789
    29   6 C        3.761    -0.109    22.621     6.780
    30   6 C        2.925    -0.029    28.731     8.790
    31   6 C        2.922    -0.029    28.734     8.790
    32   8 O        1.721    -0.233    17.861     5.706
    33   6 C        2.926    -0.029    28.724     8.789
    34   8 O        1.712    -0.273    18.526     5.811
    35   6 C        2.916    -0.029    28.724     8.789
    36   6 C        2.916    -0.031    28.778     8.797
    37   1 H        0.925     0.044     2.395     2.420
    38   1 H        0.925     0.039     2.466     2.456
    39   1 H        0.925     0.050     2.323     2.383
    40   1 H        0.925     0.050     2.324     2.384
    41   1 H        0.925     0.039     2.467     2.456
    42   1 H        0.925     0.044     2.394     2.420
    43   1 H        0.925     0.041     2.432     2.439
    44   1 H        0.925     0.046     2.375     2.410
    45   1 H        0.925     0.041     2.432     2.439
    46   1 H        0.926     0.055     2.255     2.348
    47   1 H        0.926     0.054     2.267     2.355
    48   1 H        0.926     0.051     2.311     2.377
    49   1 H        0.926     0.055     2.260     2.351
    50   1 H        0.926     0.060     2.195     2.317
    51   1 H        0.926     0.043     2.412     2.429
    52   1 H        0.926     0.056     2.244     2.343
    53   1 H        0.925     0.046     2.368     2.406
    54   1 H        0.925     0.042     2.427     2.436
    55   1 H        0.925     0.036     2.499     2.472
    56   1 H        0.925     0.044     2.398     2.422
    57   1 H        0.925     0.040     2.455     2.450
    58   1 H        0.925     0.040     2.455     2.450
    59   1 H        0.925     0.036     2.499     2.472
    60   1 H        0.925     0.042     2.428     2.437
    61   1 H        0.925     0.046     2.367     2.406
    62   1 H        0.926     0.053     2.287     2.365
    63   1 H        0.926     0.053     2.277     2.360
    64   1 H        0.926     0.057     2.232     2.336
    65   1 H        0.926     0.045     2.385     2.415
    66   1 H        0.926     0.059     2.210     2.325

molecular dipole:
                 x           y           z       tot (Debye)
 q only:       -1.676      -1.728      -0.010
   full:       -2.182      -1.678      -0.004       6.995

 projected vibrational frequencies (cm⁻¹)
eigval :       -0.00    -0.00     0.00     0.00     0.00     0.00
eigval :        5.06    12.26    13.59    22.77    34.89    39.33
eigval :       49.28    51.98    58.98    67.36    78.48    91.75
eigval :      112.93   126.78   132.28   140.26   168.99   169.99
eigval :      172.89   188.13   196.13   216.59   221.24   229.88
eigval :      234.94   238.64   276.64   288.22   302.18   303.58
eigval :      310.91   314.76   326.84   335.23   340.24   360.28
eigval :      365.10   368.93   371.45   377.08   391.58   409.90
eigval :      421.91   427.35   430.77   453.04   459.60   477.18
eigval :      489.01   507.87   517.00   526.34   536.37   589.78
eigval :      591.94   592.81   603.92   606.40   631.55   671.12
eigval :      677.24   687.37   699.99   714.25   720.93   741.69
eigval :      742.99   760.89   807.59   821.72   822.55   823.38
eigval :      841.85   861.72   866.31   872.36   880.61   889.85
eigval :      910.69   913.06   919.88   922.33   931.57   934.77
eigval :      954.08   956.54   959.04   959.51   961.59   962.05
eigval :      964.41   964.83   977.54  1000.22  1026.04  1031.14
eigval :     1033.04  1033.53  1034.11  1047.51  1052.62  1073.17
eigval :     1103.06  1110.33  1120.05  1133.55  1136.37  1143.96
eigval :     1157.97  1167.95  1186.71  1200.31  1206.06  1207.01
eigval :     1220.61  1221.73  1229.36  1230.48  1258.44  1267.05
eigval :     1272.25  1276.98  1282.70  1288.13  1303.83  1322.37
eigval :     1327.94  1329.52  1352.04  1358.76  1392.73  1396.44
eigval :     1398.26  1399.40  1402.11  1406.79  1409.86  1424.43
eigval :     1426.04  1426.26  1453.46  1458.89  1462.75  1481.01
eigval :     1483.63  1485.44  1487.08  1488.55  1494.01  1495.08
eigval :     1497.43  1498.93  1507.93  1509.55  1512.15  1513.40
eigval :     1515.02  1530.54  1544.38  1553.16  1567.22  1585.71
eigval :     3024.74  3025.26  3026.39  3027.48  3028.50  3028.89
eigval :     3030.61  3031.23  3033.00  3034.55  3034.66  3036.26
eigval :     3039.68  3041.41  3048.85  3051.29  3052.31  3054.33
eigval :     3084.06  3086.46  3089.46  3093.55  3094.49  3104.36
eigval :     3106.86  3107.21  3108.10  3118.55  3120.59  3128.48

   temp. (K)  partition function   enthalpy   heat capacity  entropy
                                   cal/mol     cal/K/mol   cal/K/mol   J/K/mol
 298.15  VIB  0.101E+17            19650.269    119.091    123.966
         ROT  0.718E+08              888.752      2.981     38.929
         INT  0.724E+24            20539.021    122.072    162.895
         TR   0.101E+29             1481.254      4.968     44.365
         TOT                       22020.2754   127.0402   207.2596   867.1740

       T/K    H(0)-H(T)+PV         H(T)/Eh          T*S/Eh         G(T)/Eh
   ------------------------------------------------------------------------
    298.15    0.350915E-01    0.557529E+00    0.984757E-01    0.459054E+00
   ------------------------------------------------------------------------

         :::::::::::::::::::::::::::::::::::::::::::::::::::::
         ::                  THERMODYNAMIC                  ::
         :::::::::::::::::::::::::::::::::::::::::::::::::::::
         :: total free energy         -98.881864244848 Eh   ::
         ::.................................................::
         :: total energy              -99.340917830013 Eh   ::
         :: zero point energy           0.522437744815 Eh   ::
         :: G(RRHO) w/o ZPVE           -0.063384159650 Eh   ::
         :: G(RRHO) contrib.            0.459053585164 Eh   ::
         :::::::::::::::::::::::::::::::::::::::::::::::::::::

           -------------------------------------------------
          | TOTAL ENERGY              -99.340917830013 Eh   |
          | TOTAL ENTHALPY            -98.783388542657 Eh   |
          | TOTAL FREE ENERGY         -98.881864244848 Eh   |
          | GRADIENT NORM               0.000051281708 Eh/α |
          | HOMO-LUMO GAP               0.350678529174 eV   |
           -------------------------------------------------

 * finished run on 2025/09/13 at 10:43:38.042
