   * xtb version 6.7.1 (edcfbbe) compiled by 'albert@albert-system' on 2024-07-22

   ID    Z sym.   atoms
    1    6 C      1-9, 12-18, 21-31, 33, 35, 36
    2    7 N      10, 11, 19, 20
    3    8 O      32, 34
    4    1 H      37-66

          program call               : xtb data2507/toluene/OXD-7/OXD-7.xyz --gfn 2 --gbsa toluene --ohess vtight --parallel 40 --molden --ceasefiles --namespace data2507/toluene/OXD-7/OXD-7_toluene_S0_preOpt
      * Solvation model:               GBSA
        Solvent                        toluene
        Solvent mass                       9.2140E+01 g/mol
          :  Hamiltonian                  GFN2-xTB          :
 * total energy  :   -99.4223436 Eh     change       -0.1253127E-08 Eh
 * total energy  :   -99.4338480 Eh     change       -0.1150442E-01 Eh
 * total energy  :   -99.4367166 Eh     change       -0.2868533E-02 Eh
 * total energy  :   -99.4374688 Eh     change       -0.7522746E-03 Eh
 * total energy  :   -99.4377684 Eh     change       -0.2995569E-03 Eh
 * total energy  :   -99.4378450 Eh     change       -0.7657483E-04 Eh
 * total energy  :   -99.4379028 Eh     change       -0.5782984E-04 Eh
 * total energy  :   -99.4379512 Eh     change       -0.4842507E-04 Eh
 * total energy  :   -99.4380091 Eh     change       -0.5784017E-04 Eh
 * total energy  :   -99.4380338 Eh     change       -0.2472601E-04 Eh
 * total energy  :   -99.4382023 Eh     change       -0.6861766E-06 Eh
 * total energy  :   -99.4382029 Eh     change       -0.6077239E-06 Eh
 * total energy  :   -99.4382034 Eh     change       -0.5394994E-06 Eh
 * total energy  :   -99.4382039 Eh     change       -0.4789312E-06 Eh
 * total energy  :   -99.4382043 Eh     change       -0.4247169E-06 Eh
 * total energy  :   -99.4382047 Eh     change       -0.3744021E-06 Eh
 * total energy  :   -99.4382050 Eh     change       -0.3276801E-06 Eh
 * total energy  :   -99.4382053 Eh     change       -0.2841083E-06 Eh
 * total energy  :   -99.4382053 Eh     change       -0.1944500E-08 Eh
   *** GEOMETRY OPTIMIZATION CONVERGED AFTER 44 ITERATIONS ***

 final structure:
================
66
 xtb: 6.7.1 (edcfbbe)
C           -9.39618783474206       -2.79208743323563       -0.00016031567076
C           -9.12238446122483       -1.28527655651403       -0.00121213547402
C           -9.76455821256397       -0.68133897470490       -1.25955233814998
C           -9.76656790575780       -0.67916885512961        1.25505814187798
C           -7.63819256542410       -0.95807120325212       -0.00021776795487
C           -6.64650678216858       -1.93653785377470        0.00203639510448
C           -5.30641182291587       -1.60313704956681        0.00292585575758
C           -4.91662493306997       -0.26524510720345        0.00161150886992
C           -3.51626339394368        0.07707516187119        0.00236549965782
N           -2.50514282969688       -0.74548941215621        0.00374433341698
N           -1.38715677286809       -0.00330865405185        0.00374576751253
C           -1.75131326728743        1.24604975267743        0.00238288441548
C           -0.88806951439510        2.40564688272931        0.00176884098677
C           -1.42344003088004        3.69393311246567        0.00121457868253
C           -0.58019525360315        4.79211696036808        0.00059111886804
C            0.79134838627491        4.62111541267508        0.00046644113818
C            1.33093848432031        3.33218990648267        0.00098753041509
C            2.76654007438199        3.15992668688043        0.00072339366607
N            3.66924107771128        4.09745839921657        0.00034663087348
N            4.86885922087217        3.49684798176350        0.00012860988942
C            4.65749168747030        2.21013729025967        0.00037472856769
C            5.64941918943104        1.16380565586497        0.00016809257974
C            5.27258351471297       -0.17910906076361        0.00045048957931
C            6.23635890397910       -1.16474857627851        0.00014939308727
C            7.59779024926440       -0.85804744248116       -0.00043966443751
C            8.61675451171316       -1.98583200103198       -0.00077348613679
C           10.06178159893739       -1.47833353785837       -0.00148550269922
C            8.40954014543397       -2.84385484854618        1.25670338706813
C            8.40840406044672       -2.84414641674433       -1.25786492027208
C            7.95751299228666        0.48782345310708       -0.00069016082176
C            7.00477234283460        1.48752143040287       -0.00039140342421
O            3.33229519369001        1.93032108893285        0.00077159731010
C            0.49217252048196        2.22376069538434        0.00167578243205
O           -3.10018236708636        1.36672666089671        0.00146491613975
C           -5.89751560907967        0.72623521094750       -0.00060832290462
C           -7.23091888492667        0.37667495203484       -0.00146568585436
H           -8.98108001526913       -3.26687419269386       -0.88610524483254
H           -8.98281471508238       -3.26534523780381        0.88741047799629
H          -10.47073706181454       -2.96279259434806       -0.00105495063904
H          -10.82440397767167       -0.92427993154563       -1.28835210171007
H           -9.66338899301536        0.40010591007215       -1.27933703608915
H           -9.29362888285025       -1.08526454267329       -2.15363116724008
H           -9.29714786270947       -1.08164785660733        2.15058105919532
H          -10.82648627059000       -0.92194515953114        1.28252289930346
H           -9.66527865032845        0.40229681264780        1.27317783515409
H           -6.90902850526019       -2.98118428520752        0.00308973720265
H           -4.54312648488704       -2.36551019872045        0.00462709353431
H           -2.49485310962016        3.82505737296137        0.00128803079121
H           -0.99725848851145        5.78733169227902        0.00018118249200
H            1.46444364187246        5.46346030593918       -0.00004979053240
H            4.22441095874305       -0.44076089441237        0.00089026052551
H            5.91389888101276       -2.19449264774979        0.00037536128674
H           10.74168594089773       -2.32779749534272       -0.00171041440646
H           10.26845034368722       -0.88387797308369       -0.88836550229132
H           10.26926399486164       -0.88370314115791        0.88508652825406
H            9.14387980265693       -3.64583265804378        1.28445844953562
H            7.41905349348770       -3.28959078362245        1.27640809619584
H            8.52818252898125       -2.23561815969515        2.15126082420632
H            7.41793069564173       -3.28995533561885       -1.27653209239892
H            8.52615583751137       -2.23609810985998       -2.15266846062072
H            9.14277074828107       -3.64608102808232       -1.28613970073454
H            8.99526607919741        0.77628363118532       -0.00113015516220
H            7.28952916949342        2.52809448445047       -0.00059892035243
H            0.89122762486078        1.22179685502571        0.00210954467079
H           -5.60653643408156        1.76654821576890       -0.00163680468789
H           -7.96655500210175        1.16604323380203       -0.00314925274253

          :  Hamiltonian                  GFN2-xTB          :
         :: gradient norm              0.000034818407 Eh/a0 ::
         :: HOMO-LUMO gap              2.747743535557 eV    ::
         :: SCC energy              -100.981153810877 Eh    ::
         :: -> dispersion             -0.072066625319 Eh    ::
         :: -> Gsolv                  -0.045893052708 Eh    ::
         :: repulsion energy           1.542948484412 Eh    ::

    * Orbital Energies and Occupations

         #    Occupation            Energy/Eh            Energy/eV
      -------------------------------------------------------------
         1        2.0000           -0.7758482             -21.1119
       ...           ...                  ...                  ...
        79        2.0000           -0.4288590             -11.6698
        80        2.0000           -0.4270382             -11.6203
        81        2.0000           -0.4254690             -11.5776
        82        2.0000           -0.4233211             -11.5192
        83        2.0000           -0.4230757             -11.5125
        84        2.0000           -0.4205446             -11.4436
        85        2.0000           -0.4183788             -11.3847
        86        2.0000           -0.4168356             -11.3427
        87        2.0000           -0.4143652             -11.2755
        88        2.0000           -0.3979108             -10.8277
        89        2.0000           -0.3964757             -10.7887
        90        2.0000           -0.3948047             -10.7432
        91        2.0000           -0.3944578             -10.7337 (HOMO)
        92                         -0.2934801              -7.9860 (LUMO)
        93                         -0.2842795              -7.7356
        94                         -0.2647657              -7.2046
        95                         -0.2611040              -7.1050
        96                         -0.2334727              -6.3531
        97                         -0.2310196              -6.2864
        98                         -0.2155823              -5.8663
        99                         -0.1885601              -5.1310
       100                         -0.1861935              -5.0666
       101                         -0.1757011              -4.7811
       102                         -0.0958093              -2.6071
       ...                                ...                  ...
       174                          0.6582577              17.9121
      -------------------------------------------------------------
                  HL-Gap            0.1009777 Eh            2.7477 eV

     #   Z          covCN         q      C6AA      α(0)
     1   6 C        3.761    -0.112    22.683     6.789
     2   6 C        3.902     0.027    20.065     6.367
     3   6 C        3.761    -0.108    22.608     6.778
     4   6 C        3.761    -0.108    22.608     6.778
     5   6 C        2.973     0.022    27.520     8.605
     6   6 C        2.923    -0.034    28.852     8.809
     7   6 C        2.923    -0.030    28.739     8.791
     8   6 C        2.974    -0.016    28.395     8.741
     9   6 C        3.164     0.220    23.087     7.853
    10   7 N        2.045    -0.218    26.493     7.635
    11   7 N        2.044    -0.216    26.439     7.627
    12   6 C        3.166     0.217    23.141     7.861
    13   6 C        2.973    -0.004    28.130     8.700
    14   6 C        2.923    -0.023    28.571     8.766
    15   6 C        2.917    -0.020    28.516     8.757
    16   6 C        2.924    -0.024    28.600     8.770
    17   6 C        2.973    -0.001    28.052     8.688
    18   6 C        3.167     0.216    23.145     7.861
    19   7 N        2.044    -0.211    26.338     7.613
    20   7 N        2.045    -0.217    26.473     7.632
    21   6 C        3.165     0.220    23.076     7.850
    22   6 C        2.974    -0.015    28.391     8.740
    23   6 C        2.921    -0.029    28.721     8.788
    24   6 C        2.926    -0.032    28.798     8.800
    25   6 C        2.973     0.021    27.524     8.606
    26   6 C        3.902     0.027    20.066     6.367
    27   6 C        3.761    -0.112    22.684     6.790
    28   6 C        3.761    -0.108    22.608     6.778
    29   6 C        3.761    -0.108    22.608     6.778
    30   6 C        2.923    -0.034    28.858     8.809
    31   6 C        2.923    -0.030    28.742     8.792
    32   8 O        1.722    -0.229    17.789     5.695
    33   6 C        2.929    -0.027    28.668     8.781
    34   8 O        1.722    -0.230    17.803     5.697
    35   6 C        2.921    -0.029    28.728     8.790
    36   6 C        2.926    -0.032    28.802     8.801
    37   1 H        0.925     0.040     2.452     2.449
    38   1 H        0.925     0.040     2.452     2.449
    39   1 H        0.925     0.043     2.405     2.425
    40   1 H        0.925     0.045     2.381     2.413
    41   1 H        0.925     0.040     2.450     2.448
    42   1 H        0.925     0.036     2.504     2.475
    43   1 H        0.925     0.036     2.504     2.475
    44   1 H        0.925     0.045     2.381     2.413
    45   1 H        0.925     0.040     2.450     2.448
    46   1 H        0.926     0.057     2.230     2.335
    47   1 H        0.926     0.052     2.300     2.371
    48   1 H        0.926     0.060     2.196     2.317
    49   1 H        0.926     0.065     2.139     2.287
    50   1 H        0.926     0.070     2.083     2.257
    51   1 H        0.926     0.041     2.435     2.440
    52   1 H        0.926     0.047     2.353     2.399
    53   1 H        0.925     0.043     2.406     2.426
    54   1 H        0.925     0.040     2.451     2.448
    55   1 H        0.925     0.040     2.451     2.448
    56   1 H        0.925     0.045     2.383     2.414
    57   1 H        0.925     0.040     2.452     2.449
    58   1 H        0.925     0.036     2.504     2.475
    59   1 H        0.925     0.040     2.452     2.449
    60   1 H        0.925     0.036     2.504     2.475
    61   1 H        0.925     0.045     2.383     2.414
    62   1 H        0.926     0.058     2.227     2.334
    63   1 H        0.926     0.052     2.291     2.367
    64   1 H        0.926     0.064     2.149     2.293
    65   1 H        0.926     0.041     2.435     2.440
    66   1 H        0.926     0.048     2.348     2.396

molecular dipole:
                 x           y           z       tot (Debye)
 q only:       -1.181      -0.843      -0.002
   full:       -1.740      -0.797      -0.002       4.865

 projected vibrational frequencies (cm⁻¹)
eigval :       -0.00    -0.00    -0.00    -0.00     0.00     0.00
eigval :        8.88    13.38    19.45    20.38    28.95    38.50
eigval :       49.21    49.98    59.84    62.85    78.74    84.57
eigval :       96.11   131.12   134.88   139.20   171.74   172.27
eigval :      175.74   195.55   213.79   216.51   222.90   229.73
eigval :      234.06   238.45   297.19   301.97   306.47   315.66
eigval :      316.34   317.71   321.25   336.02   363.78   365.09
eigval :      371.70   372.01   376.37   406.89   407.08   426.35
eigval :      431.17   431.76   443.67   452.14   458.93   489.29
eigval :      516.35   529.82   536.21   548.75   592.76   593.59
eigval :      605.20   605.37   644.18   650.12   684.01   684.17
eigval :      699.31   719.60   723.60   728.32   738.04   752.13
eigval :      777.08   802.30   824.72   825.58   870.77   871.99
eigval :      881.43   882.18   886.78   902.39   922.30   922.86
eigval :      928.80   931.19   931.28   951.22   959.89   960.17
eigval :      961.68   961.84   964.06   964.72   965.82   966.34
eigval :      992.08   993.55  1011.22  1013.84  1033.42  1033.79
eigval :     1035.16  1036.28  1085.55  1088.37  1095.57  1103.10
eigval :     1115.64  1136.05  1136.55  1143.98  1145.00  1171.82
eigval :     1173.97  1176.48  1201.16  1202.29  1224.11  1224.49
eigval :     1230.90  1231.02  1232.26  1261.62  1271.23  1272.57
eigval :     1275.55  1281.96  1299.36  1308.08  1318.83  1329.11
eigval :     1329.27  1332.03  1396.75  1396.81  1402.16  1402.82
eigval :     1407.23  1407.48  1413.22  1426.68  1427.35  1440.50
eigval :     1463.31  1463.46  1485.93  1487.10  1489.05  1489.20
eigval :     1496.46  1496.57  1499.57  1500.96  1509.56  1509.95
eigval :     1515.11  1515.45  1531.64  1534.49  1537.18  1538.16
eigval :     1565.07  1565.20  1572.46  1581.51  1593.57  1593.64
eigval :     3024.20  3024.99  3025.13  3025.30  3028.66  3028.70
eigval :     3029.15  3029.22  3032.33  3032.83  3035.27  3035.55
eigval :     3039.85  3040.33  3046.19  3047.34  3049.12  3050.39
eigval :     3080.70  3081.04  3092.53  3095.14  3095.95  3100.23
eigval :     3101.91  3102.22  3113.83  3114.46  3122.36  3123.19

   temp. (K)  partition function   enthalpy   heat capacity  entropy
                                   cal/mol     cal/K/mol   cal/K/mol   J/K/mol
 298.15  VIB  0.397E+16            19245.026    116.036    121.136
         ROT  0.710E+08              888.752      2.981     38.906
         INT  0.282E+24            20133.779    119.017    160.042
         TR   0.101E+29             1481.254      4.968     44.365
         TOT                       21615.0326   123.9850   204.4065   855.2369

       T/K    H(0)-H(T)+PV         H(T)/Eh          T*S/Eh         G(T)/Eh
   ------------------------------------------------------------------------
    298.15    0.344457E-01    0.562560E+00    0.971201E-01    0.465440E+00
   ------------------------------------------------------------------------

         :::::::::::::::::::::::::::::::::::::::::::::::::::::
         ::                  THERMODYNAMIC                  ::
         :::::::::::::::::::::::::::::::::::::::::::::::::::::
         :: total free energy         -98.972765153081 Eh   ::
         ::.................................................::
         :: total energy              -99.438205327074 Eh   ::
         :: zero point energy           0.528114562511 Eh   ::
         :: G(RRHO) w/o ZPVE           -0.062674388518 Eh   ::
         :: G(RRHO) contrib.            0.465440173993 Eh   ::
         :::::::::::::::::::::::::::::::::::::::::::::::::::::

           -------------------------------------------------
          | TOTAL ENERGY              -99.438205327074 Eh   |
          | TOTAL ENTHALPY            -98.875645017579 Eh   |
          | TOTAL FREE ENERGY         -98.972765153081 Eh   |
          | GRADIENT NORM               0.000034816210 Eh/α |
          | HOMO-LUMO GAP               2.747743359883 eV   |
           -------------------------------------------------

 * finished run on 2025/09/13 at 10:38:10.712
