   * xtb version 6.7.1 (edcfbbe) compiled by 'albert@albert-system' on 2024-07-22

   ID    Z sym.   atoms
    1    6 C      1-23, 25, 26, 28, 30-32, 34, 36, 38, 40, 42, 44
    2    7 N      24
    3    9 F      27, 29, 33, 35, 37, 39, 41, 43, 45
    4    1 H      46-75

          program call               : xtb data2507/toluene/PFBP-2a/PFBP-2a_toluene_S0_crest.xyz --gfn 2 --gbsa toluene --ohess vtight --parallel 40 --molden --ceasefiles --namespace data2507/toluene/PFBP-2a/PFBP-2a_toluene_S0_finalOpt
      * Solvation model:               GBSA
        Solvent                        toluene
        Solvent mass                       9.2140E+01 g/mol
          :  Hamiltonian                  GFN2-xTB          :
 * total energy  :  -135.8297888 Eh     change       -0.1516867E-08 Eh
 * total energy  :  -135.8298654 Eh     change       -0.7659160E-04 Eh
 * total energy  :  -135.8298986 Eh     change       -0.3319096E-04 Eh
 * total energy  :  -135.8299089 Eh     change       -0.1029784E-04 Eh
 * total energy  :  -135.8299173 Eh     change       -0.8421408E-05 Eh
 * total energy  :  -135.8299212 Eh     change       -0.3878911E-05 Eh
 * total energy  :  -135.8299240 Eh     change       -0.2886653E-05 Eh
 * total energy  :  -135.8299258 Eh     change       -0.1724170E-05 Eh
 * total energy  :  -135.8299266 Eh     change       -0.8031282E-06 Eh
 * total energy  :  -135.8299273 Eh     change       -0.6985095E-06 Eh
 * total energy  :  -135.8299293 Eh     change       -0.4332707E-06 Eh
 * total energy  :  -135.8299298 Eh     change       -0.4084336E-06 Eh
 * total energy  :  -135.8299302 Eh     change       -0.4528507E-06 Eh
 * total energy  :  -135.8299306 Eh     change       -0.4324243E-06 Eh
 * total energy  :  -135.8299310 Eh     change       -0.3675069E-06 Eh
 * total energy  :  -135.8299313 Eh     change       -0.2901881E-06 Eh
 * total energy  :  -135.8299315 Eh     change       -0.2445396E-06 Eh
 * total energy  :  -135.8299318 Eh     change       -0.2253789E-06 Eh
 * total energy  :  -135.8299318 Eh     change       -0.3038110E-08 Eh
   *** GEOMETRY OPTIMIZATION CONVERGED AFTER 22 ITERATIONS ***

 final structure:
================
75
 xtb: 6.7.1 (edcfbbe)
C           -5.14750571685262        5.12878479005075        1.06834193405175
C           -4.33688687324134        4.99912335191828       -0.22983089926729
C           -5.28587722359320        4.99264427163909       -1.43767516682691
C           -3.42258700426067        6.22234138990164       -0.34635957229162
C           -3.55771074869212        3.69407198693863       -0.19879102128036
C           -2.17503592431784        3.62775403655186       -0.30199832527131
C           -1.51875977175885        2.41517145045709       -0.24602410755477
C           -2.21159545819683        1.21978189600325       -0.06374597808313
C           -3.60618768682005        1.25216414129691       -0.03155245594669
C           -4.23669033749711        2.48706060382207       -0.08791199380718
C           -4.45224571642768       -0.00485906736523        0.00915004596440
C           -5.33295169518713       -0.03913900241074       -1.25415855729713
C           -5.32863905181744        0.02558488074512        1.27550596284177
C           -3.60008186590137       -1.25793262357949        0.04677737009439
C           -4.23166915084011       -2.49595854602205        0.10252222197868
C           -3.54822520112509       -3.69675276362716        0.20798121351797
C           -4.24071237335051       -5.04963871203764        0.24281283332394
C           -3.71451392002282       -5.90540331836460       -0.91912989336454
C           -5.76228621846384       -4.94094481970362        0.10474691680172
C           -3.92781829185068       -5.73871206087194        1.57945775239643
C           -2.16217461450768       -3.62334434981044        0.30806873514969
C           -1.50770419331316       -2.41334882333905        0.25346778357198
C           -2.20752889129028       -1.21913875727308        0.07476045472182
N           -1.51813247281989        0.00146045935449        0.00531686618374
C           -0.13076315210790        0.00403774693620        0.00275729923125
C            0.61069808763198       -0.65565908912574       -0.99251168105140
F           -0.03966893877414       -1.27181695426625       -1.98999261789384
C            1.99426879865184       -0.66211695331377       -0.98663980424909
F            2.65006473811246       -1.27487929124294       -1.98194857416792
C            2.72314174255674        0.01117343275680       -0.00305686833919
C            4.19595219804102        0.01558842616450       -0.00648030718997
C            4.91307145617503        1.21275053796444        0.01720554962802
F            4.25536894760762        2.37400865247821        0.00987766637017
C            6.30322141987826        1.22598192356708        0.01532583771200
F            6.96481325341548        2.38500330661439        0.03190314222816
C            7.00619790115336        0.02443532784616       -0.01364193850677
F            8.33914126870666        0.02862171201290       -0.01704793307609
C            6.31063265136804       -1.18149751390218       -0.03899706379208
F            6.97942756935095       -2.33634167318733       -0.05895229340323
C            4.92042872391256       -1.17702637641742       -0.03375413883826
F            4.27008178169756       -2.34243516542894       -0.02309152704973
C            1.99492736167182        0.68059976895169        0.98366095049550
F            2.65161312647592        1.29671868190756        1.97628173887037
C            0.61148926164875        0.66725161937822        0.99509336371423
F           -0.03787166345755        1.28064477437202        1.99492036999838
H           -4.48373747674175        5.10571978690087        1.93044000790355
H           -5.86669669827867        4.32105766756049        1.17064665570104
H           -5.69141572878127        6.07099641827796        1.07656862607337
H           -5.82336028139077        5.93683445928951       -1.49476962036534
H           -4.72219481638979        4.86002420726794       -2.35908525101951
H           -6.01558025581072        4.19114954488401       -1.36573846156301
H           -4.02631726707973        7.12773942458087       -0.34615707120353
H           -2.73395750383170        6.27760875642754        0.49382319932586
H           -2.85379556558455        6.19965623843536       -1.27319555127555
H           -1.58061673344312        4.51592637523625       -0.43526404041861
H           -0.44521758571606        2.41267412830629       -0.36127780776356
H           -5.31334930164952        2.50607743867164       -0.04776911770986
H           -5.97147613440172        0.83744548644317       -1.30727083410037
H           -4.70512572655047       -0.06142290208441       -2.14314441346330
H           -5.96686178234102       -0.92082057528645       -1.25964328234515
H           -5.96177966328849       -0.85474683237935        1.33192482677456
H           -4.69789386305953        0.05375004897839        2.16225756634579
H           -5.96772919292544        0.90350428095442        1.28192968003420
H           -5.30660175900774       -2.50976979827733        0.06467222481623
H           -3.90678392834762       -5.41019726773921       -1.86900545726663
H           -4.21215398412574       -6.87289281896303       -0.92680144600736
H           -2.64451349625468       -6.07435467870057       -0.83468441814439
H           -6.19768062908927       -5.93813986455665        0.11877945706899
H           -6.19227890855193       -4.37815229429125        0.93014439950497
H           -6.03711045503780       -4.46903454068462       -0.83585326130689
H           -2.86073202937758       -5.90446232262238        1.69958550805703
H           -4.42944177376804       -6.70285187243958        1.62945535245507
H           -4.27361572333835       -5.12558628653097        2.40944545674147
H           -1.57068395485241       -4.51607736280031        0.43788461851964
H           -0.43396103805345       -2.40673714219747        0.36620298843291

          :  Hamiltonian                  GFN2-xTB          :
         :: gradient norm              0.000037881422 Eh/a0 ::
         :: HOMO-LUMO gap              1.107810873435 eV    ::
         :: SCC energy              -137.484412041921 Eh    ::
         :: -> dispersion             -0.096143459187 Eh    ::
         :: -> Gsolv                  -0.037666678245 Eh    ::
         :: repulsion energy           1.654480271713 Eh    ::

    * Orbital Energies and Occupations

         #    Occupation            Energy/Eh            Energy/eV
      -------------------------------------------------------------
         1        2.0000           -0.8794211             -23.9303
       ...           ...                  ...                  ...
       107        2.0000           -0.4435952             -12.0708
       108        2.0000           -0.4366890             -11.8829
       109        2.0000           -0.4353391             -11.8462
       110        2.0000           -0.4311604             -11.7325
       111        2.0000           -0.4286918             -11.6653
       112        2.0000           -0.4243339             -11.5467
       113        2.0000           -0.4175641             -11.3625
       114        2.0000           -0.4100281             -11.1574
       115        2.0000           -0.4094702             -11.1423
       116        2.0000           -0.4033753             -10.9764
       117        2.0000           -0.4016067             -10.9283
       118        2.0000           -0.3974574             -10.8154
       119        2.0000           -0.3617003              -9.8424 (HOMO)
       120                         -0.3209890              -8.7346 (LUMO)
       121                         -0.3027665              -8.2387
       122                         -0.2879647              -7.8359
       123                         -0.2856652              -7.7733
       124                         -0.2308859              -6.2827
       125                         -0.2252629              -6.1297
       126                         -0.2245407              -6.1101
       127                         -0.2022606              -5.5038
       128                         -0.1824763              -4.9654
       129                         -0.1615269              -4.3954
       130                         -0.1007493              -2.7415
       ...                                ...                  ...
       210                          0.6644105              18.0795
      -------------------------------------------------------------
                  HL-Gap            0.0407113 Eh            1.1078 eV

     #   Z          covCN         q      C6AA      α(0)
     1   6 C        3.761    -0.106    22.581     6.774
     2   6 C        3.902     0.026    20.079     6.369
     3   6 C        3.761    -0.106    22.579     6.774
     4   6 C        3.761    -0.109    22.621     6.780
     5   6 C        2.971     0.004    27.923     8.668
     6   6 C        2.926    -0.041    29.013     8.833
     7   6 C        2.922    -0.055    29.370     8.887
     8   6 C        2.927     0.051    26.853     8.498
     9   6 C        2.979    -0.006    28.175     8.707
    10   6 C        2.938    -0.041    29.026     8.836
    11   6 C        3.910     0.022    20.142     6.379
    12   6 C        3.761    -0.107    22.584     6.775
    13   6 C        3.761    -0.106    22.581     6.774
    14   6 C        2.979    -0.007    28.183     8.708
    15   6 C        2.936    -0.046    29.134     8.852
    16   6 C        2.971     0.004    27.922     8.667
    17   6 C        3.902     0.026    20.077     6.369
    18   6 C        3.762    -0.106    22.578     6.773
    19   6 C        3.761    -0.109    22.631     6.782
    20   6 C        3.761    -0.106    22.579     6.774
    21   6 C        2.928    -0.036    28.908     8.817
    22   6 C        2.921    -0.055    29.358     8.885
    23   6 C        2.926     0.051    26.853     8.498
    24   7 N        2.749    -0.034    21.903     6.951
    25   6 C        2.921     0.046    26.965     8.516
    26   6 C        2.780     0.138    24.966     8.184
    27   9 F        0.787    -0.179    11.025     3.922
    28   6 C        2.780     0.153    24.677     8.136
    29   9 F        0.787    -0.184    11.073     3.931
    30   6 C        2.973    -0.012    28.321     8.729
    31   6 C        2.971     0.002    27.977     8.676
    32   6 C        2.784     0.160    24.538     8.114
    33   9 F        0.787    -0.165    10.882     3.897
    34   6 C        2.774     0.146    24.815     8.159
    35   9 F        0.787    -0.161    10.840     3.889
    36   6 C        2.778     0.149    24.746     8.148
    37   9 F        0.787    -0.157    10.803     3.883
    38   6 C        2.774     0.146    24.815     8.159
    39   9 F        0.787    -0.161    10.841     3.889
    40   6 C        2.784     0.160    24.538     8.114
    41   9 F        0.787    -0.165    10.883     3.897
    42   6 C        2.780     0.153    24.676     8.136
    43   9 F        0.787    -0.184    11.072     3.931
    44   6 C        2.781     0.138    24.966     8.184
    45   9 F        0.787    -0.180    11.026     3.922
    46   1 H        0.925     0.034     2.532     2.488
    47   1 H        0.925     0.039     2.462     2.454
    48   1 H        0.925     0.040     2.447     2.446
    49   1 H        0.925     0.040     2.444     2.445
    50   1 H        0.925     0.034     2.532     2.488
    51   1 H        0.925     0.039     2.464     2.455
    52   1 H        0.925     0.039     2.465     2.455
    53   1 H        0.925     0.036     2.502     2.474
    54   1 H        0.925     0.036     2.503     2.474
    55   1 H        0.926     0.043     2.409     2.427
    56   1 H        0.926     0.018     2.759     2.597
    57   1 H        0.926     0.048     2.344     2.394
    58   1 H        0.925     0.047     2.358     2.401
    59   1 H        0.925     0.034     2.536     2.490
    60   1 H        0.925     0.048     2.343     2.394
    61   1 H        0.925     0.048     2.348     2.396
    62   1 H        0.925     0.034     2.536     2.490
    63   1 H        0.925     0.047     2.357     2.401
    64   1 H        0.926     0.055     2.256     2.349
    65   1 H        0.925     0.034     2.524     2.484
    66   1 H        0.925     0.040     2.448     2.447
    67   1 H        0.925     0.036     2.500     2.473
    68   1 H        0.925     0.039     2.462     2.454
    69   1 H        0.925     0.038     2.473     2.459
    70   1 H        0.925     0.038     2.471     2.458
    71   1 H        0.925     0.036     2.501     2.473
    72   1 H        0.925     0.040     2.444     2.445
    73   1 H        0.925     0.035     2.521     2.483
    74   1 H        0.926     0.036     2.500     2.473
    75   1 H        0.926     0.018     2.759     2.598

molecular dipole:
                 x           y           z       tot (Debye)
 q only:       -3.257      -0.019       0.005
   full:       -2.873      -0.024       0.005       7.302

 projected vibrational frequencies (cm⁻¹)
eigval :       -0.00    -0.00    -0.00     0.00     0.00     0.00
eigval :       13.24    17.68    19.42    24.48    31.05    38.71
eigval :       40.99    42.45    54.75    65.29    83.03    90.72
eigval :      104.33   113.68   119.94   120.15   129.42   130.13
eigval :      131.53   140.82   154.82   165.57   169.76   173.62
eigval :      176.29   185.23   203.81   206.55   210.76   219.87
eigval :      224.62   226.96   232.96   239.60   244.09   247.03
eigval :      256.89   262.85   274.73   277.00   288.30   295.14
eigval :      309.41   311.06   314.44   326.95   336.71   340.44
eigval :      341.31   350.74   357.03   362.70   372.50   392.10
eigval :      400.58   402.03   406.12   408.42   412.75   420.10
eigval :      424.68   435.80   445.14   454.77   457.69   461.10
eigval :      479.56   483.29   495.43   499.32   528.15   562.79
eigval :      571.55   575.45   576.49   580.95   583.92   585.70
eigval :      606.50   613.51   631.93   633.92   643.69   670.59
eigval :      690.35   691.26   694.85   697.65   712.66   745.01
eigval :      755.43   820.34   825.29   829.14   848.82   886.49
eigval :      895.55   899.03   905.84   915.77   919.82   933.52
eigval :      947.68   947.71   953.04   959.42   959.71   960.17
eigval :      962.25   962.68   963.44   964.63   965.17  1012.71
eigval :     1034.44  1035.06  1035.31  1035.47  1039.40  1082.64
eigval :     1083.61  1094.41  1102.69  1137.29  1153.20  1158.55
eigval :     1163.40  1180.75  1184.24  1207.54  1223.83  1225.18
eigval :     1225.82  1231.06  1233.94  1238.47  1258.20  1259.58
eigval :     1263.98  1280.27  1288.18  1292.03  1303.37  1305.83
eigval :     1320.90  1327.96  1340.03  1369.84  1398.47  1400.29
eigval :     1400.96  1402.82  1404.16  1411.14  1414.61  1420.27
eigval :     1427.16  1427.25  1441.17  1443.48  1454.46  1457.78
eigval :     1473.30  1478.78  1483.54  1484.16  1488.37  1488.53
eigval :     1490.47  1490.69  1491.23  1493.54  1498.46  1499.13
eigval :     1500.36  1502.16  1504.04  1509.44  1510.30  1511.16
eigval :     1515.72  1517.07  1545.59  1549.51  1563.28  1566.83
eigval :     1581.32  1596.05  1601.89  3020.41  3021.09  3022.17
eigval :     3022.79  3025.01  3025.42  3026.25  3026.65  3027.22
eigval :     3028.47  3028.74  3029.40  3031.81  3032.19  3036.50
eigval :     3036.71  3044.61  3045.47  3046.36  3047.60  3047.92
eigval :     3049.45  3054.67  3058.54  3079.84  3081.77  3096.67
eigval :     3106.42  3119.89  3134.01

   temp. (K)  partition function   enthalpy   heat capacity  entropy
                                   cal/mol     cal/K/mol   cal/K/mol   J/K/mol
 298.15  VIB  0.117E+20            25794.541    153.608    159.306
         ROT  0.814E+08              888.752      2.981     39.179
         INT  0.952E+27            26683.293    156.589    198.485
         TR   0.155E+29             1481.254      4.968     45.210
         TOT                       28164.5470   161.5569   243.6951  1019.6203

       T/K    H(0)-H(T)+PV         H(T)/Eh          T*S/Eh         G(T)/Eh
   ------------------------------------------------------------------------
    298.15    0.448831E-01    0.603605E+00    0.115787E+00    0.487817E+00
   ------------------------------------------------------------------------

         :::::::::::::::::::::::::::::::::::::::::::::::::::::
         ::                  THERMODYNAMIC                  ::
         :::::::::::::::::::::::::::::::::::::::::::::::::::::
         :: total free energy        -135.342114311274 Eh   ::
         ::.................................................::
         :: total energy             -135.829931767127 Eh   ::
         :: zero point energy           0.558721803274 Eh   ::
         :: G(RRHO) w/o ZPVE           -0.070904347421 Eh   ::
         :: G(RRHO) contrib.            0.487817455853 Eh   ::
         :::::::::::::::::::::::::::::::::::::::::::::::::::::

           -------------------------------------------------
          | TOTAL ENERGY             -135.829931767127 Eh   |
          | TOTAL ENTHALPY           -135.226326901214 Eh   |
          | TOTAL FREE ENERGY        -135.342114311274 Eh   |
          | GRADIENT NORM               0.000037888283 Eh/α |
          | HOMO-LUMO GAP               1.107810441000 eV   |
           -------------------------------------------------

 * finished run on 2025/09/04 at 06:41:00.011
