   * xtb version 6.7.1 (edcfbbe) compiled by 'albert@albert-system' on 2024-07-22

   ID    Z sym.   atoms
    1    6 C      1-23, 25, 26, 28, 30-32, 34, 36, 38, 40, 42, 44
    2    7 N      24
    3    9 F      27, 29, 33, 35, 37, 39, 41, 43, 45
    4    1 H      46-75

          program call               : xtb data2507/toluene/PFBP-2a/PFBP-2a_toluene_S0_finalOpt.xtbopt.xyz --gfn 2 --uhf 2 --gbsa toluene --ohess vtight --parallel 40 --molden --ceasefiles --namespace data2507/toluene/PFBP-2a/PFBP-2a_toluene_T1_preOpt
      * Solvation model:               GBSA
        Solvent                        toluene
        Solvent mass                       9.2140E+01 g/mol
          :  Hamiltonian                  GFN2-xTB          :
 * total energy  :  -135.7593905 Eh     change       -0.3939078E-08 Eh
 * total energy  :  -135.7657127 Eh     change       -0.6322178E-02 Eh
 * total energy  :  -135.7675964 Eh     change       -0.1883777E-02 Eh
 * total energy  :  -135.7680239 Eh     change       -0.4274507E-03 Eh
 * total energy  :  -135.7685486 Eh     change       -0.5246558E-03 Eh
 * total energy  :  -135.7689074 Eh     change       -0.3588395E-03 Eh
 * total energy  :  -135.7692971 Eh     change       -0.3897026E-03 Eh
 * total energy  :  -135.7695789 Eh     change       -0.2818460E-03 Eh
 * total energy  :  -135.7697454 Eh     change       -0.1664674E-03 Eh
 * total energy  :  -135.7698716 Eh     change       -0.1261490E-03 Eh
 * total energy  :  -135.7707851 Eh     change       -0.3145660E-06 Eh
 * total energy  :  -135.7707853 Eh     change       -0.2394445E-06 Eh
 * total energy  :  -135.7707856 Eh     change       -0.2555127E-06 Eh
 * total energy  :  -135.7707858 Eh     change       -0.2143891E-06 Eh
 * total energy  :  -135.7707858 Eh     change       -0.8493714E-08 Eh
 * total energy  :  -135.7707859 Eh     change       -0.1108659E-06 Eh
 * total energy  :  -135.7707860 Eh     change       -0.1005171E-06 Eh
 * total energy  :  -135.7707860 Eh     change       -0.1322405E-08 Eh
 * total energy  :  -135.7707861 Eh     change       -0.7058631E-07 Eh
   *** GEOMETRY OPTIMIZATION CONVERGED AFTER 54 ITERATIONS ***

 final structure:
================
75
 xtb: 6.7.1 (edcfbbe)
C           -5.13971075367588        5.14806594723555        0.97582914335366
C           -4.30991761838297        4.99517902987551       -0.31030517789902
C           -5.24557580489265        4.97655152905884       -1.53096768425489
C           -3.38227794568867        6.20683283740238       -0.43310104604249
C           -3.55416279248399        3.68571531737132       -0.24792671152765
C           -2.15720731144042        3.60895219980511       -0.29544820410275
C           -1.51389432665904        2.39932759255094       -0.22343683899624
C           -2.23615205278219        1.19957916133972       -0.09320575144988
C           -3.64658047516848        1.24876059537434       -0.07572950195764
C           -4.25871505012116        2.48658601166327       -0.14749330909589
C           -4.48460111628024       -0.00410081869003       -0.00003575635194
C           -5.36327938773213       -0.08268796881791       -1.26731768855195
C           -5.37689620079531        0.06808625824950        1.25803406377523
C           -3.63938421545710       -1.25116516217786        0.08401838599676
C           -4.25066777073789       -2.49302363735909        0.15274495130910
C           -3.54096639750920       -3.68424197015411        0.25973647016784
C           -4.21209921199272       -5.03818253057981        0.32635232788570
C           -3.69291665634324       -5.90378406408219       -0.83398841263441
C           -5.73750777676995       -4.95635373401875        0.22148725108083
C           -3.85203105535532       -5.70065740007003        1.66695558615630
C           -2.14144465395844       -3.59802025877886        0.32019021424509
C           -1.50142555244479       -2.38985537738825        0.24949955968185
C           -2.23064655169126       -1.19361344342629        0.10983114091545
N           -1.57220257718320        0.00440264333891        0.00830535714981
C           -0.15430954141414        0.00676193533544        0.00549962730893
C            0.58391258866665       -0.35470223606699       -1.14151468625695
F           -0.10498034158004       -0.66613198890539       -2.26149400109492
C            1.95187812186144       -0.35196113715948       -1.14679075488909
F            2.58580564088692       -0.61002684162158       -2.31188261904774
C            2.72286832466965        0.00910243827451       -0.00210080677142
C            4.15270402212996        0.00994162586229       -0.00636951953899
C            4.91930927268190        1.03423996898061        0.61302028628075
F            4.28000417477543        2.09877613239862        1.14535239110388
C            6.29350092717269        1.03794773526094        0.61191108396997
F            6.96728481474994        2.05280499383693        1.19048806808460
C            7.00683799221940        0.01215969764196       -0.01724835800752
F            8.35842932549021        0.01334449728642       -0.02255350463742
C            6.29040725171701       -1.01487905988645       -0.64074250596668
F            6.96133636161443       -2.02882002538783       -1.22429353692641
C            4.91625471294303       -1.01339487813742       -0.63118705097498
F            4.27456830278456       -2.07925007735708       -1.15816778888955
C            1.95733352778011        0.36925581816621        1.14653192582645
F            2.59702682537176        0.62910215542413        2.30809009091727
C            0.58926484142320        0.36958256112018        1.14856209008842
F           -0.09429398535526        0.68033035488213        2.27200403889877
H           -4.49027425778260        5.12837945848020        1.84840188600219
H           -5.87500605466911        4.35555459755388        1.07645921890862
H           -5.66565883099628        6.09950639130631        0.95993854840707
H           -5.75900467681202        5.93155367807760       -1.61133350567620
H           -4.67389731421446        4.81570385269207       -2.44241187265622
H           -5.99533105488784        4.19539463631236       -1.45184526777677
H           -3.97887578231883        7.11562895578622       -0.46952035985370
H           -2.71510575821579        6.28133530664094        0.42255468629053
H           -2.79155463752135        6.15993011202937       -1.34508926024474
H           -1.55880043229951        4.49844223901860       -0.39132482487145
H           -0.43675063055699        2.36822016407386       -0.27044838120157
H           -5.33456870524390        2.52520660899249       -0.12705424772999
H           -5.98748949251704        0.80033559017577       -1.35437156484418
H           -4.73430427460996       -0.15065318599481       -2.15230583097140
H           -6.00760564034398       -0.95480956602775       -1.23241982130875
H           -5.99454221162888       -0.82005586948370        1.34001844241087
H           -4.75772035467408        0.14376159555953        2.14929143029243
H           -6.02848803218115        0.93432150644808        1.21504424622935
H           -5.32489469403509       -2.53062781146818        0.12340166503337
H           -3.90945489815918       -5.42751730121416       -1.78791197938655
H           -4.18214483758439       -6.87462176079418       -0.81394515026256
H           -2.62078171405205       -6.06437089991566       -0.76802809163433
H           -6.15300726098570       -5.96052656403186        0.26464529007074
H           -6.15966365736960       -4.38829170685427        1.04685566793481
H           -6.04276248907286       -4.51114858322972       -0.72238317032235
H           -2.78007362442982       -5.84343913899934        1.76823785558552
H           -4.33187708597352       -6.67399618935088        1.73486820085052
H           -4.19613152149577       -5.08699751080780        2.49674995336691
H           -1.54413650982135       -4.48887548469175        0.42516223789062
H           -0.42492398677537       -2.35241269463961        0.30485667792456

          :  Hamiltonian                  GFN2-xTB          :
         :: gradient norm              0.000094380975 Eh/a0 ::
         :: HOMO-LUMO gap              0.966850615191 eV    ::
         :: SCC energy              -137.405676114157 Eh    ::
         :: -> dispersion             -0.094680823499 Eh    ::
         :: -> Gsolv                  -0.066509055897 Eh    ::
         :: repulsion energy           1.634890038512 Eh    ::

    * Orbital Energies and Occupations

         #    Occupation            Energy/Eh            Energy/eV
      -------------------------------------------------------------
         1        2.0000           -0.8492604             -23.1096
       ...           ...                  ...                  ...
       108        2.0000           -0.4416490             -12.0179
       109        2.0000           -0.4409846             -11.9998
       110        2.0000           -0.4345060             -11.8235
       111        2.0000           -0.4332030             -11.7881
       112        2.0000           -0.4312386             -11.7346
       113        2.0000           -0.4301745             -11.7056
       114        2.0000           -0.4298397             -11.6965
       115        2.0000           -0.4276531             -11.6370
       116        2.0000           -0.4263944             -11.6028
       117        2.0000           -0.4243923             -11.5483
       118        2.0000           -0.4146770             -11.2839
       119        1.0000           -0.3846343             -10.4664
       120        1.0000           -0.3006031              -8.1798 (HOMO)
       121                         -0.2650720              -7.2130 (LUMO)
       122                         -0.2618969              -7.1266
       123                         -0.2602977              -7.0831
       124                         -0.2518338              -6.8527
       125                         -0.2509233              -6.8280
       126                         -0.2498877              -6.7998
       127                         -0.2302654              -6.2658
       128                         -0.1563803              -4.2553
       129                         -0.1316113              -3.5813
       130                         -0.1259858              -3.4282
       131                         -0.1194800              -3.2512
       ...                                ...                  ...
       210                          0.6367419              17.3266
      -------------------------------------------------------------
                  HL-Gap            0.0355311 Eh            0.9669 eV

     #   Z          covCN         q      C6AA      α(0)
     1   6 C        3.762    -0.111    22.676     6.788
     2   6 C        3.903     0.032    19.986     6.355
     3   6 C        3.761    -0.112    22.682     6.789
     4   6 C        3.761    -0.115    22.741     6.798
     5   6 C        2.972     0.035    27.206     8.556
     6   6 C        2.921    -0.027    28.678     8.782
     7   6 C        2.917    -0.036    28.902     8.816
     8   6 C        2.934     0.063    26.593     8.457
     9   6 C        2.976     0.012    27.738     8.639
    10   6 C        2.930    -0.034    28.843     8.808
    11   6 C        3.910     0.028    20.041     6.363
    12   6 C        3.761    -0.114    22.723     6.795
    13   6 C        3.761    -0.114    22.722     6.795
    14   6 C        2.976     0.013    27.711     8.635
    15   6 C        2.928    -0.038    28.945     8.823
    16   6 C        2.972     0.035    27.204     8.555
    17   6 C        3.903     0.032    19.982     6.354
    18   6 C        3.762    -0.110    22.657     6.785
    19   6 C        3.760    -0.117    22.792     6.806
    20   6 C        3.762    -0.110    22.657     6.785
    21   6 C        2.922    -0.023    28.574     8.766
    22   6 C        2.917    -0.037    28.922     8.819
    23   6 C        2.934     0.063    26.589     8.457
    24   7 N        2.752     0.054    20.295     6.691
    25   6 C        2.927    -0.026    28.643     8.777
    26   6 C        2.773     0.130    25.138     8.212
    27   9 F        0.786    -0.209    11.329     3.976
    28   6 C        2.776     0.128    25.184     8.219
    29   9 F        0.787    -0.217    11.411     3.990
    30   6 C        2.965    -0.038    28.944     8.825
    31   6 C        2.964    -0.032    28.789     8.801
    32   6 C        2.782     0.127    25.193     8.221
    33   9 F        0.787    -0.206    11.299     3.971
    34   6 C        2.771     0.126    25.230     8.226
    35   9 F        0.786    -0.202    11.255     3.963
    36   6 C        2.776     0.103    25.708     8.304
    37   9 F        0.785    -0.208    11.317     3.974
    38   6 C        2.771     0.126    25.230     8.226
    39   9 F        0.786    -0.202    11.255     3.963
    40   6 C        2.782     0.127    25.194     8.221
    41   9 F        0.787    -0.206    11.300     3.971
    42   6 C        2.776     0.128    25.184     8.219
    43   9 F        0.787    -0.217    11.411     3.990
    44   6 C        2.773     0.130    25.137     8.212
    45   9 F        0.786    -0.209    11.329     3.976
    46   1 H        0.925     0.041     2.437     2.441
    47   1 H        0.925     0.049     2.327     2.385
    48   1 H        0.925     0.052     2.301     2.372
    49   1 H        0.925     0.051     2.303     2.373
    50   1 H        0.925     0.041     2.432     2.439
    51   1 H        0.925     0.049     2.327     2.385
    52   1 H        0.925     0.047     2.359     2.402
    53   1 H        0.925     0.041     2.430     2.438
    54   1 H        0.925     0.042     2.426     2.436
    55   1 H        0.926     0.069     2.098     2.265
    56   1 H        0.926     0.047     2.352     2.398
    57   1 H        0.926     0.078     1.996     2.209
    58   1 H        0.925     0.066     2.133     2.284
    59   1 H        0.925     0.047     2.363     2.404
    60   1 H        0.925     0.067     2.120     2.277
    61   1 H        0.925     0.066     2.127     2.281
    62   1 H        0.925     0.047     2.362     2.403
    63   1 H        0.925     0.066     2.130     2.282
    64   1 H        0.926     0.085     1.927     2.171
    65   1 H        0.925     0.042     2.420     2.433
    66   1 H        0.925     0.051     2.305     2.374
    67   1 H        0.925     0.043     2.413     2.429
    68   1 H        0.925     0.048     2.349     2.397
    69   1 H        0.925     0.047     2.354     2.399
    70   1 H        0.925     0.047     2.357     2.401
    71   1 H        0.925     0.043     2.412     2.428
    72   1 H        0.925     0.052     2.301     2.372
    73   1 H        0.925     0.043     2.410     2.427
    74   1 H        0.926     0.063     2.169     2.303
    75   1 H        0.926     0.047     2.356     2.400

molecular dipole:
                 x           y           z       tot (Debye)
 q only:      -12.723      -0.078       0.029
   full:      -12.071      -0.077       0.029      30.683

 projected vibrational frequencies (cm⁻¹)
eigval :       -0.00    -0.00    -0.00    -0.00     0.00     0.00
eigval :       12.78    16.85    18.86    22.90    30.88    37.12
eigval :       40.03    46.63    52.92    59.17    77.82    81.34
eigval :       98.27   107.69   109.61   120.53   121.57   126.20
eigval :      134.52   146.57   152.21   157.86   165.54   170.38
eigval :      173.35   195.16   198.62   204.52   214.39   215.05
eigval :      218.60   221.62   224.49   236.15   240.78   244.66
eigval :      250.33   264.23   275.51   278.79   289.25   300.80
eigval :      305.44   313.26   317.70   319.52   329.06   333.94
eigval :      337.31   340.63   347.33   351.02   357.27   372.97
eigval :      381.97   393.56   395.10   396.00   397.13   397.89
eigval :      408.76   433.53   435.60   443.67   447.85   451.20
eigval :      476.26   483.13   486.53   496.97   512.53   524.19
eigval :      524.42   533.68   547.98   550.09   565.87   572.20
eigval :      579.63   587.42   590.74   612.44   633.99   666.47
eigval :      677.47   680.92   692.54   701.24   711.95   738.66
eigval :      753.30   818.35   819.15   826.22   847.96   884.85
eigval :      892.73   895.42   901.52   912.51   918.16   922.54
eigval :      933.76   934.23   944.45   947.14   958.38   959.06
eigval :      961.43   962.02   962.26   965.47   966.21  1007.75
eigval :     1012.03  1026.46  1026.95  1027.23  1034.89  1036.22
eigval :     1042.09  1073.99  1087.04  1116.88  1127.77  1131.33
eigval :     1147.67  1159.34  1167.83  1194.16  1209.99  1210.86
eigval :     1212.20  1214.85  1221.96  1227.34  1243.16  1256.31
eigval :     1258.07  1268.65  1288.73  1305.48  1307.91  1312.67
eigval :     1314.39  1327.87  1340.95  1350.47  1357.21  1394.23
eigval :     1394.45  1399.86  1400.89  1402.11  1402.38  1404.11
eigval :     1411.53  1413.93  1420.96  1426.10  1426.91  1432.57
eigval :     1439.64  1464.67  1468.87  1471.08  1475.55  1482.48
eigval :     1482.61  1482.76  1483.17  1484.62  1485.49  1488.71
eigval :     1491.82  1492.77  1494.66  1495.97  1496.58  1502.12
eigval :     1509.52  1509.78  1510.72  1512.67  1516.57  1554.19
eigval :     1566.53  1588.63  1624.79  3028.43  3028.88  3029.66
eigval :     3030.89  3032.88  3033.06  3033.90  3034.87  3037.89
eigval :     3038.15  3038.60  3039.41  3039.59  3039.65  3044.45
eigval :     3045.73  3051.21  3053.44  3054.69  3057.17  3062.06
eigval :     3063.88  3067.75  3071.85  3102.63  3104.16  3114.87
eigval :     3121.08  3133.38  3142.79

   temp. (K)  partition function   enthalpy   heat capacity  entropy
                                   cal/mol     cal/K/mol   cal/K/mol   J/K/mol
 298.15  VIB  0.344E+20            26241.790    155.505    162.509
         ROT  0.815E+08              888.752      2.981     39.181
         INT  0.280E+28            27130.543    158.486    201.691
         TR   0.155E+29             1481.254      4.968     45.210
         TOT                       28611.7966   163.4542   246.9007  1033.0326

       T/K    H(0)-H(T)+PV         H(T)/Eh          T*S/Eh         G(T)/Eh
   ------------------------------------------------------------------------
    298.15    0.455958E-01    0.600852E+00    0.117311E+00    0.483542E+00
   ------------------------------------------------------------------------

         :::::::::::::::::::::::::::::::::::::::::::::::::::::
         ::                  THERMODYNAMIC                  ::
         :::::::::::::::::::::::::::::::::::::::::::::::::::::
         :: total free energy        -135.287244183928 Eh   ::
         ::.................................................::
         :: total energy             -135.770786072840 Eh   ::
         :: zero point energy           0.555256590359 Eh   ::
         :: G(RRHO) w/o ZPVE           -0.071714701447 Eh   ::
         :: G(RRHO) contrib.            0.483541888912 Eh   ::
         :::::::::::::::::::::::::::::::::::::::::::::::::::::

           -------------------------------------------------
          | TOTAL ENERGY             -135.770786072840 Eh   |
          | TOTAL ENTHALPY           -135.169933682231 Eh   |
          | TOTAL FREE ENERGY        -135.287244183928 Eh   |
          | GRADIENT NORM               0.000095494868 Eh/α |
          | HOMO-LUMO GAP               0.966851796872 eV   |
           -------------------------------------------------

 * finished run on 2025/09/04 at 06:41:07.002
