   * xtb version 6.7.1 (edcfbbe) compiled by 'albert@albert-system' on 2024-07-22

   ID    Z sym.   atoms
    1    6 C      1-23, 25, 26, 28, 30-32, 34, 36, 38, 40, 42, 44
    2    7 N      24
    3    9 F      27, 29, 33, 35, 37, 39, 41, 43, 45
    4    1 H      46-75

          program call               : xtb data2507/toluene/PFBP-2a/PFBP-2a.xyz --gfn 2 --gbsa toluene --ohess vtight --parallel 40 --molden --ceasefiles --namespace data2507/toluene/PFBP-2a/PFBP-2a_toluene_S0_preOpt
      * Solvation model:               GBSA
        Solvent                        toluene
        Solvent mass                       9.2140E+01 g/mol
          :  Hamiltonian                  GFN2-xTB          :
 * total energy  :  -135.8110541 Eh     change       -0.1664830E-08 Eh
 * total energy  :  -135.8209537 Eh     change       -0.9899551E-02 Eh
 * total energy  :  -135.8245796 Eh     change       -0.3625933E-02 Eh
 * total energy  :  -135.8257306 Eh     change       -0.1150966E-02 Eh
 * total energy  :  -135.8262556 Eh     change       -0.5250700E-03 Eh
 * total energy  :  -135.8263750 Eh     change       -0.1193613E-03 Eh
 * total energy  :  -135.8264509 Eh     change       -0.7593545E-04 Eh
 * total energy  :  -135.8265364 Eh     change       -0.8544454E-04 Eh
 * total energy  :  -135.8266405 Eh     change       -0.1041312E-03 Eh
 * total energy  :  -135.8267852 Eh     change       -0.1446587E-03 Eh
 * total energy  :  -135.8299691 Eh     change       -0.6572558E-06 Eh
 * total energy  :  -135.8299699 Eh     change       -0.8401621E-06 Eh
 * total energy  :  -135.8299708 Eh     change       -0.9007922E-06 Eh
 * total energy  :  -135.8299716 Eh     change       -0.8168346E-06 Eh
 * total energy  :  -135.8299724 Eh     change       -0.7644444E-06 Eh
 * total energy  :  -135.8299730 Eh     change       -0.5890134E-06 Eh
 * total energy  :  -135.8299734 Eh     change       -0.3752897E-06 Eh
 * total energy  :  -135.8299736 Eh     change       -0.2286587E-06 Eh
 * total energy  :  -135.8299736 Eh     change       -0.2095032E-07 Eh
   *** GEOMETRY OPTIMIZATION CONVERGED AFTER 55 ITERATIONS ***

 final structure:
================
75
 xtb: 6.7.1 (edcfbbe)
C           -1.93558596956476        5.84578435184522       -1.26376918003444
C           -2.25015379785627        5.09767905330103        0.04031511289032
C           -1.69157130065786        5.88147672036852        1.23730981535864
C           -3.77219695205810        5.01652110274045        0.19168287619050
C           -1.58908476501352        3.72944619599109       -0.00209456494777
C           -0.20561208331393        3.62960650005707       -0.11485115394784
C            0.42053160573474        2.40356915869086       -0.12978549000726
C           -0.30634385742713        1.21781618152636       -0.01258326838420
C           -1.69739742608189        1.28734242879259        0.02556215316221
C           -2.29993570499375        2.54085371235184        0.04185497074196
C           -2.57854648126325        0.05431713923402       -0.00171843318939
C           -3.46034880298346        0.11517709533772       -1.26331028690778
C           -3.45346661274596        0.03805075973214        1.26593301976820
C           -1.76195650149216       -1.22217424520538       -0.03607339495427
C           -2.42153126314620       -2.44303141559642       -0.04559548480358
C           -1.77121562067570       -3.67008273072469       -0.00856736558336
C           -2.58168412188629       -4.95584436441895       -0.04403412299972
C           -1.69580972817169       -6.20511771485566       -0.02535061914658
C           -3.42182135542673       -4.98532171867047       -1.32950891192500
C           -3.50488690775162       -5.00246027110771        1.18280425158610
C           -0.38683300400101       -3.64249299441534        0.08922140081013
C            0.29799165446139       -2.44449955305220        0.09856197085440
C           -0.36681246010486       -1.22443182029707       -0.01037759670080
N            0.35478771558316       -0.02035995259958       -0.01370520028417
C            1.74161024047446       -0.05410474642499       -0.00995769947850
C            2.47171313590830       -0.67895703498061       -1.03562640047459
F            1.81194102964038       -1.22151675495366       -2.06901471246420
C            3.85445766681065       -0.72568618650666       -1.02141037266428
F            4.50029017319237       -1.30378629460768       -2.04360850208476
C            4.59448857475218       -0.12749782411376        0.00151811215832
C            6.06681355418663       -0.16875372831292        0.00988507870790
C            6.82072590053094        1.00226180455722        0.10010643904599
F            6.19970825549780        2.18276038589092        0.14480957630855
C            8.21054536475047        0.97119922596504        0.11228507646550
F            8.90810347390350        2.10617931507103        0.19323937866661
C            8.87577257001603       -0.24931889260399        0.03070746081055
F           10.20813358003082       -0.28759439555447        0.04098843840332
C            8.14303573476800       -1.42979359166984       -0.06156445225921
F            8.77553980398528       -2.60300548458016       -0.13208092513569
C            6.75373545929852       -1.38107195569982       -0.07022906476658
F            6.06660947014753       -2.52397885307506       -0.12462547540020
C            3.87806633640112        0.50945666577560        1.01792983888346
F            4.54463244671194        1.05399488689270        2.04523325627010
C            2.49474544800942        0.53425825282795        1.02073451288369
F            1.85521396598346        1.11046441783136        2.04860471414602
H           -2.30073861444712        5.28129243632084       -2.11959290869922
H           -0.86645131846049        5.99633950487461       -1.38599181663974
H           -2.41837680469165        6.82077363629794       -1.26132092772665
H           -2.16639835151872        6.85840905119648        1.29971393678978
H           -1.88497683903009        5.34331878866255        2.16329003457425
H           -0.61893976248922        6.03026173977534        1.14872147365478
H           -4.04709250691859        4.49863740984161        1.10776318421017
H           -4.18388916734985        6.02267098951866        0.23950343063945
H           -4.22515389561199        4.51146876485608       -0.65841853669267
H            0.40594676265871        4.51416277598739       -0.20019804206308
H            1.49325818417428        2.37805522308005       -0.24952424840626
H           -3.37406153611402        2.57744563525906        0.08698529894626
H           -4.07277182957699        1.01182374682219       -1.26710180063348
H           -2.83402073450965        0.12205491080186       -2.15364469431369
H           -4.11992769217113       -0.74590928485228       -1.31546497698431
H           -4.11555288046141       -0.82251272160269        1.27067335980024
H           -2.82228129828975       -0.00890832092356        2.15156611084833
H           -4.06317486122289        0.93459763035299        1.32631410674264
H           -3.49855057032114       -2.43420459846853       -0.07865681968086
H           -1.02169140225238       -6.21877966776074       -0.87892373126890
H           -2.32124462415325       -7.09419216280905       -0.07632166536190
H           -1.11245988860674       -6.25890058422198        0.89104072707984
H           -3.98758009957351       -5.91300227344860       -1.38441901703574
H           -4.12432514405512       -4.15759683982160       -1.36547430027678
H           -2.77570191767509       -4.92286075487062       -2.20298015456237
H           -2.91858838867835       -4.94566511483633        2.09790715729138
H           -4.06814191201964       -5.93321009315109        1.19105277394262
H           -4.21201179990706       -4.17778291630351        1.17906299191860
H            0.18675892850724       -4.55075554370691        0.16709459488169
H            1.37174552060095       -2.47436019762599        0.20749768345475

          :  Hamiltonian                  GFN2-xTB          :
         :: gradient norm              0.000126155569 Eh/a0 ::
         :: HOMO-LUMO gap              1.110642214138 eV    ::
         :: SCC energy              -137.484412888137 Eh    ::
         :: -> dispersion             -0.096145957529 Eh    ::
         :: -> Gsolv                  -0.037707406694 Eh    ::
         :: repulsion energy           1.654439276831 Eh    ::

    * Orbital Energies and Occupations

         #    Occupation            Energy/Eh            Energy/eV
      -------------------------------------------------------------
         1        2.0000           -0.8794303             -23.9305
       ...           ...                  ...                  ...
       107        2.0000           -0.4436016             -12.0710
       108        2.0000           -0.4366886             -11.8829
       109        2.0000           -0.4353442             -11.8463
       110        2.0000           -0.4311639             -11.7326
       111        2.0000           -0.4286978             -11.6655
       112        2.0000           -0.4243264             -11.5465
       113        2.0000           -0.4175550             -11.3622
       114        2.0000           -0.4100031             -11.1568
       115        2.0000           -0.4094733             -11.1423
       116        2.0000           -0.4033850             -10.9767
       117        2.0000           -0.4016043             -10.9282
       118        2.0000           -0.3974577             -10.8154
       119        2.0000           -0.3617209              -9.8429 (HOMO)
       120                         -0.3209056              -8.7323 (LUMO)
       121                         -0.3027759              -8.2390
       122                         -0.2879300              -7.8350
       123                         -0.2857378              -7.7753
       124                         -0.2308883              -6.2828
       125                         -0.2252610              -6.1297
       126                         -0.2245348              -6.1099
       127                         -0.2022809              -5.5043
       128                         -0.1824396              -4.9644
       129                         -0.1615954              -4.3972
       130                         -0.1007482              -2.7415
       ...                                ...                  ...
       210                          0.6644253              18.0799
      -------------------------------------------------------------
                  HL-Gap            0.0408152 Eh            1.1106 eV

     #   Z          covCN         q      C6AA      α(0)
     1   6 C        3.761    -0.106    22.578     6.774
     2   6 C        3.902     0.026    20.077     6.369
     3   6 C        3.762    -0.106    22.578     6.774
     4   6 C        3.761    -0.109    22.631     6.782
     5   6 C        2.971     0.004    27.921     8.667
     6   6 C        2.928    -0.036    28.908     8.817
     7   6 C        2.921    -0.055    29.357     8.885
     8   6 C        2.926     0.051    26.854     8.498
     9   6 C        2.979    -0.007    28.182     8.708
    10   6 C        2.936    -0.046    29.135     8.852
    11   6 C        3.910     0.022    20.142     6.379
    12   6 C        3.761    -0.106    22.581     6.774
    13   6 C        3.761    -0.107    22.584     6.774
    14   6 C        2.979    -0.006    28.175     8.707
    15   6 C        2.938    -0.041    29.026     8.836
    16   6 C        2.971     0.004    27.923     8.668
    17   6 C        3.902     0.026    20.079     6.369
    18   6 C        3.761    -0.109    22.621     6.780
    19   6 C        3.761    -0.107    22.582     6.774
    20   6 C        3.761    -0.106    22.578     6.774
    21   6 C        2.926    -0.041    29.013     8.833
    22   6 C        2.922    -0.055    29.370     8.887
    23   6 C        2.926     0.051    26.854     8.498
    24   7 N        2.749    -0.034    21.902     6.951
    25   6 C        2.921     0.046    26.966     8.516
    26   6 C        2.780     0.138    24.966     8.184
    27   9 F        0.787    -0.180    11.026     3.922
    28   6 C        2.780     0.153    24.676     8.136
    29   9 F        0.787    -0.184    11.073     3.931
    30   6 C        2.973    -0.012    28.321     8.729
    31   6 C        2.971     0.002    27.976     8.676
    32   6 C        2.784     0.160    24.537     8.114
    33   9 F        0.787    -0.165    10.883     3.897
    34   6 C        2.774     0.146    24.815     8.159
    35   9 F        0.787    -0.161    10.841     3.889
    36   6 C        2.778     0.149    24.746     8.148
    37   9 F        0.787    -0.157    10.803     3.883
    38   6 C        2.774     0.146    24.815     8.159
    39   9 F        0.787    -0.161    10.840     3.889
    40   6 C        2.784     0.160    24.538     8.114
    41   9 F        0.787    -0.165    10.883     3.897
    42   6 C        2.780     0.153    24.677     8.137
    43   9 F        0.787    -0.184    11.073     3.931
    44   6 C        2.781     0.138    24.967     8.184
    45   9 F        0.787    -0.179    11.026     3.922
    46   1 H        0.925     0.035     2.521     2.483
    47   1 H        0.925     0.036     2.501     2.473
    48   1 H        0.925     0.040     2.443     2.444
    49   1 H        0.925     0.040     2.448     2.447
    50   1 H        0.925     0.034     2.524     2.484
    51   1 H        0.925     0.036     2.500     2.473
    52   1 H        0.925     0.038     2.471     2.458
    53   1 H        0.925     0.039     2.462     2.454
    54   1 H        0.925     0.038     2.472     2.459
    55   1 H        0.926     0.036     2.500     2.473
    56   1 H        0.926     0.018     2.760     2.598
    57   1 H        0.926     0.055     2.255     2.349
    58   1 H        0.925     0.048     2.347     2.396
    59   1 H        0.925     0.034     2.536     2.490
    60   1 H        0.925     0.047     2.357     2.401
    61   1 H        0.925     0.047     2.358     2.401
    62   1 H        0.925     0.034     2.536     2.490
    63   1 H        0.925     0.048     2.343     2.394
    64   1 H        0.926     0.048     2.344     2.394
    65   1 H        0.925     0.036     2.502     2.474
    66   1 H        0.925     0.039     2.465     2.455
    67   1 H        0.925     0.036     2.503     2.474
    68   1 H        0.925     0.040     2.448     2.447
    69   1 H        0.925     0.039     2.461     2.453
    70   1 H        0.925     0.034     2.531     2.488
    71   1 H        0.925     0.034     2.533     2.489
    72   1 H        0.925     0.040     2.443     2.444
    73   1 H        0.925     0.039     2.464     2.455
    74   1 H        0.926     0.043     2.410     2.427
    75   1 H        0.926     0.018     2.757     2.597

molecular dipole:
                 x           y           z       tot (Debye)
 q only:       -3.257       0.098      -0.002
   full:       -2.873       0.094      -0.002       7.306

 projected vibrational frequencies (cm⁻¹)
eigval :       -0.00    -0.00    -0.00    -0.00     0.00     0.00
eigval :       13.24    17.09    22.75    27.08    31.70    38.49
eigval :       42.28    43.58    54.63    65.97    83.75    90.11
eigval :      105.03   114.41   120.44   120.63   129.61   130.79
eigval :      132.11   142.16   154.92   166.07   169.99   175.04
eigval :      179.94   187.61   204.21   207.30   211.67   222.05
eigval :      225.12   226.87   233.36   239.53   244.51   247.17
eigval :      257.01   262.82   274.63   277.29   288.35   295.70
eigval :      309.05   311.87   314.40   326.95   337.11   340.66
eigval :      341.34   349.97   357.17   362.52   372.88   392.46
eigval :      400.45   402.01   406.27   409.16   413.86   419.93
eigval :      424.73   435.94   444.42   454.82   457.57   462.61
eigval :      479.57   483.25   495.49   499.26   528.60   562.77
eigval :      571.59   576.85   577.44   582.18   584.45   585.68
eigval :      607.80   612.67   632.56   633.80   644.56   670.83
eigval :      690.41   691.33   695.15   697.83   713.15   745.10
eigval :      755.61   820.42   824.56   831.34   848.95   888.55
eigval :      894.79   898.95   905.77   915.17   921.28   933.63
eigval :      947.64   947.74   952.93   958.86   959.63   959.88
eigval :      962.09   962.77   963.14   963.72   965.00  1013.01
eigval :     1034.01  1034.29  1035.36  1036.00  1039.54  1082.56
eigval :     1083.64  1094.46  1102.52  1137.39  1153.39  1158.30
eigval :     1163.71  1181.12  1184.31  1207.90  1223.77  1225.17
eigval :     1225.58  1230.96  1234.03  1238.54  1258.11  1259.97
eigval :     1264.10  1280.66  1288.12  1292.11  1303.55  1306.03
eigval :     1320.72  1327.80  1339.88  1370.00  1398.75  1400.58
eigval :     1400.84  1402.85  1402.94  1411.26  1414.67  1420.08
eigval :     1426.49  1427.33  1441.34  1443.81  1454.50  1457.77
eigval :     1473.41  1478.67  1483.84  1484.44  1488.46  1488.93
eigval :     1490.34  1490.64  1491.32  1493.99  1498.61  1499.19
eigval :     1500.40  1502.38  1504.19  1509.61  1510.73  1511.47
eigval :     1515.69  1517.15  1545.82  1549.65  1563.34  1566.85
eigval :     1581.34  1596.02  1601.88  3020.95  3021.43  3022.25
eigval :     3022.82  3024.86  3025.37  3025.83  3026.70  3027.32
eigval :     3028.35  3028.73  3029.47  3032.03  3032.07  3036.95
eigval :     3036.98  3044.54  3045.62  3046.77  3047.69  3047.97
eigval :     3050.13  3054.68  3058.63  3080.00  3082.25  3096.83
eigval :     3106.52  3120.48  3134.24

   temp. (K)  partition function   enthalpy   heat capacity  entropy
                                   cal/mol     cal/K/mol   cal/K/mol   J/K/mol
 298.15  VIB  0.810E+19            25756.962    153.663    158.893
         ROT  0.814E+08              888.752      2.981     39.179
         INT  0.659E+27            26645.714    156.644    198.072
         TR   0.155E+29             1481.254      4.968     45.210
         TOT                       28126.9678   161.6125   243.2818  1017.8910

       T/K    H(0)-H(T)+PV         H(T)/Eh          T*S/Eh         G(T)/Eh
   ------------------------------------------------------------------------
    298.15    0.448232E-01    0.603659E+00    0.115591E+00    0.488068E+00
   ------------------------------------------------------------------------

         :::::::::::::::::::::::::::::::::::::::::::::::::::::
         ::                  THERMODYNAMIC                  ::
         :::::::::::::::::::::::::::::::::::::::::::::::::::::
         :: total free energy        -135.341905909480 Eh   ::
         ::.................................................::
         :: total energy             -135.829973611607 Eh   ::
         :: zero point energy           0.558835551955 Eh   ::
         :: G(RRHO) w/o ZPVE           -0.070767849828 Eh   ::
         :: G(RRHO) contrib.            0.488067702126 Eh   ::
         :::::::::::::::::::::::::::::::::::::::::::::::::::::

           -------------------------------------------------
          | TOTAL ENERGY             -135.829973611607 Eh   |
          | TOTAL ENTHALPY           -135.226314883279 Eh   |
          | TOTAL FREE ENERGY        -135.341905909480 Eh   |
          | GRADIENT NORM               0.000126201645 Eh/α |
          | HOMO-LUMO GAP               1.110638736026 eV   |
           -------------------------------------------------

 * finished run on 2025/09/04 at 06:35:55.313
