   * xtb version 6.7.1 (edcfbbe) compiled by 'albert@albert-system' on 2024-07-22

   ID    Z sym.   atoms
    1    6 C      1-23, 25, 26, 28, 30-32, 34, 36, 38, 40, 42, 44
    2    7 N      24
    3    9 F      27, 29, 33, 35, 37, 39, 41, 43, 45
    4    1 H      46-75

          program call               : xtb data2507/toluene/PFBP-2a/PFBP-2a_toluene_T1_crest.xyz --gfn 2 --uhf 2 --gbsa toluene --ohess vtight --parallel 40 --molden --ceasefiles --namespace data2507/toluene/PFBP-2a/PFBP-2a_toluene_T1_finalOpt
      * Solvation model:               GBSA
        Solvent                        toluene
        Solvent mass                       9.2140E+01 g/mol
          :  Hamiltonian                  GFN2-xTB          :
 * total energy  :  -135.7697387 Eh     change       -0.1834792E-08 Eh
 * total energy  :  -135.7702638 Eh     change       -0.5250083E-03 Eh
 * total energy  :  -135.7704693 Eh     change       -0.2055607E-03 Eh
 * total energy  :  -135.7705088 Eh     change       -0.3945098E-04 Eh
 * total energy  :  -135.7705541 Eh     change       -0.4537411E-04 Eh
 * total energy  :  -135.7705860 Eh     change       -0.3182665E-04 Eh
 * total energy  :  -135.7706237 Eh     change       -0.3769694E-04 Eh
 * total energy  :  -135.7706915 Eh     change       -0.6782611E-04 Eh
 * total energy  :  -135.7707282 Eh     change       -0.3674401E-04 Eh
 * total energy  :  -135.7707611 Eh     change       -0.3283590E-04 Eh
 * total energy  :  -135.7710119 Eh     change       -0.1272012E-05 Eh
 * total energy  :  -135.7710132 Eh     change       -0.1268166E-05 Eh
 * total energy  :  -135.7710142 Eh     change       -0.1072229E-05 Eh
 * total energy  :  -135.7710150 Eh     change       -0.7443968E-06 Eh
 * total energy  :  -135.7710155 Eh     change       -0.5751954E-06 Eh
 * total energy  :  -135.7710160 Eh     change       -0.4384335E-06 Eh
 * total energy  :  -135.7710163 Eh     change       -0.3206663E-06 Eh
 * total energy  :  -135.7710165 Eh     change       -0.1903325E-06 Eh
 * total energy  :  -135.7710165 Eh     change       -0.4310505E-07 Eh
   *** GEOMETRY OPTIMIZATION CONVERGED AFTER 41 ITERATIONS ***

 final structure:
================
75
 xtb: 6.7.1 (edcfbbe)
C           -3.90575998445248        5.63573655715220       -1.77569714575817
C           -4.26934580114086        4.99716297501493       -0.42444083196137
C           -3.77049200684448        5.89331954124883        0.72144569275476
C           -5.79447873515658        4.89886009760401       -0.33019926795591
C           -3.58257412162269        3.65304141603199       -0.32514167077963
C           -2.18161619550660        3.58295054033046       -0.37132265167770
C           -1.52765031663152        2.38390703380524       -0.27563300310619
C           -2.24379418808488        1.18154014350771       -0.12317659390721
C           -3.65318903084636        1.22246533072846       -0.10814077196783
C           -4.27887354915255        2.45547909890137       -0.20313639334988
C           -4.48353287403843       -0.03331257690021       -0.00913631541925
C           -5.36087154311499       -0.14107545232328       -1.27549977201186
C           -5.37826363106215        0.05815040973162        1.24619681717258
C           -3.63155599332455       -1.27373578866885        0.09891267888415
C           -4.23554948874127       -2.51777983329350        0.19069458996536
C           -3.51865749745891       -3.70244105065537        0.31922056684531
C           -4.18176612962447       -5.05875757406750        0.41385105260293
C           -5.70780986198307       -4.98781567528122        0.31016873006346
C           -3.81526336472408       -5.69166692201471        1.76694930803921
C           -3.65967607879318       -5.94481026815615       -0.72958711529447
C           -2.11954067009550       -3.60698997119578        0.37543989835069
C           -1.48665093168079       -2.39648922980579        0.28234063436602
C           -2.22327209116635       -1.20743285533435        0.12322930323423
N           -1.57241666942897       -0.00713989031661        0.00119845653775
C           -0.15439405832695        0.00485740075126        0.00209892756157
C            0.58944399534149       -0.35318718950616       -1.14213441772904
F           -0.09420744441395       -0.67169973686025       -2.26340122755463
C            1.95743967629831       -0.34063203825589       -1.14341545840208
F            2.59677384399687       -0.59609711098665       -2.30621393636577
C            2.72238960105218        0.02781710072593        0.00292627224884
C            4.15221705300740        0.03848246099126        0.00335128871562
C            4.90967097960722        1.06887172012018        0.62400145748843
F            4.26123787731605        2.13036063258854        1.15159772154282
C            6.28377100693680        1.08139256666595        0.62879549812184
F            6.94860094179534        2.10144615989563        1.20865486965623
C            7.00631616569857        0.05916740962033        0.00435238912870
F            8.35795594056718        0.06886861236455        0.00494121007482
C            6.29910119023996       -0.97332150875419       -0.62075939099793
F            6.97904291195546       -1.98367889419214       -1.20007556429846
C            4.92497092742193       -0.98073720904688       -0.61689280842264
F            4.29239570828674       -2.05147311188366       -1.14502574395488
C            1.95101958364435        0.38458463499848        1.14863993504374
F            2.58546592545908        0.65087288353879        2.31168676632376
C            0.58297265053035        0.37490165503956        1.14670434678659
F           -0.10627216014100        0.68261569741575        2.26754652779678
H           -4.23240343382564        4.99929961147184       -2.59536846230074
H           -2.83497835559361        5.79192100908240       -1.86963420655478
H           -4.39890521146603        6.60026155624379       -1.86944074546935
H           -2.69968740712881        6.06473928248483        0.66157248304688
H           -4.27041963839590        6.85785305594418        0.67625916306337
H           -3.99028570465183        5.43509544311285        1.68341626175381
H           -6.22154433947966        5.89692820982179       -0.39601809064925
H           -6.20308277502894        4.30999514333166       -1.14775827993201
H           -6.10208856005835        4.46822483213478        0.61965299124307
H           -1.59418094611164        4.47923054083931       -0.48550054603768
H           -0.45025864837934        2.35851896160645       -0.31996368648152
H           -5.35368036492418        2.48042901168451       -0.18356336832512
H           -5.98911844444077        0.73717540620468       -1.38039887785264
H           -4.73046448014068       -0.22425952956826       -2.15820630549305
H           -6.00093441968296       -1.01543208321874       -1.22327834638634
H           -6.03327573359812        0.92085156354260        1.18647236281624
H           -5.99212102618286       -0.83110176663569        1.34300870857913
H           -4.76048940436397        0.15195117767562        2.13672851312103
H           -5.30955507086832       -2.56214856613670        0.16291676391262
H           -6.11735303540533       -5.99333041423034        0.37401259425288
H           -6.01738432180661       -4.56323150744820       -0.64177016619236
H           -6.13177179555359       -4.40597709436198        1.12493355968830
H           -4.29036655808900       -6.66563004045714        1.85611528502463
H           -2.74236730277980       -5.82738228066157        1.86832951087972
H           -4.15999087170409       -5.06271383611769        2.58500769825687
H           -3.88126504009667       -5.48962560913068       -1.69259744861776
H           -4.14283309685202       -6.91802236460152       -0.68845536132264
H           -2.58641926858709       -6.09744989004710       -0.66291843774171
H           -1.51678637434414       -4.49235033575995        0.49491128571830
H           -0.41022222266037       -2.35152108317246        0.33393245620505

          :  Hamiltonian                  GFN2-xTB          :
         :: gradient norm              0.000115504864 Eh/a0 ::
         :: HOMO-LUMO gap              0.958582018876 eV    ::
         :: SCC energy              -137.405982590414 Eh    ::
         :: -> dispersion             -0.094582434773 Eh    ::
         :: -> Gsolv                  -0.066682701827 Eh    ::
         :: repulsion energy           1.634966055765 Eh    ::

    * Orbital Energies and Occupations

         #    Occupation            Energy/Eh            Energy/eV
      -------------------------------------------------------------
         1        2.0000           -0.8491500             -23.1065
       ...           ...                  ...                  ...
       108        2.0000           -0.4413740             -12.0104
       109        2.0000           -0.4399679             -11.9721
       110        2.0000           -0.4357778             -11.8581
       111        2.0000           -0.4333355             -11.7917
       112        2.0000           -0.4311569             -11.7324
       113        2.0000           -0.4297845             -11.6950
       114        2.0000           -0.4290844             -11.6760
       115        2.0000           -0.4282766             -11.6540
       116        2.0000           -0.4261624             -11.5965
       117        2.0000           -0.4250928             -11.5674
       118        2.0000           -0.4145413             -11.2802
       119        1.0000           -0.3844343             -10.4610
       120        1.0000           -0.3004985              -8.1770 (HOMO)
       121                         -0.2652712              -7.2184 (LUMO)
       122                         -0.2618133              -7.1243
       123                         -0.2601853              -7.0800
       124                         -0.2517799              -6.8513
       125                         -0.2506448              -6.8204
       126                         -0.2498134              -6.7978
       127                         -0.2302889              -6.2665
       128                         -0.1562758              -4.2525
       129                         -0.1316078              -3.5812
       130                         -0.1258497              -3.4245
       131                         -0.1195454              -3.2530
       ...                                ...                  ...
       210                          0.6372923              17.3416
      -------------------------------------------------------------
                  HL-Gap            0.0352273 Eh            0.9586 eV

     #   Z          covCN         q      C6AA      α(0)
     1   6 C        3.762    -0.110    22.656     6.785
     2   6 C        3.903     0.032    19.983     6.354
     3   6 C        3.762    -0.110    22.657     6.785
     4   6 C        3.760    -0.117    22.792     6.806
     5   6 C        2.972     0.035    27.207     8.556
     6   6 C        2.922    -0.023    28.574     8.766
     7   6 C        2.917    -0.037    28.925     8.819
     8   6 C        2.934     0.063    26.590     8.457
     9   6 C        2.976     0.013    27.714     8.635
    10   6 C        2.928    -0.038    28.947     8.823
    11   6 C        3.910     0.028    20.040     6.363
    12   6 C        3.761    -0.114    22.729     6.796
    13   6 C        3.761    -0.114    22.731     6.796
    14   6 C        2.976     0.013    27.714     8.635
    15   6 C        2.928    -0.038    28.947     8.823
    16   6 C        2.972     0.035    27.207     8.556
    17   6 C        3.903     0.032    19.983     6.354
    18   6 C        3.760    -0.117    22.792     6.806
    19   6 C        3.762    -0.110    22.656     6.785
    20   6 C        3.762    -0.110    22.657     6.785
    21   6 C        2.922    -0.023    28.574     8.766
    22   6 C        2.917    -0.037    28.925     8.819
    23   6 C        2.934     0.063    26.590     8.457
    24   7 N        2.752     0.054    20.303     6.692
    25   6 C        2.927    -0.026    28.640     8.776
    26   6 C        2.773     0.130    25.139     8.212
    27   9 F        0.786    -0.209    11.330     3.976
    28   6 C        2.776     0.128    25.186     8.220
    29   9 F        0.787    -0.217    11.412     3.990
    30   6 C        2.965    -0.038    28.948     8.825
    31   6 C        2.964    -0.032    28.792     8.801
    32   6 C        2.782     0.127    25.196     8.222
    33   9 F        0.787    -0.206    11.301     3.971
    34   6 C        2.771     0.125    25.231     8.227
    35   9 F        0.786    -0.202    11.256     3.963
    36   6 C        2.776     0.103    25.711     8.305
    37   9 F        0.785    -0.208    11.319     3.974
    38   6 C        2.771     0.125    25.231     8.227
    39   9 F        0.786    -0.202    11.256     3.963
    40   6 C        2.782     0.127    25.196     8.222
    41   9 F        0.787    -0.206    11.301     3.971
    42   6 C        2.776     0.128    25.186     8.220
    43   9 F        0.787    -0.217    11.412     3.990
    44   6 C        2.773     0.130    25.139     8.212
    45   9 F        0.786    -0.209    11.330     3.976
    46   1 H        0.925     0.043     2.411     2.428
    47   1 H        0.925     0.043     2.413     2.429
    48   1 H        0.925     0.052     2.301     2.372
    49   1 H        0.925     0.043     2.413     2.429
    50   1 H        0.925     0.051     2.306     2.375
    51   1 H        0.925     0.042     2.420     2.433
    52   1 H        0.925     0.048     2.349     2.397
    53   1 H        0.925     0.047     2.354     2.399
    54   1 H        0.925     0.047     2.356     2.400
    55   1 H        0.926     0.063     2.170     2.303
    56   1 H        0.926     0.047     2.358     2.401
    57   1 H        0.926     0.085     1.926     2.170
    58   1 H        0.925     0.067     2.122     2.278
    59   1 H        0.925     0.046     2.365     2.405
    60   1 H        0.925     0.067     2.115     2.274
    61   1 H        0.925     0.067     2.115     2.274
    62   1 H        0.925     0.067     2.122     2.278
    63   1 H        0.925     0.047     2.364     2.404
    64   1 H        0.926     0.085     1.926     2.170
    65   1 H        0.925     0.048     2.349     2.397
    66   1 H        0.925     0.047     2.356     2.400
    67   1 H        0.925     0.047     2.354     2.399
    68   1 H        0.925     0.051     2.301     2.372
    69   1 H        0.925     0.043     2.413     2.429
    70   1 H        0.925     0.043     2.411     2.428
    71   1 H        0.925     0.042     2.421     2.433
    72   1 H        0.925     0.051     2.306     2.375
    73   1 H        0.925     0.043     2.414     2.429
    74   1 H        0.926     0.062     2.170     2.303
    75   1 H        0.926     0.047     2.358     2.401

molecular dipole:
                 x           y           z       tot (Debye)
 q only:      -12.716      -0.104      -0.015
   full:      -12.055      -0.099      -0.014      30.641

 projected vibrational frequencies (cm⁻¹)
eigval :       -0.00     0.00     0.00     0.00     0.00     0.00
eigval :       12.55    14.73    16.92    20.81    27.46    33.31
eigval :       39.80    45.97    49.63    58.62    77.22    79.64
eigval :       97.20   107.44   110.86   120.47   121.42   126.95
eigval :      130.14   147.46   150.11   152.88   163.42   167.89
eigval :      173.59   191.29   200.25   203.06   211.79   214.67
eigval :      215.33   217.70   221.22   236.50   244.18   245.88
eigval :      246.03   259.51   264.58   279.32   289.55   310.01
eigval :      311.37   314.32   314.91   319.95   324.12   331.60
eigval :      339.91   341.12   347.26   351.80   355.85   373.05
eigval :      381.80   393.67   394.55   396.13   396.26   397.88
eigval :      408.54   432.51   434.16   445.00   445.82   452.99
eigval :      476.79   483.60   486.54   496.78   512.49   524.00
eigval :      524.05   533.68   547.94   549.87   566.22   572.03
eigval :      579.65   586.59   591.20   612.91   633.78   667.01
eigval :      677.52   681.07   693.11   701.29   712.37   738.63
eigval :      753.51   818.42   822.55   827.50   846.87   883.73
eigval :      884.82   896.10   901.64   912.43   922.52   923.34
eigval :      933.73   934.46   944.26   947.00   958.11   958.56
eigval :      960.84   961.67   962.01   965.17   965.25  1007.59
eigval :     1011.81  1026.38  1026.54  1026.83  1033.94  1034.61
eigval :     1041.99  1073.78  1086.69  1116.96  1126.08  1130.36
eigval :     1147.19  1159.10  1166.83  1192.52  1209.12  1210.67
eigval :     1211.28  1214.09  1218.88  1226.78  1244.35  1255.10
eigval :     1257.59  1269.55  1289.34  1304.66  1307.84  1312.68
eigval :     1314.47  1327.77  1342.79  1354.11  1357.29  1393.34
eigval :     1394.59  1400.40  1400.90  1401.06  1401.42  1403.99
eigval :     1411.09  1414.22  1420.48  1425.14  1425.74  1432.57
eigval :     1439.31  1462.99  1469.19  1470.58  1474.91  1482.08
eigval :     1482.17  1482.40  1482.59  1485.18  1485.74  1488.57
eigval :     1491.81  1492.81  1494.12  1495.01  1495.84  1502.20
eigval :     1509.23  1509.72  1510.61  1511.68  1516.92  1554.31
eigval :     1567.64  1589.53  1624.99  3028.51  3028.79  3029.38
eigval :     3029.60  3032.50  3032.60  3033.71  3033.84  3037.69
eigval :     3037.75  3037.81  3039.13  3039.24  3039.35  3045.22
eigval :     3045.77  3050.86  3051.05  3054.37  3054.61  3062.10
eigval :     3063.98  3067.52  3071.72  3102.21  3102.28  3114.21
eigval :     3114.67  3142.75  3143.04

   temp. (K)  partition function   enthalpy   heat capacity  entropy
                                   cal/mol     cal/K/mol   cal/K/mol   J/K/mol
 298.15  VIB  0.751E+20            26308.733    155.331    163.327
         ROT  0.408E+08              888.752      2.981     37.804
         INT  0.306E+28            27197.485    158.312    201.131
         TR   0.155E+29             1481.254      4.968     45.210
         TOT                       28678.7391   163.2798   246.3411  1030.6911

       T/K    H(0)-H(T)+PV         H(T)/Eh          T*S/Eh         G(T)/Eh
   ------------------------------------------------------------------------
    298.15    0.457025E-01    0.600747E+00    0.117045E+00    0.483703E+00
   ------------------------------------------------------------------------

         :::::::::::::::::::::::::::::::::::::::::::::::::::::
         ::                  THERMODYNAMIC                  ::
         :::::::::::::::::::::::::::::::::::::::::::::::::::::
         :: total free energy        -135.287313850057 Eh   ::
         ::.................................................::
         :: total energy             -135.771016533933 Eh   ::
         :: zero point energy           0.555044807509 Eh   ::
         :: G(RRHO) w/o ZPVE           -0.071342123633 Eh   ::
         :: G(RRHO) contrib.            0.483702683876 Eh   ::
         :::::::::::::::::::::::::::::::::::::::::::::::::::::

           -------------------------------------------------
          | TOTAL ENERGY             -135.771016533933 Eh   |
          | TOTAL ENTHALPY           -135.170269246552 Eh   |
          | TOTAL FREE ENERGY        -135.287313850057 Eh   |
          | GRADIENT NORM               0.000115722683 Eh/α |
          | HOMO-LUMO GAP               0.958583892272 eV   |
           -------------------------------------------------

 * finished run on 2025/09/04 at 06:46:16.155
