   * xtb version 6.7.1 (edcfbbe) compiled by 'albert@albert-system' on 2024-07-22

   ID    Z sym.   atoms
    1    6 C      1-11, 13, 15-24, 26-59, 61-68
    2    7 N      12, 25
    3    8 O      14, 60
    4    1 H      69-114

          program call               : xtb data2507/gas/NAI–PhBiFA/NAI–PhBiFA_gas_S0_crest.xyz --gfn 2 --ohess vtight --parallel 40 --molden --ceasefiles --namespace data2507/gas/NAI–PhBiFA/NAI–PhBiFA_gas_S0_finalOpt
          :  Hamiltonian                  GFN2-xTB          :
 * total energy  :  -174.5712317 Eh     change       -0.3946553E-08 Eh
 * total energy  :  -174.5712328 Eh     change       -0.1078446E-05 Eh
 * total energy  :  -174.5712337 Eh     change       -0.9096496E-06 Eh
 * total energy  :  -174.5712354 Eh     change       -0.1720095E-05 Eh
 * total energy  :  -174.5712360 Eh     change       -0.5466954E-06 Eh
 * total energy  :  -174.5712366 Eh     change       -0.6126761E-06 Eh
 * total energy  :  -174.5712366 Eh     change       -0.2374009E-07 Eh
 * total energy  :  -174.5712369 Eh     change       -0.2728976E-06 Eh
 * total energy  :  -174.5712372 Eh     change       -0.2647431E-06 Eh
 * total energy  :  -174.5712372 Eh     change       -0.6717585E-08 Eh
 * total energy  :  -174.5712389 Eh     change       -0.4914295E-06 Eh
 * total energy  :  -174.5712393 Eh     change       -0.3544507E-06 Eh
 * total energy  :  -174.5712396 Eh     change       -0.2789357E-06 Eh
 * total energy  :  -174.5712399 Eh     change       -0.3251807E-06 Eh
 * total energy  :  -174.5712401 Eh     change       -0.2371609E-06 Eh
 * total energy  :  -174.5712403 Eh     change       -0.1853619E-06 Eh
 * total energy  :  -174.5712405 Eh     change       -0.1668560E-06 Eh
 * total energy  :  -174.5712407 Eh     change       -0.2626442E-06 Eh
 * total energy  :  -174.5712408 Eh     change       -0.1702517E-08 Eh
   *** GEOMETRY OPTIMIZATION CONVERGED AFTER 22 ITERATIONS ***

 final structure:
================
114
 xtb: 6.7.1 (edcfbbe)
C           10.91851520044041        0.35306797533961        0.19635699520414
C            9.42080298810552        0.31754521553560        0.09916343925701
C            8.79179149923105       -0.14214653130027       -1.06129882962710
C            9.55247652730393       -0.55175267115310       -2.25892043400066
C           10.41755508018217        0.32490588770980       -2.90564098273828
C           11.09808748295489       -0.07351936672625       -4.04185964962312
C           10.92702156765107       -1.35285061840902       -4.54345326671596
C           10.06258882627756       -2.22979370846655       -3.90956839294259
C            9.37456082519884       -1.83080197075797       -2.77830721057000
C            7.40663063349147       -0.24564611291188       -1.11236301001445
C            6.64286201181712        0.09901315992042       -0.01336528304797
N            5.21645096951271       -0.02863628741066       -0.06896941404395
C            4.71131576603611       -1.30980383986077       -0.23643073489420
O            5.45197957922868       -2.26854968284113       -0.30993843878305
C            3.24470968973942       -1.42489674989822       -0.30526788092251
C            2.67441893349062       -2.66441569960029       -0.50569443823802
C            1.28790006328765       -2.79019184799246       -0.60193487641252
C            0.47774168942392       -1.69189318579936       -0.46428842365006
C            1.01809457664115       -0.41334537666214       -0.21507124144169
C            0.21504395765830        0.75135964004037       -0.05476200575497
C           -1.24860394337279        0.67253917916007       -0.00727244170940
C           -1.89991186689488       -0.20871005479954        0.85695594183155
C           -3.27522177420164       -0.25498502188207        0.91736221553583
C           -4.05162412422240        0.57304459674360        0.10197618746321
N           -5.44069002170764        0.51160174113088        0.14703987540119
C           -6.20716402735107        1.66662911001295       -0.04967980924104
C           -7.40793241486898        1.60732129129072       -0.75614278982491
C           -8.16589261268596        2.74433403413813       -0.93986902206553
C           -7.74794233114032        3.97657123138731       -0.43959224370119
C           -8.55344493401945        5.18723815337486       -0.64566977954831
C           -9.94215394821930        5.14412168720159       -0.54048012578138
C          -10.69886805689542        6.28474258789356       -0.73240019576293
C          -10.08267195580676        7.48689161736862       -1.03727594822071
C           -8.70323948374639        7.54134686914428       -1.14672432496061
C           -7.94443383172721        6.40285657081105       -0.95054269173832
C           -6.54483791332012        4.02883669716011        0.26263091987757
C           -5.78805077010779        2.89395146414853        0.46320827385759
C           -6.08071812184614       -0.71214204835487        0.38913926160964
C           -7.22517944544200       -0.75978816225292        1.18638324348110
C           -7.86855834375463       -1.95777850728417        1.43419672200337
C           -7.35513069672063       -3.12305119599373        0.88756134855331
C           -6.20401349479356       -3.07902465208878        0.08636962445868
C           -5.57085845868947       -1.88725941750409       -0.17151734068008
C           -5.83175031339247       -4.46312339126443       -0.39453713113018
C           -5.87982984349076       -4.55178841185993       -1.92280395156416
C           -4.44739426667009       -4.86672016842089        0.12254209283200
C           -6.91986897674190       -5.30365384228222        0.23610958774960
C           -7.11559539880187       -6.66502966034950        0.15601273794868
C           -8.19636591761903       -7.22687142517737        0.82327602026073
C           -9.06607255551449       -6.43575617556237        1.55749475052797
C           -8.87710628383597       -5.06600680068897        1.64315787117966
C           -7.79976698543556       -4.50253381324810        0.97939960517712
C           -3.40211141853040        1.46217595420505       -0.75834523015973
C           -2.02631765397182        1.51618048344543       -0.80011458905858
C            0.82726472227595        1.98411642164714        0.07149263538726
C            2.21260964160491        2.10865091118743        0.09423361958033
C            3.01682396307616        0.99075654057792       -0.00665465542013
C            2.43069722555809       -0.28065784985816       -0.17071977117820
C            4.47750705946932        1.14378069185564        0.03830215303478
O            5.02897335556123        2.21879693905747        0.15012949379808
C            7.25085551187696        0.55879887210227        1.13999964242484
C            8.63373327644298        0.68159612115244        1.19545352304213
C            9.23160656877263        1.18322585145262        2.45006221847410
C            9.00271351299715        0.50918800430497        3.64535972946669
C            9.54118848854681        0.97817951327614        4.82983098920717
C           10.30473880556666        2.13328917253039        4.83681177332754
C           10.52557509578283        2.81820121940061        3.65365328738354
C            9.99513688565529        2.34574679237213        2.46717764128880
H           11.23663270962796        0.17541632291598        1.22145366849738
H           11.36054128702520       -0.40211676660871       -0.44969552394164
H           11.30734151356378        1.32398090171081       -0.10868327386032
H           10.54065163649849        1.32831035192632       -2.52584977116951
H           11.76400902037546        0.61711714166194       -4.53899622570072
H           11.46300212895504       -1.66410034302038       -5.42819723609468
H            9.92314093676832       -3.22768494916115       -4.29963172106454
H            8.70105939343589       -2.51262854479980       -2.27948679144429
H            6.92919543377208       -0.59883802917486       -2.01400820009367
H            3.32095172306012       -3.52338375528787       -0.60343426500641
H            0.85463756356233       -3.76067922980268       -0.79231159121195
H           -0.59198847868432       -1.79667066025813       -0.56398929088179
H           -1.31692358724670       -0.83465185584868        1.51692219470937
H           -3.76314714817104       -0.92877411676196        1.60602473751459
H           -7.73773972983666        0.66274329182803       -1.16348938945461
H           -9.08309222017207        2.68320251022134       -1.50679754070019
H          -10.42798533862053        4.21339761404840       -0.28543429028915
H          -11.77442822657788        6.23698200804837       -0.64153150068117
H          -10.67475169362355        8.37725767038099       -1.18885956103436
H           -8.21709371065956        8.47546724407676       -1.38847216019020
H           -6.87001405473302        6.44866963209580       -1.05485743437337
H           -6.21422920025332        4.96688166322476        0.68364185352907
H           -4.86813491065048        2.94794702186746        1.02713481473712
H           -7.60331038772167        0.15656619823491        1.61549456589252
H           -8.75131541113540       -1.98019337608429        2.05516202477459
H           -4.69266807121352       -1.84212777416511       -0.79922826343803
H           -5.13754455593782       -3.89050795846084       -2.36400478441712
H           -6.86381799729621       -4.26149344043659       -2.28494999885112
H           -5.67697930618218       -5.56934405923517       -2.24816019331980
H           -4.21593272459982       -5.88668049031150       -0.17491411581022
H           -3.68538561762905       -4.20391661405803       -0.28169047356008
H           -4.42001856645288       -4.80744724365265        1.20864957689090
H           -6.44444551288549       -7.29161389053093       -0.41354454371844
H           -8.36121174806580       -8.29306126013474        0.76927201661327
H           -9.90058572265316       -6.89381215277839        2.06831000468857
H           -9.55604622221895       -4.45153896362264        2.21563529961644
H           -3.98818236887025        2.10341517743030       -1.39979524598370
H           -1.54003875228277        2.19666531460028       -1.48359681240314
H            0.21417898728169        2.86602810920048        0.18580836353523
H            2.68104453866327        3.07483950689163        0.20676872680599
H            6.65312661339875        0.83755663235871        1.99476670017187
H            8.40967457748105       -0.39424841511408        3.63710653915605
H            9.36337915731468        0.44200481585594        5.75094196747163
H           10.72345743176675        2.50070439037147        5.76228179227238
H           11.11290740392064        3.72509058872283        3.65625801569025
H           10.15544621718280        2.88910237070903        1.54786551036357

          :  Hamiltonian                  GFN2-xTB          :
         :: gradient norm              0.000030710033 Eh/a0 ::
         :: HOMO-LUMO gap              1.283358526371 eV    ::
         :: SCC energy              -177.766061471868 Eh    ::
         :: -> dispersion             -0.159165686646 Eh    ::
         :: repulsion energy           3.194820720350 Eh    ::

    * Orbital Energies and Occupations

         #    Occupation            Energy/Eh            Energy/eV
      -------------------------------------------------------------
         1        2.0000           -0.7088916             -19.2899
       ...           ...                  ...                  ...
       150        2.0000           -0.4040634             -10.9951
       151        2.0000           -0.4019154             -10.9367
       152        2.0000           -0.4014187             -10.9232
       153        2.0000           -0.4002638             -10.8917
       154        2.0000           -0.4002167             -10.8904
       155        2.0000           -0.3988211             -10.8525
       156        2.0000           -0.3979888             -10.8298
       157        2.0000           -0.3948724             -10.7450
       158        2.0000           -0.3931885             -10.6992
       159        2.0000           -0.3867491             -10.5240
       160        2.0000           -0.3816755             -10.3859
       161        2.0000           -0.3802933             -10.3483
       162        2.0000           -0.3541249              -9.6362 (HOMO)
       163                         -0.3069624              -8.3529 (LUMO)
       164                         -0.2572048              -6.9989
       165                         -0.2548492              -6.9348
       166                         -0.2476326              -6.7384
       167                         -0.2450353              -6.6678
       168                         -0.2366433              -6.4394
       169                         -0.2352330              -6.4010
       170                         -0.2316881              -6.3046
       171                         -0.2297590              -6.2521
       172                         -0.2280744              -6.2062
       173                         -0.2272429              -6.1836
       ...                                ...                  ...
       318                          0.7341672              19.9777
      -------------------------------------------------------------
                  HL-Gap            0.0471625 Eh            1.2834 eV

     #   Z          covCN         q      C6AA      α(0)
     1   6 C        3.757    -0.106    22.574     6.774
     2   6 C        2.970     0.011    27.774     8.644
     3   6 C        2.982     0.004    27.926     8.668
     4   6 C        2.980     0.015    27.682     8.630
     5   6 C        2.924    -0.033    28.814     8.803
     6   6 C        2.919    -0.031    28.769     8.796
     7   6 C        2.920    -0.032    28.798     8.800
     8   6 C        2.919    -0.030    28.739     8.791
     9   6 C        2.926    -0.034    28.839     8.807
    10   6 C        2.928    -0.036    28.891     8.815
    11   6 C        2.933     0.080    26.207     8.396
    12   7 N        2.746    -0.103    23.262     7.163
    13   6 C        2.776     0.274    22.377     7.748
    14   8 O        0.859    -0.409    21.854     6.268
    15   6 C        2.977    -0.026    28.638     8.778
    16   6 C        2.922    -0.013    28.339     8.730
    17   6 C        2.914    -0.028    28.708     8.786
    18   6 C        2.918    -0.025    28.638     8.776
    19   6 C        2.984     0.012    27.746     8.640
    20   6 C        2.974     0.016    27.642     8.624
    21   6 C        2.977     0.001    28.011     8.681
    22   6 C        2.923    -0.033    28.811     8.802
    23   6 C        2.921    -0.049    29.218     8.864
    24   6 C        2.924     0.067    26.504     8.443
    25   7 N        2.753    -0.069    22.569     7.056
    26   6 C        2.925     0.062    26.617     8.461
    27   6 C        2.920    -0.047    29.174     8.857
    28   6 C        2.924    -0.034    28.842     8.807
    29   6 C        2.976     0.003    27.946     8.671
    30   6 C        2.977     0.010    27.788     8.647
    31   6 C        2.925    -0.034    28.854     8.809
    32   6 C        2.918    -0.029    28.736     8.791
    33   6 C        2.920    -0.031    28.775     8.797
    34   6 C        2.918    -0.029    28.736     8.791
    35   6 C        2.925    -0.034    28.854     8.809
    36   6 C        2.924    -0.034    28.848     8.808
    37   6 C        2.920    -0.048    29.191     8.860
    38   6 C        2.927     0.059    26.669     8.469
    39   6 C        2.923    -0.050    29.254     8.870
    40   6 C        2.914    -0.034    28.851     8.808
    41   6 C        3.036    -0.007    28.150     8.703
    42   6 C        3.055    -0.001    27.992     8.677
    43   6 C        2.918    -0.051    29.277     8.873
    44   6 C        3.936     0.019    20.193     6.386
    45   6 C        3.758    -0.098    22.428     6.752
    46   6 C        3.759    -0.097    22.411     6.749
    47   6 C        3.056    -0.003    28.035     8.683
    48   6 C        2.915    -0.034    28.837     8.806
    49   6 C        2.922    -0.033    28.828     8.805
    50   6 C        2.921    -0.033    28.817     8.803
    51   6 C        2.914    -0.035    28.864     8.810
    52   6 C        3.037     0.000    27.990     8.678
    53   6 C        2.920    -0.049    29.205     8.862
    54   6 C        2.924    -0.033    28.819     8.804
    55   6 C        2.922    -0.034    28.859     8.810
    56   6 C        2.920    -0.014    28.356     8.732
    57   6 C        2.977    -0.030    28.740     8.794
    58   6 C        2.994     0.009    27.812     8.651
    59   6 C        2.775     0.273    22.380     7.748
    60   8 O        0.859    -0.407    21.828     6.264
    61   6 C        2.928    -0.036    28.888     8.814
    62   6 C        2.982     0.004    27.921     8.668
    63   6 C        2.979     0.016    27.651     8.626
    64   6 C        2.925    -0.034    28.835     8.806
    65   6 C        2.919    -0.030    28.742     8.792
    66   6 C        2.920    -0.032    28.792     8.799
    67   6 C        2.919    -0.030    28.747     8.792
    68   6 C        2.924    -0.031    28.769     8.796
    69   1 H        0.925     0.045     2.387     2.416
    70   1 H        0.925     0.046     2.374     2.410
    71   1 H        0.925     0.048     2.344     2.394
    72   1 H        0.926     0.032     2.557     2.501
    73   1 H        0.926     0.028     2.610     2.526
    74   1 H        0.926     0.028     2.618     2.530
    75   1 H        0.926     0.030     2.591     2.517
    76   1 H        0.926     0.039     2.461     2.453
    77   1 H        0.926     0.043     2.404     2.425
    78   1 H        0.926     0.067     2.118     2.276
    79   1 H        0.926     0.044     2.402     2.424
    80   1 H        0.926     0.046     2.370     2.407
    81   1 H        0.926     0.036     2.505     2.475
    82   1 H        0.926     0.037     2.493     2.469
    83   1 H        0.926     0.033     2.539     2.492
    84   1 H        0.926     0.036     2.509     2.477
    85   1 H        0.926     0.030     2.580     2.512
    86   1 H        0.926     0.030     2.592     2.518
    87   1 H        0.926     0.030     2.591     2.517
    88   1 H        0.926     0.030     2.590     2.517
    89   1 H        0.926     0.030     2.582     2.513
    90   1 H        0.926     0.035     2.510     2.478
    91   1 H        0.926     0.032     2.556     2.500
    92   1 H        0.926     0.032     2.552     2.498
    93   1 H        0.926     0.034     2.527     2.486
    94   1 H        0.926     0.029     2.602     2.522
    95   1 H        0.925     0.039     2.456     2.451
    96   1 H        0.925     0.036     2.498     2.472
    97   1 H        0.925     0.042     2.427     2.436
    98   1 H        0.925     0.042     2.427     2.436
    99   1 H        0.925     0.038     2.472     2.459
   100   1 H        0.925     0.036     2.506     2.475
   101   1 H        0.926     0.027     2.628     2.535
   102   1 H        0.926     0.029     2.598     2.521
   103   1 H        0.926     0.029     2.600     2.522
   104   1 H        0.926     0.029     2.595     2.519
   105   1 H        0.926     0.037     2.495     2.470
   106   1 H        0.926     0.036     2.500     2.473
   107   1 H        0.926     0.044     2.391     2.418
   108   1 H        0.926     0.067     2.122     2.278
   109   1 H        0.926     0.044     2.400     2.423
   110   1 H        0.926     0.031     2.573     2.509
   111   1 H        0.926     0.029     2.602     2.523
   112   1 H        0.926     0.028     2.610     2.527
   113   1 H        0.926     0.030     2.593     2.518
   114   1 H        0.926     0.033     2.538     2.491

molecular dipole:
                 x           y           z       tot (Debye)
 q only:       -1.930      -0.209      -0.177
   full:       -2.195      -0.198      -0.174       5.620

 projected vibrational frequencies (cm⁻¹)
eigval :       -0.00    -0.00    -0.00     0.00     0.00     0.00
eigval :        5.06     6.73     7.73    15.79    16.86    20.10
eigval :       21.02    24.39    32.92    34.39    35.91    38.65
eigval :       44.53    49.65    58.93    65.98    66.23    72.20
eigval :       75.51    81.68    89.13    99.47   101.15   106.88
eigval :      112.92   123.75   130.26   131.93   144.11   150.61
eigval :      161.16   175.36   176.04   177.25   189.38   191.05
eigval :      197.19   211.60   215.70   223.15   227.33   247.62
eigval :      255.83   260.48   267.63   277.28   283.68   289.64
eigval :      292.50   297.91   310.79   319.17   325.20   328.27
eigval :      336.24   347.30   357.66   370.37   371.08   371.95
eigval :      375.39   379.77   384.90   389.13   389.92   394.35
eigval :      396.46   411.48   421.95   425.30   433.97   440.00
eigval :      456.37   464.81   467.01   478.55   482.88   489.74
eigval :      497.52   518.64   530.28   532.07   541.64   545.71
eigval :      548.16   562.68   565.10   569.33   578.64   580.21
eigval :      587.27   588.97   589.55   591.60   597.00   600.61
eigval :      603.31   609.75   616.87   620.07   630.65   634.26
eigval :      664.12   665.54   670.66   677.46   682.96   686.63
eigval :      687.41   690.60   691.26   693.25   711.33   720.66
eigval :      723.17   741.56   746.73   748.89   754.29   757.21
eigval :      766.31   776.28   778.79   783.13   798.68   810.01
eigval :      816.58   818.36   820.84   829.28   830.62   848.02
eigval :      853.33   869.80   873.35   877.01   878.81   879.02
eigval :      879.99   882.06   885.15   887.78   900.46   904.39
eigval :      906.63   910.12   910.31   912.61   913.38   917.89
eigval :      920.11   925.82   926.86   927.54   927.88   929.03
eigval :      931.15   932.34   932.44   932.47   932.81   933.71
eigval :      941.82   948.78   964.26   966.34   971.96   979.30
eigval :      980.47   992.19  1006.61  1013.13  1019.51  1025.79
eigval :     1027.65  1028.79  1058.72  1062.25  1069.66  1076.36
eigval :     1078.64  1083.59  1084.78  1088.39  1113.07  1115.94
eigval :     1118.71  1119.66  1122.23  1136.64  1142.22  1143.49
eigval :     1144.74  1150.97  1158.61  1175.53  1182.39  1182.52
eigval :     1182.68  1183.31  1183.80  1185.43  1186.37  1194.83
eigval :     1196.75  1198.24  1200.38  1202.51  1206.96  1213.81
eigval :     1221.67  1226.84  1229.71  1231.88  1237.47  1246.70
eigval :     1252.43  1269.81  1271.64  1272.72  1276.43  1279.79
eigval :     1280.45  1281.46  1282.38  1291.64  1299.11  1312.55
eigval :     1313.00  1316.21  1317.19  1319.27  1322.01  1326.36
eigval :     1332.45  1334.20  1337.49  1351.92  1362.71  1370.88
eigval :     1392.98  1395.59  1405.35  1406.70  1410.89  1411.81
eigval :     1416.67  1419.70  1426.98  1433.63  1433.91  1435.24
eigval :     1438.86  1447.85  1456.29  1457.78  1465.84  1474.96
eigval :     1478.49  1483.79  1487.25  1488.55  1489.49  1491.34
eigval :     1493.87  1497.59  1501.29  1502.38  1508.31  1546.02
eigval :     1547.88  1559.36  1570.06  1576.21  1577.45  1578.17
eigval :     1582.64  1583.65  1585.33  1589.59  1591.86  1594.12
eigval :     1596.23  1600.67  1600.74  1601.60  1604.30  1610.34
eigval :     1688.43  1700.40  3003.19  3026.58  3030.58  3031.64
eigval :     3034.20  3035.26  3038.57  3038.81  3039.98  3069.81
eigval :     3070.17  3070.79  3071.14  3072.10  3072.85  3073.81
eigval :     3074.89  3077.64  3077.90  3078.91  3079.15  3080.61
eigval :     3080.76  3080.97  3081.60  3082.99  3083.65  3084.54
eigval :     3084.66  3085.36  3086.95  3088.02  3090.01  3090.84
eigval :     3091.35  3091.99  3092.19  3092.51  3092.73  3092.74
eigval :     3093.53  3093.82  3093.86  3096.11  3099.44  3101.87

   temp. (K)  partition function   enthalpy   heat capacity  entropy
                                   cal/mol     cal/K/mol   cal/K/mol   J/K/mol
 298.15  VIB  0.200E+29            33830.290    207.476    214.128
         ROT  0.421E+09              888.752      2.981     42.445
         INT  0.841E+37            34719.043    210.457    256.573
         TR   0.250E+29             1481.254      4.968     46.163
         TOT                       36200.2966   215.4253   302.7358  1266.6467

       T/K    H(0)-H(T)+PV         H(T)/Eh          T*S/Eh         G(T)/Eh
   ------------------------------------------------------------------------
    298.15    0.576888E-01    0.945595E+00    0.143840E+00    0.801755E+00
   ------------------------------------------------------------------------

         :::::::::::::::::::::::::::::::::::::::::::::::::::::
         ::                  THERMODYNAMIC                  ::
         :::::::::::::::::::::::::::::::::::::::::::::::::::::
         :: total free energy        -173.769485518895 Eh   ::
         ::.................................................::
         :: total energy             -174.571240751518 Eh   ::
         :: zero point energy           0.887905953511 Eh   ::
         :: G(RRHO) w/o ZPVE           -0.086150720888 Eh   ::
         :: G(RRHO) contrib.            0.801755232623 Eh   ::
         :::::::::::::::::::::::::::::::::::::::::::::::::::::

           -------------------------------------------------
          | TOTAL ENERGY             -174.571240751518 Eh   |
          | TOTAL ENTHALPY           -173.625645953370 Eh   |
          | TOTAL FREE ENERGY        -173.769485518895 Eh   |
          | GRADIENT NORM               0.000030703824 Eh/α |
          | HOMO-LUMO GAP               1.283358204929 eV   |
           -------------------------------------------------

 * finished run on 2025/09/05 at 05:41:51.470
