   * xtb version 6.7.1 (edcfbbe) compiled by 'albert@albert-system' on 2024-07-22

   ID    Z sym.   atoms
    1    6 C      1-11, 13, 15-24, 26-59, 61-68
    2    7 N      12, 25
    3    8 O      14, 60
    4    1 H      69-114

          program call               : xtb data2507/gas/NAI–PhBiFA/NAI–PhBiFA.xyz --gfn 2 --ohess vtight --parallel 40 --molden --ceasefiles --namespace data2507/gas/NAI–PhBiFA/NAI–PhBiFA_gas_S0_preOpt
          :  Hamiltonian                  GFN2-xTB          :
 * total energy  :  -174.5346626 Eh     change       -0.3510962E-08 Eh
 * total energy  :  -174.5528921 Eh     change       -0.1822945E-01 Eh
 * total energy  :  -174.5587219 Eh     change       -0.5829830E-02 Eh
 * total energy  :  -174.5611683 Eh     change       -0.2446395E-02 Eh
 * total energy  :  -174.5632538 Eh     change       -0.2085507E-02 Eh
 * total energy  :  -174.5643837 Eh     change       -0.1129888E-02 Eh
 * total energy  :  -174.5649258 Eh     change       -0.5420776E-03 Eh
 * total energy  :  -174.5652313 Eh     change       -0.3055106E-03 Eh
 * total energy  :  -174.5654508 Eh     change       -0.2194884E-03 Eh
 * total energy  :  -174.5656527 Eh     change       -0.2019692E-03 Eh
 * total energy  :  -174.5712071 Eh     change       -0.7406807E-06 Eh
 * total energy  :  -174.5712077 Eh     change       -0.6055974E-06 Eh
 * total energy  :  -174.5712083 Eh     change       -0.5900558E-06 Eh
 * total energy  :  -174.5712089 Eh     change       -0.5756181E-06 Eh
 * total energy  :  -174.5712094 Eh     change       -0.5396451E-06 Eh
 * total energy  :  -174.5712099 Eh     change       -0.4797828E-06 Eh
 * total energy  :  -174.5712103 Eh     change       -0.4365817E-06 Eh
 * total energy  :  -174.5712108 Eh     change       -0.4453493E-06 Eh
 * total energy  :  -174.5712108 Eh     change       -0.2213568E-08 Eh
   *** GEOMETRY OPTIMIZATION CONVERGED AFTER 152 ITERATIONS ***

 final structure:
================
114
 xtb: 6.7.1 (edcfbbe)
C           11.06744938795937        0.36624633456819        0.17541701608601
C            9.57940047937618        0.16954377765511        0.14471943809185
C            8.93093890601701       -0.12233366869003       -1.05867275313565
C            9.67805971126813       -0.32336111267682       -2.31737216503967
C            9.41930858791207        0.49221021091435       -3.41442838733949
C           10.09735501266035        0.30319107989469       -4.60495616024779
C           11.03349186996534       -0.71081650364468       -4.71812585917428
C           11.28694346775825       -1.53604850089014       -3.63531480969600
C           10.61607755613974       -1.34286932304151       -2.44159874458798
C            7.54510653547223       -0.21044643539148       -1.10660140389769
C            6.80041470383327       -0.03106322257447        0.04400915686842
N            5.37026273858319       -0.11537701292069       -0.00967708161150
C            4.82692336040578       -1.35684483251603       -0.30535916144979
O            5.53952133629207       -2.32161567402661       -0.48846585368296
C            3.35677364903267       -1.42098788397437       -0.36872457855918
C            2.74729835128623       -2.61666134376285       -0.68579686264426
C            1.35684444109865       -2.69106067022662       -0.77962584294003
C            0.58206293394476       -1.58715305925810       -0.52971247394178
C            1.16354126725545       -0.35540378389421       -0.16433182866332
C            0.39752890844689        0.81341269490786        0.10713769638792
C           -1.06849455390868        0.77430464508264        0.14064248014010
C           -1.75045728411432       -0.15042871530985        0.93237242659630
C           -3.12703667931332       -0.16660302783515        0.97579573362650
C           -3.87418527979202        0.73336519832687        0.21044920667380
N           -5.26426576162174        0.69595452309316        0.22973016762036
C           -6.00939112094502        1.87164020788958        0.07603110959057
C           -7.19145044424289        1.86653873804325       -0.66364574547074
C           -7.92914321001556        3.02236705916898       -0.80761714504892
C           -7.50870961443488        4.22066464519544       -0.23254086715655
C           -8.29169082194405        5.45208738711623       -0.39846828376202
C           -9.68343421715067        5.42389237099036       -0.33722282060871
C          -10.41905576174949        6.58362556087160       -0.49315214004589
C           -9.77827026670879        7.79065261442941       -0.71740292184028
C           -8.39553137390465        7.83060188600444       -0.78223873252187
C           -7.65792706329419        6.67270713565247       -0.62207070415668
C           -6.32507632341749        4.21856459886001        0.50392675108393
C           -5.58875084418507        3.06390802145913        0.66448673636943
C           -5.93197768311449       -0.52626694915085        0.39453939755848
C           -7.08938926064915       -0.59227814520729        1.17148827876954
C           -7.76040339449409       -1.78803400673855        1.34597259575639
C           -7.26151430505666       -2.93323667641397        0.74609243076964
C           -6.09797899932987       -2.87058339383414       -0.03566603357370
C           -5.43791406586748       -1.68001918054113       -0.22168559842020
C           -5.74423857766993       -4.23521431026140       -0.58171040056181
C           -5.76869547983413       -4.24512144046345       -2.11301093030888
C           -4.37626833456293       -4.69124879968064       -0.06440394772760
C           -6.85770923747037       -5.08549900911190       -0.01127107975997
C           -7.07766711205795       -6.43691019774580       -0.16418576133212
C           -8.17879283845727       -7.01102410371123        0.45781055692821
C           -9.04458781828644       -6.24179061993361        1.21940002194431
C           -8.83127985756418       -4.88219295964134        1.37827291233009
C           -7.73358955518517       -4.30657949987252        0.75983477999102
C           -3.19310629124755        1.66703825818616       -0.57516704122477
C           -1.81584065092397        1.69269057072292       -0.59564856107057
C            1.04706948447129        2.00836826498125        0.35131313794060
C            2.43578022328232        2.08545987804802        0.38810555658055
C            3.20470960631748        0.95844161174453        0.17564632211575
C            2.57955890498379       -0.27150210250437       -0.11425758627789
C            4.66928020870188        1.05843831881387        0.23672612951466
O            5.25547872171460        2.09437829125468        0.47450641176975
C            7.42823741144856        0.23953258841922        1.24479939209185
C            8.81338475668212        0.34143814091423        1.30123049701411
C            9.42422846885931        0.65132375500115        2.60948913214064
C           10.36904034050450       -0.19117606259205        3.18641297871635
C           10.90715273099124        0.10427876832564        4.42570974765716
C           10.51209370166075        1.24620608767184        5.10209960869942
C            9.56702625232360        2.08686639041953        4.53802705164082
C            9.02148772528220        1.78909074810584        3.30264886608130
H           11.34352725664792        1.06375206383961        0.96303863095775
H           11.58287643941801       -0.57452175413363        0.36551345555614
H           11.41914045632149        0.75024899269984       -0.77979516429803
H            8.69117008197903        1.28551689313433       -3.32270666111077
H            9.89382728655478        0.94771976660615       -5.44798462140982
H           11.56139053055212       -0.85981653815742       -5.64867918987056
H           12.00985327215368       -2.33431779963561       -3.72232095217458
H           10.80357531557221       -1.99680502870140       -1.60299377974155
H            7.05338373124867       -0.43214393718692       -2.04196723068608
H            3.36682359793588       -3.48029209524138       -0.87477550944773
H            0.89263115496004       -3.62524156522393       -1.05820628757645
H           -0.49115825332433       -1.64913378208972       -0.62801401155949
H           -1.18989502983588       -0.83789098572960        1.54921349508619
H           -3.63841484716609       -0.87514857095555        1.61036655841141
H           -7.52233720897385        0.94922996771354       -1.12841173305181
H           -8.83109705571883        3.00417050811015       -1.40134913817866
H          -10.18897492395197        4.48860319027959       -0.14492544781665
H          -11.49743682304734        6.54685726574389       -0.43741732576395
H          -10.35384427158944        8.69601892007074       -0.84111927058582
H           -7.89012100054524        8.76865349278551       -0.96105107300413
H           -6.58032352644166        6.70819176574546       -0.69177965486948
H           -5.99408237982815        5.12840008242026        0.98259943182681
H           -4.68398212090373        3.07482760721520        1.25478553543607
H           -7.45562047624135        0.30781193199180        1.64324911632323
H           -8.65291427753761       -1.82492109567052        1.95211602914114
H           -4.55009406612241       -1.61994866848662       -0.83439688351254
H           -5.00730887352413       -3.57648831388681       -2.50818616177341
H           -6.74112232746137       -3.91817632758956       -2.47514070842077
H           -5.57895776351297       -5.24847331814167       -2.48677613361239
H           -4.15908697097771       -5.69934583822759       -0.40926050745388
H           -3.59540238813619       -4.02404194696408       -0.42280680257653
H           -4.36557788036686       -4.68705764250504        1.02360993671580
H           -6.40976074215057       -7.04644332138658       -0.75562916101026
H           -8.36271616821040       -8.06963571932059        0.34663479465337
H           -9.89517394402156       -6.70907626089746        1.69406072912222
H           -9.50713264454935       -4.28476708726789        1.97204475425205
H           -3.75525265778850        2.36527592007167       -1.17723801060763
H           -1.30493008277298        2.41016161244375       -1.22090359566566
H            0.46119556638806        2.89429099326095        0.54798419700571
H            2.93389961796063        3.02042283429059        0.59637485979490
H            6.84379647475011        0.37361659207210        2.14272200881085
H           10.66679340934031       -1.09072974004568        2.66839850172638
H           11.63699435112250       -0.55951270599768        4.86647548659945
H           10.93679102651911        1.47809761230903        6.06789539897637
H            9.25297581817199        2.97686177524039        5.06400366137325
H            8.28606265764669        2.44392012070233        2.85804197645152

          :  Hamiltonian                  GFN2-xTB          :
         :: gradient norm              0.000036343226 Eh/a0 ::
         :: HOMO-LUMO gap              1.287484481166 eV    ::
         :: SCC energy              -177.766233158090 Eh    ::
         :: -> dispersion             -0.159167404349 Eh    ::
         :: repulsion energy           3.195022370302 Eh    ::

    * Orbital Energies and Occupations

         #    Occupation            Energy/Eh            Energy/eV
      -------------------------------------------------------------
         1        2.0000           -0.7087108             -19.2850
       ...           ...                  ...                  ...
       150        2.0000           -0.4041085             -10.9964
       151        2.0000           -0.4016986             -10.9308
       152        2.0000           -0.4013314             -10.9208
       153        2.0000           -0.4006091             -10.9011
       154        2.0000           -0.4002131             -10.8904
       155        2.0000           -0.3990313             -10.8582
       156        2.0000           -0.3981392             -10.8339
       157        2.0000           -0.3953407             -10.7578
       158        2.0000           -0.3932302             -10.7003
       159        2.0000           -0.3867680             -10.5245
       160        2.0000           -0.3820042             -10.3949
       161        2.0000           -0.3806063             -10.3568
       162        2.0000           -0.3541143              -9.6359 (HOMO)
       163                         -0.3068001              -8.3485 (LUMO)
       164                         -0.2571241              -6.9967
       165                         -0.2545253              -6.9260
       166                         -0.2475577              -6.7364
       167                         -0.2449252              -6.6648
       168                         -0.2364096              -6.4330
       169                         -0.2355350              -6.4092
       170                         -0.2315743              -6.3015
       171                         -0.2298196              -6.2537
       172                         -0.2283059              -6.2125
       173                         -0.2272846              -6.1847
       ...                                ...                  ...
       318                          0.7344480              19.9853
      -------------------------------------------------------------
                  HL-Gap            0.0473142 Eh            1.2875 eV

     #   Z          covCN         q      C6AA      α(0)
     1   6 C        3.757    -0.106    22.575     6.774
     2   6 C        2.970     0.011    27.769     8.644
     3   6 C        2.982     0.004    27.917     8.667
     4   6 C        2.979     0.016    27.653     8.626
     5   6 C        2.925    -0.034    28.835     8.806
     6   6 C        2.919    -0.030    28.742     8.792
     7   6 C        2.920    -0.032    28.792     8.799
     8   6 C        2.919    -0.030    28.748     8.792
     9   6 C        2.924    -0.031    28.771     8.796
    10   6 C        2.928    -0.036    28.887     8.814
    11   6 C        2.934     0.081    26.194     8.394
    12   7 N        2.746    -0.103    23.267     7.164
    13   6 C        2.775     0.274    22.376     7.748
    14   8 O        0.859    -0.407    21.822     6.263
    15   6 C        2.977    -0.026    28.637     8.778
    16   6 C        2.922    -0.013    28.337     8.730
    17   6 C        2.914    -0.028    28.703     8.785
    18   6 C        2.918    -0.025    28.637     8.775
    19   6 C        2.984     0.012    27.746     8.641
    20   6 C        2.974     0.016    27.638     8.623
    21   6 C        2.977     0.000    28.016     8.682
    22   6 C        2.923    -0.033    28.811     8.802
    23   6 C        2.921    -0.049    29.225     8.865
    24   6 C        2.924     0.067    26.506     8.443
    25   7 N        2.753    -0.069    22.569     7.056
    26   6 C        2.925     0.062    26.617     8.461
    27   6 C        2.920    -0.047    29.171     8.857
    28   6 C        2.924    -0.034    28.842     8.807
    29   6 C        2.976     0.003    27.945     8.671
    30   6 C        2.977     0.010    27.788     8.647
    31   6 C        2.925    -0.034    28.854     8.809
    32   6 C        2.918    -0.029    28.735     8.791
    33   6 C        2.920    -0.031    28.775     8.797
    34   6 C        2.918    -0.029    28.736     8.791
    35   6 C        2.925    -0.034    28.854     8.809
    36   6 C        2.924    -0.034    28.849     8.808
    37   6 C        2.920    -0.048    29.188     8.859
    38   6 C        2.927     0.059    26.669     8.469
    39   6 C        2.923    -0.050    29.251     8.869
    40   6 C        2.914    -0.034    28.851     8.808
    41   6 C        3.036    -0.007    28.149     8.702
    42   6 C        3.055    -0.001    27.992     8.677
    43   6 C        2.918    -0.051    29.275     8.873
    44   6 C        3.936     0.019    20.193     6.386
    45   6 C        3.758    -0.098    22.428     6.752
    46   6 C        3.759    -0.097    22.410     6.749
    47   6 C        3.056    -0.003    28.035     8.683
    48   6 C        2.915    -0.034    28.837     8.806
    49   6 C        2.922    -0.033    28.827     8.805
    50   6 C        2.921    -0.033    28.817     8.803
    51   6 C        2.914    -0.035    28.864     8.810
    52   6 C        3.037     0.000    27.990     8.678
    53   6 C        2.920    -0.049    29.215     8.864
    54   6 C        2.924    -0.033    28.819     8.804
    55   6 C        2.921    -0.035    28.859     8.810
    56   6 C        2.920    -0.014    28.356     8.732
    57   6 C        2.977    -0.030    28.741     8.794
    58   6 C        2.994     0.009    27.813     8.651
    59   6 C        2.776     0.274    22.378     7.748
    60   8 O        0.859    -0.409    21.870     6.270
    61   6 C        2.928    -0.036    28.886     8.814
    62   6 C        2.982     0.004    27.919     8.667
    63   6 C        2.980     0.015    27.681     8.630
    64   6 C        2.924    -0.033    28.812     8.803
    65   6 C        2.919    -0.031    28.768     8.795
    66   6 C        2.920    -0.032    28.797     8.800
    67   6 C        2.919    -0.030    28.739     8.791
    68   6 C        2.926    -0.034    28.838     8.807
    69   1 H        0.925     0.046     2.373     2.409
    70   1 H        0.925     0.048     2.344     2.394
    71   1 H        0.925     0.045     2.385     2.415
    72   1 H        0.926     0.031     2.569     2.507
    73   1 H        0.926     0.029     2.601     2.522
    74   1 H        0.926     0.028     2.610     2.526
    75   1 H        0.926     0.030     2.593     2.518
    76   1 H        0.926     0.033     2.538     2.491
    77   1 H        0.926     0.043     2.411     2.428
    78   1 H        0.926     0.067     2.116     2.275
    79   1 H        0.926     0.044     2.402     2.423
    80   1 H        0.926     0.046     2.372     2.409
    81   1 H        0.926     0.035     2.510     2.478
    82   1 H        0.926     0.037     2.493     2.469
    83   1 H        0.926     0.033     2.540     2.492
    84   1 H        0.926     0.036     2.508     2.477
    85   1 H        0.926     0.030     2.579     2.512
    86   1 H        0.926     0.030     2.592     2.517
    87   1 H        0.926     0.030     2.591     2.517
    88   1 H        0.926     0.030     2.590     2.517
    89   1 H        0.926     0.030     2.582     2.513
    90   1 H        0.926     0.036     2.509     2.477
    91   1 H        0.926     0.032     2.552     2.498
    92   1 H        0.926     0.032     2.552     2.498
    93   1 H        0.926     0.034     2.526     2.486
    94   1 H        0.926     0.029     2.600     2.521
    95   1 H        0.925     0.039     2.456     2.451
    96   1 H        0.925     0.036     2.498     2.472
    97   1 H        0.925     0.042     2.426     2.436
    98   1 H        0.925     0.042     2.426     2.436
    99   1 H        0.925     0.038     2.472     2.459
   100   1 H        0.925     0.036     2.506     2.475
   101   1 H        0.926     0.027     2.627     2.535
   102   1 H        0.926     0.029     2.598     2.520
   103   1 H        0.926     0.029     2.600     2.521
   104   1 H        0.926     0.029     2.595     2.519
   105   1 H        0.926     0.036     2.497     2.471
   106   1 H        0.926     0.036     2.506     2.475
   107   1 H        0.926     0.044     2.393     2.419
   108   1 H        0.926     0.067     2.124     2.279
   109   1 H        0.926     0.043     2.408     2.427
   110   1 H        0.926     0.032     2.555     2.500
   111   1 H        0.926     0.028     2.608     2.525
   112   1 H        0.926     0.028     2.616     2.530
   113   1 H        0.926     0.030     2.590     2.517
   114   1 H        0.926     0.039     2.466     2.456

molecular dipole:
                 x           y           z       tot (Debye)
 q only:       -1.927      -0.111      -0.195
   full:       -2.193      -0.119      -0.197       5.604

 projected vibrational frequencies (cm⁻¹)
eigval :       -0.00    -0.00     0.00     0.00     0.00     0.00
eigval :        4.55     6.76     7.65    15.63    16.43    20.03
eigval :       20.64    23.78    32.75    34.25    36.03    38.66
eigval :       44.47    51.02    58.57    63.73    66.91    70.01
eigval :       75.42    81.04    89.73    99.74   100.15   107.14
eigval :      114.27   123.64   129.79   131.04   143.42   149.41
eigval :      161.06   174.97   176.56   177.14   188.94   190.33
eigval :      197.03   211.65   215.62   224.86   226.65   248.79
eigval :      256.61   258.19   266.02   279.43   281.89   289.94
eigval :      292.01   298.27   311.26   318.47   325.13   327.41
eigval :      336.13   346.90   357.28   370.39   371.07   371.95
eigval :      375.37   379.96   384.74   388.93   389.85   394.14
eigval :      396.45   411.52   422.22   425.11   433.32   440.04
eigval :      456.85   464.80   467.06   479.12   482.11   489.75
eigval :      496.90   518.64   530.41   532.14   541.66   545.80
eigval :      547.89   562.60   565.21   569.34   578.62   580.01
eigval :      587.20   588.98   589.87   591.48   596.74   600.55
eigval :      603.00   609.85   617.10   620.22   630.61   634.28
eigval :      663.79   665.96   671.03   677.48   682.57   686.63
eigval :      687.68   690.18   691.49   693.32   711.16   720.67
eigval :      723.18   741.36   745.99   749.03   755.51   757.30
eigval :      766.26   776.33   778.79   782.16   798.84   809.88
eigval :      816.57   818.19   820.98   829.17   830.70   848.31
eigval :      853.08   869.77   873.34   876.80   878.83   879.04
eigval :      880.01   881.96   885.89   887.77   900.47   904.48
eigval :      906.57   910.13   910.38   912.65   913.41   917.68
eigval :      920.14   925.58   926.83   927.54   927.86   929.16
eigval :      931.25   932.36   932.45   932.54   932.82   933.65
eigval :      940.55   948.76   964.27   966.31   971.97   979.26
eigval :      980.47   992.19  1006.51  1013.10  1019.50  1025.80
eigval :     1027.78  1028.66  1058.57  1062.29  1069.66  1076.32
eigval :     1078.63  1083.61  1084.78  1088.39  1113.04  1115.87
eigval :     1118.72  1119.63  1122.26  1136.69  1142.21  1143.47
eigval :     1144.70  1150.96  1158.61  1175.51  1182.39  1182.53
eigval :     1182.68  1183.32  1183.87  1185.44  1186.08  1194.81
eigval :     1196.77  1198.16  1200.15  1202.41  1206.95  1213.48
eigval :     1221.78  1226.82  1230.35  1231.88  1237.33  1247.00
eigval :     1252.34  1269.77  1271.63  1272.72  1276.51  1279.77
eigval :     1280.44  1281.31  1282.40  1291.80  1299.16  1312.66
eigval :     1312.76  1316.23  1317.17  1319.30  1321.70  1326.39
eigval :     1332.53  1334.39  1337.99  1352.33  1362.75  1370.78
eigval :     1393.11  1395.60  1405.25  1406.70  1410.83  1411.82
eigval :     1416.54  1419.60  1426.96  1433.64  1433.90  1435.25
eigval :     1438.82  1447.92  1456.27  1457.83  1465.82  1474.99
eigval :     1478.49  1483.75  1487.26  1488.51  1489.51  1491.60
eigval :     1493.78  1497.61  1501.26  1502.40  1508.29  1546.37
eigval :     1548.13  1559.42  1570.48  1576.24  1577.50  1578.31
eigval :     1582.65  1583.65  1585.35  1589.76  1591.86  1594.17
eigval :     1596.37  1600.67  1600.78  1601.54  1604.30  1610.33
eigval :     1688.66  1700.88  3003.43  3026.57  3030.62  3031.63
eigval :     3034.20  3035.28  3038.61  3038.85  3040.03  3069.83
eigval :     3070.27  3070.85  3071.17  3072.14  3072.89  3073.85
eigval :     3074.92  3077.61  3077.84  3078.94  3079.18  3080.62
eigval :     3080.67  3080.98  3081.61  3082.96  3083.66  3084.56
eigval :     3084.63  3085.06  3086.97  3088.04  3090.01  3090.86
eigval :     3091.39  3091.50  3092.05  3092.43  3092.50  3092.78
eigval :     3092.79  3093.56  3094.01  3095.98  3099.15  3101.93

   temp. (K)  partition function   enthalpy   heat capacity  entropy
                                   cal/mol     cal/K/mol   cal/K/mol   J/K/mol
 298.15  VIB  0.255E+29            33843.995    207.459    214.427
         ROT  0.420E+09              888.752      2.981     42.441
         INT  0.107E+38            34732.747    210.440    256.867
         TR   0.250E+29             1481.254      4.968     46.163
         TOT                       36214.0009   215.4084   303.0300  1267.8777

       T/K    H(0)-H(T)+PV         H(T)/Eh          T*S/Eh         G(T)/Eh
   ------------------------------------------------------------------------
    298.15    0.577107E-01    0.945586E+00    0.143979E+00    0.801607E+00
   ------------------------------------------------------------------------

         :::::::::::::::::::::::::::::::::::::::::::::::::::::
         ::                  THERMODYNAMIC                  ::
         :::::::::::::::::::::::::::::::::::::::::::::::::::::
         :: total free energy        -173.769604137015 Eh   ::
         ::.................................................::
         :: total energy             -174.571210787790 Eh   ::
         :: zero point energy           0.887875318925 Eh   ::
         :: G(RRHO) w/o ZPVE           -0.086268668151 Eh   ::
         :: G(RRHO) contrib.            0.801606650775 Eh   ::
         :::::::::::::::::::::::::::::::::::::::::::::::::::::

           -------------------------------------------------
          | TOTAL ENERGY             -174.571210787790 Eh   |
          | TOTAL ENTHALPY           -173.625624784948 Eh   |
          | TOTAL FREE ENERGY        -173.769604137015 Eh   |
          | GRADIENT NORM               0.000036340184 Eh/α |
          | HOMO-LUMO GAP               1.287484692769 eV   |
           -------------------------------------------------

 * finished run on 2025/09/05 at 05:27:11.785
