   * xtb version 6.7.1 (edcfbbe) compiled by 'albert@albert-system' on 2024-07-22

   ID    Z sym.   atoms
    1    6 C      1-11, 13, 15-24, 26-59, 61-68
    2    7 N      12, 25
    3    8 O      14, 60
    4    1 H      69-114

          program call               : xtb data2507/gas/NAI–PhBiFA/NAI–PhBiFA_gas_S0_finalOpt.xtbopt.xyz --gfn 2 --spinpol --tblite --uhf 2 --ohess vtight --parallel 40 --molden --ceasefiles --namespace data2507/gas/NAI–PhBiFA/NAI–PhBiFA_gas_T1_preOpt
 * total energy  :  -174.4978194 Eh     change       -0.3541174E-07 Eh
 * total energy  :  -174.5021785 Eh     change       -0.4359116E-02 Eh
 * total energy  :  -174.5035053 Eh     change       -0.1326811E-02 Eh
 * total energy  :  -174.5037211 Eh     change       -0.2157706E-03 Eh
 * total energy  :  -174.5039514 Eh     change       -0.2303238E-03 Eh
 * total energy  :  -174.5040628 Eh     change       -0.1114094E-03 Eh
 * total energy  :  -174.5041503 Eh     change       -0.8749378E-04 Eh
 * total energy  :  -174.5042064 Eh     change       -0.5608579E-04 Eh
 * total energy  :  -174.5042467 Eh     change       -0.4034795E-04 Eh
 * total energy  :  -174.5042796 Eh     change       -0.3283923E-04 Eh
 * total energy  :  -174.5048465 Eh     change       -0.8121377E-06 Eh
 * total energy  :  -174.5048471 Eh     change       -0.5669948E-06 Eh
 * total energy  :  -174.5048477 Eh     change       -0.6789856E-06 Eh
 * total energy  :  -174.5048487 Eh     change       -0.9638731E-06 Eh
 * total energy  :  -174.5048500 Eh     change       -0.1331091E-05 Eh
 * total energy  :  -174.5048517 Eh     change       -0.1658841E-05 Eh
 * total energy  :  -174.5048521 Eh     change       -0.3682339E-06 Eh
 * total energy  :  -174.5048529 Eh     change       -0.8868990E-06 Eh
 * total energy  :  -174.5048530 Eh     change       -0.8778451E-07 Eh
   *** GEOMETRY OPTIMIZATION CONVERGED AFTER 154 ITERATIONS ***

 final structure:
================
114
 xtb: 6.7.1 (edcfbbe)
C           10.86156051079283        0.35874680715425        0.27967104417072
C            9.37086731402461        0.30418504382427        0.10701442641184
C            8.80057396893470       -0.38914002879072       -0.96489223872502
C            9.61975419783347       -1.03556699295770       -2.00902213289390
C           10.53504126771395       -0.31257768748775       -2.76758651592526
C           11.27043101476903       -0.93540862003721       -3.75950178306965
C           11.10479092006995       -2.28841640841659       -4.00373912151427
C           10.19060945016810       -3.01433960062541       -3.25827178327377
C            9.44803848950793       -2.39193028808930       -2.27174222228760
C            7.41940527404964       -0.50508801709093       -1.06805908939825
C            6.59824984038766        0.06019568544156       -0.11002930075556
N            5.18094735850543       -0.08201734887090       -0.21295006255492
C            4.67414751136513       -1.37372195790469       -0.16622646180238
O            5.41983590929050       -2.33387208876995       -0.03507693400176
C            3.22573408978221       -1.49894660198992       -0.27516730078578
C            2.65197165077532       -2.78193511070654       -0.29025154862170
C            1.29471025445870       -2.91780399562103       -0.44218000104978
C            0.47212063236035       -1.79244216938017       -0.54039613861845
C            0.99426571993450       -0.49984842089785       -0.45201310265807
C            0.18278986417664        0.68120627508363       -0.52409794616888
C           -1.23962936326478        0.64791362538908       -0.35426992307439
C           -1.85845872065233       -0.24157097670279        0.55273072877541
C           -3.21658480969132       -0.26998634897385        0.71763863537312
C           -4.04755200726892        0.58790187011670       -0.02223262870643
N           -5.42692534099410        0.53395194137719        0.12020039553273
C           -6.19224925928057        1.69674040250819        0.00455174620596
C           -7.44654747098313        1.66124938550127       -0.60838248542294
C           -8.19749407977265        2.81063205632848       -0.72195681910703
C           -7.72439800754878        4.03144368406904       -0.23859821334204
C           -8.52459397581467        5.25450725603346       -0.36934038171192
C           -9.90423177273521        5.22646634050462       -0.17264619127869
C          -10.65560077653881        6.38007747694401       -0.29371707742805
C          -10.04402107872022        7.57918552379908       -0.61999487027674
C           -8.67421237788406        7.61831917246351       -0.82108726404430
C           -7.91947610118767        6.46762543545070       -0.69368049387144
C           -6.46985165084236        4.05845007861094        0.37224519800566
C           -5.71501352214838        2.91290024897964        0.49800349525299
C           -6.05137674836317       -0.68742523198262        0.38419878319636
C           -7.15582611243998       -0.74268809369635        1.24039789117043
C           -7.77263407841103       -1.94497133779840        1.52330546658909
C           -7.27807350859886       -3.10799933416605        0.95028436456121
C           -6.17022296362030       -3.05580801247130        0.08694994670918
C           -5.56074720459650       -1.86097646669101       -0.20308340326062
C           -5.81293893381131       -4.43754589169303       -0.41032128928984
C           -5.94440685874753       -4.53094893714678       -1.93357530242271
C           -4.39820559840442       -4.82680253159701        0.03054864245090
C           -6.85703517576117       -5.28496374354516        0.28188296387421
C           -7.04356296208148       -6.64859309140718        0.21932407259199
C           -8.08136251036969       -7.21637995693898        0.94706243619497
C           -8.91859465005674       -6.43012444488080        1.72446394881689
C           -8.73913501113804       -5.05888859356795        1.79396194868189
C           -7.70389904047811       -4.48877664521918        1.06936414974517
C           -3.44685414876842        1.50089429380202       -0.90316877384224
C           -2.08591632819207        1.53830553752032       -1.05202113312014
C            0.82887065791389        1.93962935444876       -0.69189458009359
C            2.18213029674482        2.06302468860521       -0.63118870830345
C            3.00114267160124        0.91993783550992       -0.44759947603845
C            2.41012268481361       -0.35754094354214       -0.37753764648216
C            4.43904615876847        1.08595764382050       -0.37022671296221
O            4.99647804914735        2.17433859891186       -0.43448619743455
C            7.14968732275511        0.75374782259535        0.95250200939874
C            8.52835363897998        0.88812855342616        1.05747505336868
C            9.06191914596367        1.63975140885414        2.21209481529604
C            8.75702330823294        1.23041086175106        3.50642455296544
C            9.23437772750519        1.93484256311341        4.59667216958833
C           10.01272576111505        3.06439466406731        4.40775514673792
C           10.30929736829821        3.48704864463111        3.12279424147821
C            9.83966724230048        2.77882084458190        2.03186015032347
H           11.12011802538310        0.39671118282079        1.33586679347591
H           11.32992705026457       -0.51395210219418       -0.17007374217876
H           11.27881408175137        1.24562260696964       -0.19635076906907
H           10.65395943165215        0.74615557496409       -2.59098262025876
H           11.97488939515480       -0.36288753038148       -4.34591982100688
H           11.68340133524410       -2.77450732888999       -4.77587253236022
H           10.05499589559176       -4.06935045585935       -3.44842533587122
H            8.73491737575790       -2.95460925441227       -1.68697478464647
H            6.98767888070474       -1.04048956324585       -1.90004812382673
H            3.30771052729275       -3.63350574252661       -0.20011224592429
H            0.84890540906297       -3.90070638337969       -0.48951809171481
H           -0.58350362263393       -1.93024037520518       -0.72014533133940
H           -1.23659034939867       -0.86712821024753        1.17481405103037
H           -3.66123942597731       -0.93422240959024        1.44454477582168
H           -7.81606897372260        0.72794961144573       -1.00726336477239
H           -9.15414553502116        2.77066493126202       -1.22084391689063
H          -10.38514447258898        4.29833161942900        0.10018990552309
H          -11.72294351000821        6.34473474983025       -0.13129644650799
H          -10.63239493638656        8.47929226319473       -0.71713726909329
H           -8.19261123484477        8.54981401538991       -1.08010198125300
H           -6.85425754960801        6.50170027618528       -0.87006698889934
H           -6.09647879024751        4.98561756791854        0.78025755121485
H           -4.75647350553753        2.94427188561789        0.99470229187267
H           -7.51255372990355        0.16953268457889        1.69552679140187
H           -8.61876712976732       -1.97557172102996        2.19250620017344
H           -4.72113624354154       -1.80766572130193       -0.88021731122291
H           -5.23178851887485       -3.86644439486956       -2.41645007233470
H           -6.94889221005812       -4.24993170786990       -2.24308675933870
H           -5.75125953628399       -5.54791757659631       -2.26568562340285
H           -4.17634609373568       -5.84646263760797       -0.27416282803976
H           -3.66521728723400       -4.16154485348385       -0.42000739246441
H           -4.30934957305819       -4.76140217379079        1.11295040770837
H           -6.39830620377430       -7.27179507727063       -0.38231159987791
H           -8.23851154866168       -8.28411114979313        0.90716791669899
H           -9.71900176771383       -6.89412172582945        2.28178812221877
H           -9.39117475451554       -4.44783882233625        2.40008415673302
H           -4.07425290830936        2.15501558666335       -1.49122137940554
H           -1.65590208121815        2.21907169092927       -1.77020742941903
H            0.21672373430061        2.82413148772018       -0.78499462939867
H            2.67187849880595        3.02106342375732       -0.70755537919822
H            6.50872725429093        1.20468267617358        1.69491760744160
H            8.15231738171747        0.34660111246352        3.65168360131139
H            8.99739595724250        1.60286828218003        5.59742061514296
H           10.38389367268529        3.61586058755596        5.25939550365190
H           10.90822683368127        4.37358345871800        2.97083639865528
H           10.05873418879181        3.11864214871095        1.03054881532215

 projected vibrational frequencies (cm⁻¹)
eigval :       -0.00     0.00     0.00     0.00     0.00     0.00
eigval :        4.80     5.57     7.92    16.00    17.17    19.89
eigval :       20.47    24.42    32.46    34.27    35.74    38.77
eigval :       44.53    51.39    60.13    66.83    68.90    72.46
eigval :       77.43    85.92    89.93   100.10   101.54   112.56
eigval :      113.13   122.15   131.09   135.79   146.05   150.68
eigval :      161.03   175.58   176.94   180.28   188.84   192.92
eigval :      199.13   214.71   218.24   224.09   227.63   247.67
eigval :      252.52   259.09   265.77   272.50   281.96   287.69
eigval :      291.75   292.77   310.89   316.88   323.15   324.41
eigval :      333.94   334.92   355.44   370.00   370.11   371.46
eigval :      374.44   375.82   381.62   386.65   390.25   391.81
eigval :      397.83   402.21   413.40   422.98   437.00   443.83
eigval :      457.61   464.82   466.95   475.60   481.07   490.28
eigval :      494.83   500.12   515.70   521.64   531.04   539.68
eigval :      546.47   561.25   563.41   567.88   572.83   578.04
eigval :      580.59   583.69   588.35   589.31   590.78   597.45
eigval :      602.31   605.10   608.58   616.69   625.14   633.55
eigval :      661.53   663.33   665.21   667.79   675.41   677.64
eigval :      680.65   684.46   687.63   689.83   693.59   720.30
eigval :      723.66   726.51   740.25   744.87   753.50   756.58
eigval :      765.76   774.63   777.94   779.99   780.80   793.98
eigval :      803.74   816.17   819.79   820.54   829.95   830.22
eigval :      845.35   850.70   866.89   869.91   876.54   877.01
eigval :      878.95   879.34   881.21   883.46   887.12   900.70
eigval :      901.60   903.33   905.80   907.72   908.36   910.89
eigval :      912.25   916.21   919.94   922.31   926.43   927.84
eigval :      930.67   931.51   931.77   931.96   932.53   933.35
eigval :      940.41   947.56   962.82   966.32   968.79   978.63
eigval :      980.23   988.68  1001.52  1012.48  1016.50  1018.64
eigval :     1025.02  1026.90  1045.76  1061.04  1068.83  1074.65
eigval :     1077.68  1083.59  1084.77  1087.47  1110.07  1111.04
eigval :     1117.84  1118.53  1119.55  1122.22  1139.70  1141.95
eigval :     1142.90  1149.78  1156.69  1160.67  1174.49  1175.11
eigval :     1181.52  1181.72  1181.86  1182.12  1185.49  1189.18
eigval :     1191.34  1196.18  1197.38  1199.76  1201.06  1204.47
eigval :     1208.83  1216.28  1225.00  1230.20  1233.42  1240.41
eigval :     1250.45  1266.27  1268.24  1268.76  1271.39  1278.88
eigval :     1279.52  1280.07  1281.24  1290.92  1302.42  1306.70
eigval :     1313.18  1316.23  1316.64  1317.49  1319.42  1320.86
eigval :     1328.16  1331.60  1335.52  1346.36  1362.69  1366.77
eigval :     1381.59  1392.46  1395.30  1404.89  1407.03  1410.77
eigval :     1417.83  1421.08  1425.98  1426.50  1431.78  1432.59
eigval :     1433.60  1434.81  1439.75  1453.35  1455.38  1458.17
eigval :     1459.29  1470.28  1477.53  1482.70  1483.13  1484.39
eigval :     1486.82  1487.39  1490.06  1492.66  1494.33  1494.95
eigval :     1499.69  1511.49  1547.74  1552.61  1560.66  1562.88
eigval :     1565.93  1569.40  1577.62  1580.38  1581.76  1583.43
eigval :     1587.73  1591.61  1598.77  1600.27  1601.19  1606.05
eigval :     1615.60  1639.18  2999.67  3029.35  3032.41  3032.89
eigval :     3033.68  3034.61  3036.08  3039.85  3042.34  3067.37
eigval :     3067.54  3070.83  3072.14  3073.94  3074.09  3075.06
eigval :     3075.13  3077.93  3078.53  3078.86  3079.36  3081.54
eigval :     3081.87  3082.47  3082.73  3083.72  3084.38  3085.01
eigval :     3085.47  3085.92  3086.38  3087.09  3087.72  3090.81
eigval :     3091.27  3093.85  3094.24  3094.31  3095.06  3095.17
eigval :     3095.23  3096.00  3096.45  3098.91  3105.75  3107.25

   temp. (K)  partition function   enthalpy   heat capacity  entropy
                                   cal/mol     cal/K/mol   cal/K/mol   J/K/mol
 298.15  VIB  0.228E+29            33969.785    208.853    214.788
         ROT  0.418E+09              888.752      2.981     42.431
         INT  0.954E+37            34858.538    211.834    257.220
         TR   0.250E+29             1481.254      4.968     46.163
         TOT                       36339.7914   216.8019   303.3826  1269.3527

       T/K    H(0)-H(T)+PV         H(T)/Eh          T*S/Eh         G(T)/Eh
   ------------------------------------------------------------------------
    298.15    0.579111E-01    0.942666E+00    0.144147E+00    0.798519E+00
   ------------------------------------------------------------------------

         :::::::::::::::::::::::::::::::::::::::::::::::::::::
         ::                  THERMODYNAMIC                  ::
         :::::::::::::::::::::::::::::::::::::::::::::::::::::
         :: total free energy        -173.706333955170 Eh   ::
         ::.................................................::
         :: total energy             -174.504852950774 Eh   ::
         :: zero point energy           0.884754700934 Eh   ::
         :: G(RRHO) w/o ZPVE           -0.086235705329 Eh   ::
         :: G(RRHO) contrib.            0.798518995604 Eh   ::
         :::::::::::::::::::::::::::::::::::::::::::::::::::::

           -------------------------------------------------
          | TOTAL ENERGY             -174.504852950774 Eh   |
          | TOTAL ENTHALPY           -173.562187105977 Eh   |
          | TOTAL FREE ENERGY        -173.706333955170 Eh   |
          | GRADIENT NORM               0.000108976362 Eh/α |
           -------------------------------------------------

 * finished run on 2025/09/05 at 05:42:30.248
