   * xtb version 6.7.1 (edcfbbe) compiled by 'albert@albert-system' on 2024-07-22

   ID    Z sym.   atoms
    1    6 C      1-11, 13, 15-24, 26-59, 61-68
    2    7 N      12, 25
    3    8 O      14, 60
    4    1 H      69-114

          program call               : xtb data2507/gas/NAI–PhBiFA/NAI–PhBiFA_gas_T1_crest.xyz --gfn 2 --spinpol --tblite --uhf 2 --ohess vtight --parallel 40 --molden --ceasefiles --namespace data2507/gas/NAI–PhBiFA/NAI–PhBiFA_gas_T1_finalOpt
 * total energy  :  -174.5048060 Eh     change       -0.3583011E-08 Eh
 * total energy  :  -174.5048241 Eh     change       -0.1811033E-04 Eh
 * total energy  :  -174.5048307 Eh     change       -0.6640564E-05 Eh
 * total energy  :  -174.5048320 Eh     change       -0.1293880E-05 Eh
 * total energy  :  -174.5048331 Eh     change       -0.1112536E-05 Eh
 * total energy  :  -174.5048342 Eh     change       -0.1049041E-05 Eh
 * total energy  :  -174.5048345 Eh     change       -0.3171626E-06 Eh
 * total energy  :  -174.5048357 Eh     change       -0.1226976E-05 Eh
 * total energy  :  -174.5048378 Eh     change       -0.2056598E-05 Eh
 * total energy  :  -174.5048380 Eh     change       -0.2049734E-06 Eh
 * total energy  :  -174.5048665 Eh     change       -0.3085058E-06 Eh
 * total energy  :  -174.5048667 Eh     change       -0.1478334E-06 Eh
 * total energy  :  -174.5048669 Eh     change       -0.2418619E-06 Eh
 * total energy  :  -174.5048672 Eh     change       -0.2679651E-06 Eh
 * total energy  :  -174.5048675 Eh     change       -0.2874912E-06 Eh
 * total energy  :  -174.5048677 Eh     change       -0.2249925E-06 Eh
 * total energy  :  -174.5048679 Eh     change       -0.1985582E-06 Eh
 * total energy  :  -174.5048682 Eh     change       -0.2721926E-06 Eh
 * total energy  :  -174.5048682 Eh     change       -0.5876618E-07 Eh
   *** GEOMETRY OPTIMIZATION CONVERGED AFTER 59 ITERATIONS ***

 final structure:
================
114
 xtb: 6.7.1 (edcfbbe)
C           10.84788490556100        0.71283920578104        0.15819724058412
C            9.36854312388467        0.45588246724175        0.13972336518902
C            8.80644781568203       -0.35782814212738       -0.84816002416900
C            9.64048312870080       -1.05260251515233       -1.85048718205474
C            9.44743639302322       -0.80444988975332       -3.20576851918814
C           10.20809589494898       -1.46196162033231       -4.15542349774461
C           11.16319450134945       -2.38484300129428       -3.76369549291369
C           11.35212470772033       -2.64838975273540       -2.41738863998702
C           10.59816106977577       -1.98543161019966       -1.46645717166890
C            7.42894838682375       -0.51726545726951       -0.92855152239681
C            6.60224941634519        0.10803457978012       -0.01175009197083
N            5.18622546593257       -0.05248778147653       -0.09854403412471
C            4.68543481140262       -1.34102602164476        0.03197951864260
O            5.43460445287296       -2.28517789500416        0.23521718963913
C            3.23854583117869       -1.48191603225714       -0.08157716566162
C            2.67342582847226       -2.76744840434491       -0.02603108736188
C            1.31863228230507       -2.92134952232061       -0.18327121210293
C            0.49000628678769       -1.80932999966863       -0.35428132502828
C            1.00258908609997       -0.50997241898923       -0.33470856756113
C            0.18404496633505        0.65955996478394       -0.47983804953734
C           -1.24006336870417        0.62354443231874       -0.32519774213031
C           -1.86283612158660       -0.22274503813971        0.61973628734714
C           -3.22314100530496       -0.26224994118232        0.76206720595728
C           -4.05212684154719        0.54145289862978       -0.03837657292409
N           -5.43320048543256        0.46746720073255        0.07759772346970
C           -6.21901603706452        1.60633938988022       -0.11115633751027
C           -7.46023335523094        1.51348705346871       -0.74455446570859
C           -8.23270401109685        2.63912462467748       -0.92861670846845
C           -7.79483812474399        3.89231984920461       -0.49764600062945
C           -8.61895199397912        5.08905773431680       -0.70219214573889
C          -10.00141776491598        5.03827482756607       -0.53126948560464
C          -10.77583656762131        6.16687642918963       -0.72236292661866
C          -10.18470925898944        7.36310034591157       -1.09378679013442
C           -8.81223587622743        7.42466248771771       -1.26950159357510
C           -8.03467341981723        6.29927310915914       -1.07239025853985
C           -6.55260550948922        3.97683073107271        0.13284104813963
C           -5.77637114532063        2.85566753946406        0.32883813536694
C           -6.03811696924426       -0.75410719989846        0.38354134754667
C           -7.15964392217359       -0.79562619555617        1.21794283837057
C           -7.75728404582005       -1.99753421441975        1.54104293139976
C           -7.22615312312448       -3.17364958721118        1.03087141282106
C           -6.10070840041614       -3.13529875776603        0.18987269090161
C           -5.51008389786787       -1.94144223471019       -0.14009136806190
C           -5.70334103238357       -4.52927854983850       -0.23771899039080
C           -5.79687530584535       -4.69226921636446       -1.75788447018492
C           -4.29144678753907       -4.86742625380900        0.25186526085104
C           -6.74534495918515       -5.36806491750565        0.46795306439267
C           -6.90261870745098       -6.73678220615603        0.46072820261588
C           -7.94485973671941       -7.29471129295839        1.18973010473494
C           -8.81518819418116       -6.49373597758059        1.91393220307590
C           -8.66531644293711       -5.11725270031644        1.92756535296969
C           -7.62589702594792       -4.55687565409296        1.20136593395346
C           -3.44814941645637        1.41771275450102       -0.95353217506205
C           -2.08527479942371        1.46609422382481       -1.08121389514138
C            0.82351115601997        1.91123849500023       -0.71077379152301
C            2.17550501792652        2.04678628114248       -0.64790827223618
C            3.00069894366913        0.92118776991462       -0.39577278528122
C            2.41681175459120       -0.35411191461028       -0.25709900741630
C            4.43675294556956        1.10034473180068       -0.32219020223976
O            4.98674028100952        2.18793277547314       -0.44577529692682
C            7.14651208053289        0.89950803599859        0.98276823575105
C            8.52247957802776        1.07935154644584        1.06212109769131
C            9.03546984763786        1.95756827581571        2.13188481294060
C            9.96722426864555        1.50606134820109        3.06136019303571
C           10.41182072990022        2.34078952868375        4.07041779664861
C            9.93549952906149        3.63788943158733        4.16184897272183
C            9.00221687560420        4.09334102429961        3.24531886365506
C            8.54980571516831        3.25785930868376        2.24071866876122
H           11.36694231173930       -0.03051223581454        0.76258534877753
H           11.25417145552393        0.66250182840111       -0.84990287557819
H           11.05994351127691        1.69336550181797        0.57867594286809
H            8.70362892308106       -0.08157042991640       -3.50920125256135
H           10.05442035401324       -1.25550701911556       -5.20499453419302
H           11.75578610622581       -2.90013494486662       -4.50563113551426
H           12.08955014917069       -3.37509699387918       -2.10780571085351
H           10.73577572712790       -2.20346761298245       -0.41781449953484
H            7.00579197482550       -1.14265668306252       -1.69992977357063
H            3.33394408529118       -3.60747667490577        0.12007733925398
H            0.87953482798875       -3.90838598018074       -0.17804617770676
H           -0.56274987601467       -1.96491528428405       -0.53626885647383
H           -1.24370127991934       -0.80418194866995        1.28579302155674
H           -3.67214169733366       -0.89335392882115        1.51535229904428
H           -7.80241224990286        0.55390311527206       -1.10343349223499
H           -9.17849285246220        2.55364288181718       -1.44225898134047
H          -10.46702366611871        4.11327102740996       -0.22350468497045
H          -11.84525984590399        6.11427082828096       -0.57945416191525
H          -10.79100792425113        8.24353319460619       -1.24561450119823
H           -8.34639112851384        8.35384556976919       -1.56330507752024
H           -6.96709472533836        6.34989868750562       -1.22943265228575
H           -6.20637384827882        4.93090508802538        0.50079757479090
H           -4.82817745629636        2.93246459032260        0.84023511686097
H           -7.54536639917197        0.12778150572479        1.62425955975897
H           -8.61717828536177       -2.01700526167885        2.19290276710244
H           -4.65698534928101       -1.89980222095306       -0.80097293389830
H           -5.08639298401261       -4.03486398908366       -2.25346029435874
H           -6.79915282778845       -4.44622284671586       -2.10236130672800
H           -5.57567463859775       -5.71856459951947       -2.04002841499570
H           -4.04094882522840       -5.89434081414567       -0.00201799837947
H           -3.56231741131187       -4.20655487274936       -0.21124470657275
H           -4.22943567876841       -4.75237615170910        1.33199722030477
H           -6.23140685036412       -7.37135746936783       -0.09917239896020
H           -8.07942909438529       -8.36626105386685        1.19272197524712
H           -9.61835264717575       -6.95027201800860        2.47344546717463
H           -9.34317178219887       -4.49475584739590        2.49230899589039
H           -4.07363862737183        2.03174244993340       -1.58523809530786
H           -1.65170578161529        2.11469605741550       -1.82651862671809
H            0.20649775121839        2.78521749983359       -0.85644902557119
H            2.65943380139241        3.00252647584609       -0.77410226272078
H            6.50139675446143        1.38260101322108        1.70082808005663
H           10.32772746923994        0.48976564362042        3.00297857295478
H           11.13203432767370        1.97784130712347        4.78978286486914
H           10.28748647391448        4.29029887847834        4.94781261267656
H            8.62466478258853        5.10336401164594        3.31549084133186
H            7.82320718983467        3.60940720456911        1.52270429636598

 projected vibrational frequencies (cm⁻¹)
eigval :       -0.00    -0.00    -0.00    -0.00     0.00     0.00
eigval :        5.44     6.08     8.19    16.17    17.51    20.07
eigval :       21.52    23.94    32.29    34.91    36.39    39.45
eigval :       45.44    52.72    60.39    65.07    69.39    71.25
eigval :       77.88    85.98    90.55   101.31   101.35   113.37
eigval :      114.56   122.15   131.68   135.68   145.97   149.56
eigval :      161.17   175.77   177.37   180.26   189.19   193.39
eigval :      199.51   215.36   218.48   226.33   226.60   248.65
eigval :      252.80   256.49   264.60   273.27   281.88   288.40
eigval :      291.53   293.89   311.18   317.41   323.15   323.99
eigval :      334.02   334.98   355.71   370.17   370.27   371.72
eigval :      374.36   376.70   381.62   386.69   390.29   392.18
eigval :      397.84   401.66   413.68   422.88   436.66   444.14
eigval :      457.97   464.66   467.04   475.91   481.26   489.85
eigval :      494.62   501.50   515.68   521.59   531.20   539.77
eigval :      546.49   561.28   563.53   567.89   573.34   578.12
eigval :      580.17   583.80   588.45   589.60   590.88   597.56
eigval :      602.19   605.04   608.68   616.67   625.28   633.51
eigval :      661.16   663.93   665.45   668.28   675.46   677.76
eigval :      680.17   684.55   687.60   689.99   693.65   720.26
eigval :      723.69   726.65   739.97   744.45   754.53   756.87
eigval :      766.00   774.61   778.25   779.62   780.78   794.06
eigval :      804.13   816.27   820.14   820.65   830.26   830.45
eigval :      846.35   851.32   867.22   869.61   877.22   877.42
eigval :      879.31   879.69   881.52   883.75   887.68   901.11
eigval :      901.91   903.65   906.17   908.05   908.64   911.27
eigval :      912.66   916.46   920.41   922.36   926.80   928.24
eigval :      930.94   931.94   932.17   932.36   932.89   933.75
eigval :      941.52   947.65   962.79   966.51   968.70   978.60
eigval :      980.26   988.50  1001.35  1012.70  1016.40  1018.70
eigval :     1025.28  1027.23  1045.88  1061.09  1068.94  1074.67
eigval :     1077.68  1083.78  1084.99  1087.67  1110.39  1111.25
eigval :     1118.09  1118.67  1119.78  1122.46  1139.86  1142.34
eigval :     1143.30  1150.03  1156.95  1160.61  1174.41  1175.03
eigval :     1182.28  1182.47  1182.62  1182.89  1185.89  1189.79
eigval :     1191.79  1196.51  1197.87  1200.26  1200.78  1205.23
eigval :     1208.61  1216.69  1225.27  1230.29  1233.37  1241.15
eigval :     1250.88  1266.65  1268.46  1268.85  1271.58  1279.38
eigval :     1279.91  1280.46  1281.71  1291.01  1301.99  1306.68
eigval :     1313.38  1316.33  1316.73  1317.54  1319.45  1321.01
eigval :     1328.17  1331.61  1335.52  1345.35  1362.52  1366.93
eigval :     1381.71  1392.35  1396.00  1405.53  1407.01  1411.14
eigval :     1417.92  1420.99  1426.09  1426.60  1431.80  1432.66
eigval :     1433.66  1434.88  1439.67  1453.26  1455.21  1458.30
eigval :     1459.03  1470.20  1478.09  1482.78  1483.27  1485.60
eigval :     1487.46  1488.43  1490.44  1492.84  1494.41  1496.21
eigval :     1500.38  1511.85  1547.63  1552.90  1559.91  1562.81
eigval :     1565.22  1569.86  1577.66  1580.33  1581.49  1583.37
eigval :     1587.88  1591.53  1598.53  1600.25  1601.17  1606.10
eigval :     1616.02  1639.36  3000.15  3029.72  3033.20  3033.48
eigval :     3034.36  3035.37  3037.70  3041.84  3043.91  3068.11
eigval :     3068.16  3071.40  3072.68  3074.56  3074.61  3075.64
eigval :     3075.71  3078.32  3078.96  3079.40  3080.09  3082.10
eigval :     3082.59  3082.80  3083.25  3084.25  3085.07  3085.69
eigval :     3086.17  3086.68  3086.99  3087.88  3088.56  3091.18
eigval :     3091.62  3094.40  3094.87  3095.52  3095.65  3095.77
eigval :     3096.27  3096.41  3096.84  3099.49  3106.06  3107.94

   temp. (K)  partition function   enthalpy   heat capacity  entropy
                                   cal/mol     cal/K/mol   cal/K/mol   J/K/mol
 298.15  VIB  0.151E+29            33949.514    208.872    214.376
         ROT  0.418E+09              888.752      2.981     42.428
         INT  0.630E+37            34838.266    211.852    256.804
         TR   0.250E+29             1481.254      4.968     46.163
         TOT                       36319.5199   216.8206   302.9669  1267.6137

       T/K    H(0)-H(T)+PV         H(T)/Eh          T*S/Eh         G(T)/Eh
   ------------------------------------------------------------------------
    298.15    0.578788E-01    0.942828E+00    0.143949E+00    0.798878E+00
   ------------------------------------------------------------------------

         :::::::::::::::::::::::::::::::::::::::::::::::::::::
         ::                  THERMODYNAMIC                  ::
         :::::::::::::::::::::::::::::::::::::::::::::::::::::
         :: total free energy        -173.705990081567 Eh   ::
         ::.................................................::
         :: total energy             -174.504868358142 Eh   ::
         :: zero point energy           0.884948804435 Eh   ::
         :: G(RRHO) w/o ZPVE           -0.086070527860 Eh   ::
         :: G(RRHO) contrib.            0.798878276575 Eh   ::
         :::::::::::::::::::::::::::::::::::::::::::::::::::::

           -------------------------------------------------
          | TOTAL ENERGY             -174.504868358142 Eh   |
          | TOTAL ENTHALPY           -173.562040714667 Eh   |
          | TOTAL FREE ENERGY        -173.705990081567 Eh   |
          | GRADIENT NORM               0.000051515578 Eh/α |
           -------------------------------------------------

 * finished run on 2025/09/05 at 06:01:36.589
