   * xtb version 6.7.1 (edcfbbe) compiled by 'albert@albert-system' on 2024-07-22

   ID    Z sym.   atoms
    1    6 C      1-8, 10-18, 20, 22, 24-35, 37-44, 46, 48, 50-52
    2    7 N      9, 19, 21, 23, 36, 45, 49
    3    8 O      47
    4    1 H      53-105

          program call               : xtb data2507/toluene/2CM/2CM_toluene_T1_crest.xyz --gfn 2 --uhf 2 --gbsa toluene --ohess vtight --parallel 40 --molden --ceasefiles --namespace data2507/toluene/2CM/2CM_toluene_T1_finalOpt
      * Solvation model:               GBSA
        Solvent                        toluene
        Solvent mass                       9.2140E+01 g/mol
          :  Hamiltonian                  GFN2-xTB          :
 * total energy  :  -145.9417532 Eh     change       -0.5341604E-08 Eh
 * total energy  :  -145.9423444 Eh     change       -0.5911345E-03 Eh
 * total energy  :  -145.9427324 Eh     change       -0.3880770E-03 Eh
 * total energy  :  -145.9428687 Eh     change       -0.1362433E-03 Eh
 * total energy  :  -145.9430198 Eh     change       -0.1511051E-03 Eh
 * total energy  :  -145.9431220 Eh     change       -0.1022580E-03 Eh
 * total energy  :  -145.9432171 Eh     change       -0.9502704E-04 Eh
 * total energy  :  -145.9433153 Eh     change       -0.9826804E-04 Eh
 * total energy  :  -145.9433976 Eh     change       -0.8222050E-04 Eh
 * total energy  :  -145.9434598 Eh     change       -0.6222818E-04 Eh
 * total energy  :  -145.9445456 Eh     change       -0.6485417E-06 Eh
 * total energy  :  -145.9445463 Eh     change       -0.6999058E-06 Eh
 * total energy  :  -145.9445470 Eh     change       -0.6925999E-06 Eh
 * total energy  :  -145.9445476 Eh     change       -0.6167824E-06 Eh
 * total energy  :  -145.9445482 Eh     change       -0.5634354E-06 Eh
 * total energy  :  -145.9445487 Eh     change       -0.5558548E-06 Eh
 * total energy  :  -145.9445493 Eh     change       -0.5925655E-06 Eh
 * total energy  :  -145.9445493 Eh     change        0.3913101E-08 Eh
 * total energy  :  -145.9445493 Eh     change       -0.8095924E-09 Eh
   *** GEOMETRY OPTIMIZATION CONVERGED AFTER 123 ITERATIONS ***

 final structure:
================
105
 xtb: 6.7.1 (edcfbbe)
C           -7.46273295539052        0.77438507564068       -0.94430801265331
C           -6.36207758000540        0.97774018961077        0.09096643735593
C           -6.27807742420750        2.43415303589032        0.54441456974385
C           -5.22668999355647        2.66777937823936        1.63138389960946
C           -3.77509394830946        2.60323109311626        1.14778547055404
C           -3.37257169815650        3.81952341450487        0.31436552187329
C           -1.91148911146898        3.78333431292049       -0.13443340589966
C           -0.93435743998091        4.01785990290767        1.02540877840973
N            0.42938966801489        4.06798579133281        0.57636159448505
C            1.11928292316440        5.20835247674007        0.22210566735221
C            0.69363535261894        6.52418945195230        0.19388142422716
C            1.61056354721297        7.49733228297133       -0.19904906712161
C            2.91152942171015        7.15819684397445       -0.55165562054256
C            3.34523389744492        5.84175395479005       -0.52894681940125
C            2.44600560258271        4.85071031547411       -0.14093814565127
C            2.53522761916552        3.42936505425993       -0.00606508073521
C            3.55837824718692        2.50912121274346       -0.19336663154613
C            3.29174877702020        1.14647830315183        0.03084147570902
N            4.33498656603331        0.25990265362914       -0.13900326707006
C            4.36439382153518       -1.10205599441313       -0.16279712986009
N            3.25103598096628       -1.81675265417603       -0.22616866325392
C            3.43013164674502       -3.12817748909832       -0.24902419752342
N            2.37105551621082       -3.98282566878883       -0.31936672870212
C            1.03853333119753       -3.74636743681822       -0.58048867470495
C            0.14136775823833       -4.81690073001045       -0.39386178440048
C           -1.21710155770361       -4.67187950551892       -0.62573635757814
C           -1.68408549423877       -3.43630465108163       -1.06418556243439
C           -0.77925466285473       -2.35738047675298       -1.29409493817052
C            0.57908706324227       -2.50919212075211       -1.04638108303180
C           -1.56408580048104       -1.26376293694090       -1.77238257843278
C           -1.26140156735068        0.03603025276993       -2.17612795609767
C           -2.29652281640537        0.84677182626880       -2.61762210030076
C           -3.60886350425777        0.39227267260369       -2.65153661066803
C           -3.93655829350065       -0.90023834878429       -2.24012950551522
C           -2.90956796354234       -1.71710814082441       -1.80493162360360
N           -2.95329573639809       -3.02725801675315       -1.36788679505906
C           -4.16436051879010       -3.75530313361650       -1.11328696445460
C           -4.84862594367160       -3.33178980883197        0.19857499687785
C           -3.96402412629877       -3.53945559708040        1.43303548626982
C           -3.08936970349257       -2.32447832951818        1.75764019946373
C           -1.88622557107366       -2.69204544695395        2.62375737708361
C           -0.95942086956723       -1.49523622606317        2.82659473792870
C            0.24128223368350       -1.79681948671642        3.72403456683296
C            1.23183599740274       -2.76734334104307        3.08964115168498
N            4.62397316843383       -3.75994777036972       -0.17230959250640
C            5.66127693321252       -2.93598233992299       -0.13956034932792
O            6.85131841944407       -3.54510432465883       -0.09326778054629
C            7.99396937579886       -2.70662491107388       -0.06083878249439
N            5.61991726272708       -1.61500860382429       -0.15017799240316
C            2.01616092152814        0.72722175826365        0.44132667419890
C            0.99247678662114        1.63689546741423        0.64445325792133
C            1.25142391710713        2.98677014345675        0.42639164096033
H           -7.52343176882586       -0.26970665092702       -1.24367907503919
H           -7.27001539749510        1.37501502570801       -1.83096998803068
H           -8.42890330128780        1.06857850828821       -0.53846412919113
H           -6.56349325206317        0.34508348492042        0.95926095823403
H           -5.40660636525915        0.66836556120745       -0.33601656979504
H           -6.06997027933014        3.07045234582893       -0.31721922374603
H           -7.25381834388847        2.73082993877870        0.93895539040847
H           -5.39669831233006        3.64888818562141        2.08247845989007
H           -5.37015849791249        1.91985820525649        2.41559739021789
H           -3.61664883422285        1.69756387688121        0.56058654317312
H           -3.13296466324630        2.54331207954478        2.02857038760298
H           -3.99960581133342        3.86552461723178       -0.57691667746508
H           -3.55219966142777        4.73026424468216        0.89096562655474
H           -1.69336924898632        2.81838582706462       -0.59573992147690
H           -1.74460945027718        4.56059671663123       -0.88395012762164
H           -1.16953234192852        4.96370966868742        1.51986155647079
H           -1.02112723172017        3.21321064267752        1.75858199757799
H           -0.31392738503673        6.80315109951050        0.46063593816071
H            1.30256125389457        8.53151512356113       -0.22972149871337
H            3.59700197534636        7.93795436278504       -0.85094818172989
H            4.35673321813333        5.58661230307685       -0.80658609414688
H            4.54187656375243        2.82610336839680       -0.50661153657035
H            5.25645760470494        0.65862200020476       -0.23549490740115
H            2.65474788295734       -4.94030427231629       -0.18280226509648
H            0.52787376061988       -5.76666547732508       -0.05372480987223
H           -1.87726139518981       -5.51035038480181       -0.46902481466117
H            1.27209903255246       -1.70488305916756       -1.21436558589076
H           -0.24356459651948        0.39512248776795       -2.14501804176192
H           -2.07800876555390        1.85183757018853       -2.94896477839985
H           -4.39083393972986        1.04668745162660       -3.00447616632867
H           -4.95956415333200       -1.23955754273836       -2.27503385512379
H           -3.92471037961315       -4.81951669179736       -1.07335299797825
H           -4.85236206319884       -3.58931004765485       -1.94806485194514
H           -5.75774043331629       -3.92823250776039        0.29001627701833
H           -5.13827783813115       -2.28238724532604        0.13334930204938
H           -3.32414944435289       -4.40919836219528        1.27408542312994
H           -4.59437493299252       -3.75878724460684        2.29708068876264
H           -3.69145057268380       -1.56977843754602        2.26881861697165
H           -2.71684839232595       -1.87209473524884        0.83960173730356
H           -2.22541267336302       -3.06278496494057        3.59412897311895
H           -1.33309421425546       -3.49364420686369        2.13051302297000
H           -1.53210940970936       -0.67750988557393        3.27189218001892
H           -0.59627734768873       -1.15991914340759        1.85188325419840
H            0.76106171970742       -0.85972904824645        3.93987836336852
H           -0.10868397579186       -2.20799831848971        4.67397743618879
H            0.78415855050876       -3.74771582890466        2.94743494154457
H            1.56017975566748       -2.39934567392767        2.11881136811481
H            2.10938683272330       -2.88515021017355        3.72333203854180
H            8.84837420288400       -3.37858225896782       -0.01907422059035
H            7.97207927362944       -2.05823854827758        0.81806269652331
H            8.04032759299072       -2.08297130021784       -0.95654091895091
H            1.84954527614725       -0.32214425568044        0.60607005540906
H            0.02308130949644        1.29069630310823        0.96363650092633

          :  Hamiltonian                  GFN2-xTB          :
         :: gradient norm              0.000049545133 Eh/a0 ::
         :: HOMO-LUMO gap              0.007003904798 eV    ::
         :: SCC energy              -148.235191766272 Eh    ::
         :: -> dispersion             -0.132602077695 Eh    ::
         :: -> Gsolv                  -0.062066574478 Eh    ::
         :: repulsion energy           2.290642430589 Eh    ::

    * Orbital Energies and Occupations

         #    Occupation            Energy/Eh            Energy/eV
      -------------------------------------------------------------
         1        2.0000           -0.7320471             -19.9200
       ...           ...                  ...                  ...
       124        2.0000           -0.4167721             -11.3409
       125        2.0000           -0.4161697             -11.3246
       126        2.0000           -0.4133443             -11.2477
       127        2.0000           -0.4121470             -11.2151
       128        2.0000           -0.3939990             -10.7213
       129        2.0000           -0.3923819             -10.6773
       130        2.0000           -0.3824501             -10.4070
       131        2.0000           -0.3784972             -10.2994
       132        2.0000           -0.3776526             -10.2765
       133        2.0000           -0.3770795             -10.2609
       134        1.6208           -0.3581689              -9.7463
       135        1.3792           -0.3572321              -9.7208
       136        0.3915           -0.2477396              -6.7413 (HOMO)
       137        0.3291           -0.2474821              -6.7343 (LUMO)
       138        0.2794           -0.2472585              -6.7282
       139        0.0000           -0.2376200              -6.4660
       140                         -0.2172377              -5.9113
       141                         -0.2147289              -5.8431
       142                         -0.1933594              -5.2616
       143                         -0.1910824              -5.1996
       144                         -0.1856301              -5.0513
       145                         -0.1802391              -4.9046
       146                         -0.1143031              -3.1103
       147                         -0.0952318              -2.5914
       ...                                ...                  ...
       261                          0.7431749              20.2228
      -------------------------------------------------------------
                  HL-Gap            0.0002575 Eh            0.0070 eV

     #   Z          covCN         q      C6AA      α(0)
     1   6 C        3.752    -0.100    22.478     6.761
     2   6 C        3.800    -0.054    21.545     6.609
     3   6 C        3.802    -0.060    21.651     6.625
     4   6 C        3.801    -0.060    21.646     6.624
     5   6 C        3.801    -0.061    21.670     6.628
     6   6 C        3.802    -0.060    21.662     6.626
     7   6 C        3.801    -0.063    21.701     6.632
     8   6 C        3.741    -0.008    20.797     6.507
     9   7 N        2.797    -0.016    21.551     6.895
    10   6 C        3.074     0.040    27.032     8.524
    11   6 C        2.908    -0.051    29.270     8.871
    12   6 C        2.921    -0.045    29.109     8.848
    13   6 C        2.917    -0.037    28.931     8.820
    14   6 C        2.910    -0.041    29.022     8.834
    15   6 C        3.064    -0.024    28.545     8.761
    16   6 C        3.061    -0.018    28.390     8.738
    17   6 C        2.915    -0.075    29.868     8.962
    18   6 C        2.900     0.071    26.422     8.428
    19   7 N        2.714    -0.167    24.609     7.368
    20   6 C        2.934     0.270    22.459     7.772
    21   7 N        1.839    -0.343    29.769     8.086
    22   6 C        2.939     0.277    22.336     7.751
    23   7 N        2.715    -0.168    24.626     7.370
    24   6 C        2.901     0.075    26.331     8.414
    25   6 C        2.924    -0.073    29.831     8.957
    26   6 C        2.906    -0.051    29.277     8.872
    27   6 C        3.067     0.044    26.956     8.513
    28   6 C        3.065    -0.018    28.383     8.736
    29   6 C        2.910    -0.065    29.607     8.922
    30   6 C        3.062    -0.024    28.532     8.759
    31   6 C        2.910    -0.042    29.038     8.836
    32   6 C        2.917    -0.037    28.921     8.819
    33   6 C        2.921    -0.044    29.100     8.846
    34   6 C        2.908    -0.051    29.275     8.872
    35   6 C        3.075     0.040    27.030     8.524
    36   7 N        2.796    -0.011    21.460     6.880
    37   6 C        3.740    -0.008    20.790     6.506
    38   6 C        3.800    -0.066    21.759     6.642
    39   6 C        3.801    -0.062    21.694     6.631
    40   6 C        3.802    -0.060    21.660     6.626
    41   6 C        3.802    -0.059    21.640     6.623
    42   6 C        3.802    -0.058    21.618     6.620
    43   6 C        3.800    -0.053    21.536     6.607
    44   6 C        3.751    -0.096    22.385     6.747
    45   7 N        1.848    -0.412    31.702     8.345
    46   6 C        2.899     0.355    20.984     7.511
    47   8 O        1.708    -0.279    18.629     5.828
    48   6 C        3.656     0.032    20.332     6.473
    49   7 N        1.845    -0.425    32.081     8.394
    50   6 C        2.920    -0.064    29.594     8.921
    51   6 C        2.907    -0.053    29.315     8.878
    52   6 C        3.073     0.039    27.046     8.527
    53   1 H        0.925     0.032     2.563     2.503
    54   1 H        0.925     0.032     2.564     2.504
    55   1 H        0.925     0.030     2.581     2.512
    56   1 H        0.924     0.027     2.625     2.534
    57   1 H        0.924     0.035     2.518     2.482
    58   1 H        0.924     0.033     2.546     2.495
    59   1 H        0.924     0.028     2.618     2.530
    60   1 H        0.924     0.031     2.579     2.511
    61   1 H        0.924     0.031     2.579     2.511
    62   1 H        0.924     0.037     2.487     2.466
    63   1 H        0.924     0.030     2.588     2.516
    64   1 H        0.924     0.044     2.399     2.422
    65   1 H        0.924     0.037     2.496     2.471
    66   1 H        0.924     0.048     2.350     2.397
    67   1 H        0.924     0.042     2.420     2.432
    68   1 H        0.924     0.062     2.175     2.306
    69   1 H        0.924     0.061     2.188     2.313
    70   1 H        0.926     0.035     2.510     2.478
    71   1 H        0.926     0.030     2.593     2.518
    72   1 H        0.926     0.028     2.616     2.529
    73   1 H        0.926     0.024     2.667     2.554
    74   1 H        0.926     0.022     2.710     2.574
    75   1 H        0.860     0.199     1.113     1.653
    76   1 H        0.860     0.201     1.101     1.644
    77   1 H        0.926     0.021     2.715     2.577
    78   1 H        0.926     0.039     2.468     2.457
    79   1 H        0.926     0.048     2.341     2.393
    80   1 H        0.926     0.020     2.727     2.583
    81   1 H        0.926     0.028     2.615     2.529
    82   1 H        0.926     0.032     2.560     2.502
    83   1 H        0.926     0.037     2.485     2.465
    84   1 H        0.924     0.060     2.196     2.317
    85   1 H        0.924     0.060     2.197     2.318
    86   1 H        0.924     0.051     2.303     2.373
    87   1 H        0.924     0.054     2.271     2.356
    88   1 H        0.924     0.039     2.466     2.456
    89   1 H        0.924     0.038     2.471     2.458
    90   1 H        0.924     0.032     2.557     2.500
    91   1 H        0.925     0.033     2.540     2.492
    92   1 H        0.924     0.031     2.579     2.511
    93   1 H        0.924     0.028     2.618     2.530
    94   1 H        0.924     0.032     2.552     2.498
    95   1 H        0.924     0.029     2.595     2.519
    96   1 H        0.924     0.028     2.609     2.526
    97   1 H        0.924     0.034     2.533     2.489
    98   1 H        0.925     0.032     2.560     2.502
    99   1 H        0.925     0.022     2.696     2.568
   100   1 H        0.925     0.023     2.690     2.565
   101   1 H        0.925     0.079     1.988     2.205
   102   1 H        0.924     0.058     2.227     2.334
   103   1 H        0.924     0.057     2.232     2.336
   104   1 H        0.926     0.052     2.294     2.368
   105   1 H        0.926     0.045     2.387     2.416

molecular dipole:
                 x           y           z       tot (Debye)
 q only:       -3.893       0.861       0.430
   full:       -3.334       0.639       0.423       8.695

 projected vibrational frequencies (cm⁻¹)
eigval :       -0.00    -0.00    -0.00     0.00     0.00     0.00
eigval :        7.08    11.68    14.12    16.94    22.82    27.90
eigval :       32.44    33.49    35.85    38.31    43.49    50.58
eigval :       53.43    57.41    67.15    75.07    83.06    87.46
eigval :       90.15    95.50    99.40   109.62   111.83   115.03
eigval :      119.16   132.88   136.68   140.04   142.80   154.21
eigval :      164.51   171.19   176.62   188.23   192.38   198.83
eigval :      210.37   217.25   220.27   228.73   231.90   235.51
eigval :      244.44   253.15   261.26   266.49   277.83   286.69
eigval :      292.00   298.08   305.86   320.72   342.13   348.25
eigval :      358.31   366.38   373.30   376.70   393.65   397.31
eigval :      418.51   421.27   425.12   447.31   461.03   462.40
eigval :      465.08   491.94   495.58   515.45   518.70   527.14
eigval :      529.16   548.12   552.54   559.99   562.69   568.12
eigval :      571.11   578.38   585.16   587.94   594.63   599.82
eigval :      613.48   633.00   653.32   654.21   667.65   688.51
eigval :      689.83   698.74   710.21   730.88   731.39   738.32
eigval :      748.47   750.91   751.81   762.38   768.24   769.94
eigval :      780.04   782.03   792.38   794.27   797.94   816.73
eigval :      819.94   832.54   833.99   837.05   838.79   846.48
eigval :      857.32   867.44   869.81   874.96   875.99   887.63
eigval :      900.82   902.73   903.78   905.07   913.82   915.82
eigval :      925.39   935.23   945.44   972.55   979.07   987.05
eigval :      990.69   997.78   998.87  1005.12  1010.16  1017.26
eigval :     1022.08  1042.62  1047.27  1054.86  1058.82  1062.85
eigval :     1067.45  1080.58  1087.78  1089.56  1090.92  1093.42
eigval :     1101.19  1105.32  1119.28  1120.25  1122.33  1126.16
eigval :     1129.27  1133.13  1136.37  1137.31  1141.15  1143.71
eigval :     1146.47  1151.57  1156.81  1163.26  1169.79  1174.67
eigval :     1178.79  1188.93  1196.37  1199.50  1201.43  1209.31
eigval :     1220.22  1223.75  1226.90  1233.81  1239.11  1247.24
eigval :     1248.61  1249.13  1259.43  1260.12  1263.38  1274.38
eigval :     1277.34  1279.67  1286.17  1287.88  1288.31  1295.96
eigval :     1296.84  1300.59  1303.91  1308.72  1310.83  1315.33
eigval :     1319.19  1320.59  1321.68  1324.06  1334.37  1340.20
eigval :     1346.26  1350.90  1360.80  1363.43  1365.03  1370.48
eigval :     1371.82  1375.34  1378.03  1378.67  1382.64  1384.36
eigval :     1389.69  1394.31  1404.22  1409.09  1410.78  1413.35
eigval :     1417.74  1430.72  1433.49  1438.37  1446.43  1452.74
eigval :     1454.12  1456.62  1459.73  1464.62  1468.53  1469.16
eigval :     1481.59  1484.82  1485.28  1487.25  1487.85  1489.56
eigval :     1490.08  1492.64  1494.15  1495.06  1496.97  1502.89
eigval :     1504.25  1505.52  1506.13  1507.74  1508.84  1515.20
eigval :     1517.33  1544.18  1547.01  1554.51  2950.65  2952.04
eigval :     2954.38  2954.69  2955.64  2956.86  2962.66  2962.80
eigval :     2963.23  2966.05  2967.18  2968.59  2971.11  2972.41
eigval :     2973.03  2974.00  2977.04  2978.21  2981.88  2982.81
eigval :     2985.38  2986.72  2988.62  2989.78  2992.13  2994.12
eigval :     2996.32  2997.14  3004.79  3017.10  3021.73  3022.74
eigval :     3023.96  3024.60  3027.47  3032.40  3039.72  3070.71
eigval :     3070.95  3071.37  3075.84  3081.11  3083.30  3085.98
eigval :     3090.07  3090.77  3094.64  3100.72  3104.10  3143.67
eigval :     3145.15  3424.48  3433.97

   temp. (K)  partition function   enthalpy   heat capacity  entropy
                                   cal/mol     cal/K/mol   cal/K/mol   J/K/mol
 298.15  VIB  0.129E+26            30275.037    179.291    193.596
         ROT  0.977E+08              888.752      2.981     39.542
         INT  0.126E+34            31163.789    182.272    233.138
         TR   0.178E+29             1481.254      4.968     45.480
         TOT                       32645.0433   187.2402   278.6182  1165.7388

       T/K    H(0)-H(T)+PV         H(T)/Eh          T*S/Eh         G(T)/Eh
   ------------------------------------------------------------------------
    298.15    0.520232E-01    0.923991E+00    0.132381E+00    0.791611E+00
   ------------------------------------------------------------------------

         :::::::::::::::::::::::::::::::::::::::::::::::::::::
         ::                  THERMODYNAMIC                  ::
         :::::::::::::::::::::::::::::::::::::::::::::::::::::
         :: total free energy        -145.152938378812 Eh   ::
         ::.................................................::
         :: total energy             -145.944549331425 Eh   ::
         :: zero point energy           0.871968285759 Eh   ::
         :: G(RRHO) w/o ZPVE           -0.080357333146 Eh   ::
         :: G(RRHO) contrib.            0.791610952613 Eh   ::
         :::::::::::::::::::::::::::::::::::::::::::::::::::::

           -------------------------------------------------
          | TOTAL ENERGY             -145.944549331425 Eh   |
          | TOTAL ENTHALPY           -145.020557857696 Eh   |
          | TOTAL FREE ENERGY        -145.152938378812 Eh   |
          | GRADIENT NORM               0.000055483705 Eh/α |
          | HOMO-LUMO GAP               0.007006344050 eV   |
           -------------------------------------------------

 * finished run on 2025/08/23 at 23:27:59.351
