   * xtb version 6.7.1 (edcfbbe) compiled by 'albert@albert-system' on 2024-07-22

   ID    Z sym.   atoms
    1    6 C      1-8, 10-18, 20, 22, 24-35, 37-44, 46, 48, 50-52
    2    7 N      9, 19, 21, 23, 36, 45, 49
    3    8 O      47
    4    1 H      53-105

          program call               : xtb data2507/toluene/2CM/2CM_toluene_S0_finalOpt.xtbopt.xyz --gfn 2 --uhf 2 --gbsa toluene --ohess vtight --parallel 40 --molden --ceasefiles --namespace data2507/toluene/2CM/2CM_toluene_T1_preOpt
      * Solvation model:               GBSA
        Solvent                        toluene
        Solvent mass                       9.2140E+01 g/mol
          :  Hamiltonian                  GFN2-xTB          :
 * total energy  :  -145.9421391 Eh     change       -0.1743695E-07 Eh
 * total energy  :  -145.9439088 Eh     change       -0.1769702E-02 Eh
 * total energy  :  -145.9443588 Eh     change       -0.4500949E-03 Eh
 * total energy  :  -145.9444205 Eh     change       -0.6163433E-04 Eh
 * total energy  :  -145.9444647 Eh     change       -0.4424738E-04 Eh
 * total energy  :  -145.9444800 Eh     change       -0.1527218E-04 Eh
 * total energy  :  -145.9444941 Eh     change       -0.1411684E-04 Eh
 * total energy  :  -145.9445057 Eh     change       -0.1160917E-04 Eh
 * total energy  :  -145.9445114 Eh     change       -0.5666262E-05 Eh
 * total energy  :  -145.9445199 Eh     change       -0.8534825E-05 Eh
 * total energy  :  -145.9445658 Eh     change       -0.1025017E-05 Eh
 * total energy  :  -145.9445669 Eh     change       -0.1137424E-05 Eh
 * total energy  :  -145.9445683 Eh     change       -0.1399094E-05 Eh
 * total energy  :  -145.9445700 Eh     change       -0.1687093E-05 Eh
 * total energy  :  -145.9445716 Eh     change       -0.1593736E-05 Eh
 * total energy  :  -145.9445728 Eh     change       -0.1219012E-05 Eh
 * total energy  :  -145.9445736 Eh     change       -0.8566126E-06 Eh
 * total energy  :  -145.9445743 Eh     change       -0.6217469E-06 Eh
 * total energy  :  -145.9445743 Eh     change       -0.2019931E-09 Eh
   *** GEOMETRY OPTIMIZATION CONVERGED AFTER 44 ITERATIONS ***

 final structure:
================
105
 xtb: 6.7.1 (edcfbbe)
C           -7.61671402149426        0.27997510587229       -0.93187341201792
C           -6.48737833469097        0.49447093066690        0.06989338097695
C           -6.50064593639876        1.91349720953930        0.63552172549012
C           -5.43645805957880        2.14629686562998        1.70992813034305
C           -3.99631818795679        2.20460084559178        1.19291719600365
C           -3.69894170604455        3.47740081908131        0.40084825555542
C           -2.23896995501938        3.58099008633859       -0.04140644964238
C           -1.29136848722513        3.87451304463144        1.12952897915879
N            0.06415523120019        4.05878246499456        0.69095533655417
C            0.65362520601931        5.26595691605053        0.37913583772502
C            0.11474584948265        6.53983085688146        0.38940800772304
C            0.94520176744395        7.60166443860560        0.03560367381419
C            2.27276383388467        7.38891629579896       -0.31673866455315
C            2.81967825049266        6.11517928041931       -0.33276630199234
C            2.00848604585597        5.03728748872411        0.01567738235747
C            2.22105242582174        3.62563720198706        0.10643935095526
C            3.32149008816362        2.80443693329202       -0.10189235673644
C            3.17349203315675        1.41710714604984        0.07667402039974
N            4.29110061432990        0.63087574560025       -0.11199854436085
C            4.44105847545344       -0.72203524045667       -0.17186268758163
N            3.39568945653499       -1.53068085920951       -0.25997367435814
C            3.69048790521597       -2.82008645383424       -0.31541486566969
N            2.71205624909589       -3.76305823843706       -0.41504768092179
C            1.36365174496178       -3.63659132152647       -0.67153875925327
C            0.56086455159844       -4.78258471363413       -0.50516249473808
C           -0.80612562167203       -4.74761340058053       -0.73023531130322
C           -1.37715156217346       -3.54713702526409       -1.14213260988837
C           -0.56682463303190       -2.39243255718034       -1.35554723960605
C            0.80039856315139       -2.43431203056787       -1.11404581342036
C           -1.44272436599276       -1.35971917573105       -1.81038747083367
C           -1.25121948585136       -0.03244162296844       -2.19213014905651
C           -2.35276440044018        0.69744829553003       -2.61318461354108
C           -3.62334411353388        0.13651819131493       -2.64850307423200
C           -3.84013326776563       -1.18585206152479       -2.25915726296717
C           -2.74612888110071       -1.92259928341818       -1.84452516610161
N           -2.67803050816862       -3.23958563701606       -1.43173434108264
C           -3.82254912446660       -4.06886449684684       -1.17898127676915
C           -4.52404240556517       -3.72590866965616        0.14723188326303
C           -3.61193535339191       -3.88298461413546        1.36911501729806
C           -2.83420301172799       -2.60766931876205        1.70895457374361
C           -1.59938752912284       -2.89430410688855        2.56120701607094
C           -0.76483772210844       -1.63367009173145        2.77718528438997
C            0.46469161174447       -1.85772953870533        3.65831258327640
C            1.52861611029130       -2.72320710435538        2.99134856748943
N            4.93521312358650       -3.34526596122748       -0.24674076910077
C            5.89536511827010       -2.43377184732541       -0.18832189265541
O            7.13443186097763       -2.93640536120314       -0.15120432340926
C            8.19906202286033       -2.00205171399834       -0.09417566874214
N            5.73710413193408       -1.12183589069786       -0.16639264000279
C            1.93692510893652        0.87530118029407        0.46230770946002
C            0.83670803523656        1.68534084551557        0.68568730473181
C            0.97842753262606        3.05899183699302        0.51358935733475
H           -7.60014340605716       -0.73547711852119       -1.32180532880943
H           -7.52271002327175        0.97035325323959       -1.76781655073788
H           -8.58339489745158        0.44784666498484       -0.46038141019008
H           -6.59456458788481       -0.21829263078425        0.89161746653232
H           -5.53145520726997        0.30063559902103       -0.41943493187024
H           -6.37157131874810        2.62932103549518       -0.17788085273692
H           -7.48263712294779        2.10014125581350        1.07917000707129
H           -5.65629599405747        3.08489511674122        2.22554083807437
H           -5.51183064695704        1.34399219395685        2.44860458899781
H           -3.78736848909592        1.33553443455904        0.56744516501841
H           -3.33183690694114        2.15653721184451        2.05770278544138
H           -4.32601375746272        3.49826391525089       -0.49128138184431
H           -3.95647320660005        4.35031131713813        1.00577256805343
H           -1.93452315728078        2.65022879001271       -0.52361223079634
H           -2.13885849543581        4.38732569935676       -0.77181197612905
H           -1.61329116727843        4.78284390585133        1.64489977129117
H           -1.30798894720270        3.04781677396661        1.84303153584680
H           -0.91493978250188        6.72083557769625        0.65622864088429
H            0.54784224486200        8.60541856116505        0.03524138909252
H            2.88952221196830        8.23455049995465       -0.58516432057872
H            3.85109496609471        5.95846327418394       -0.60998280648478
H            4.27529784221935        3.21568435014266       -0.39682819024388
H            5.17420301166539        1.11176848930224       -0.19125482362906
H            3.07890587138890       -4.69478487807717       -0.29992188659148
H            1.02730764541953       -5.70284422576615       -0.18474886283893
H           -1.39272005364252       -5.64166616436339       -0.58858475300646
H            1.42273044515339       -1.57159369557540       -1.26844555665836
H           -0.26648385786066        0.40925988977985       -2.15960344289860
H           -2.22049675424822        1.72277356505734       -2.92744431227017
H           -4.45867863320088        0.73072334386168       -2.98564985491244
H           -4.83166158999788       -1.60849667119112       -2.29494540082622
H           -3.49612985261306       -5.11035946611313       -1.16098203904396
H           -4.53115393120568       -3.94525376177416       -2.00378360336840
H           -5.38062384275587       -4.39594929268862        0.23641041654024
H           -4.89876091240067       -2.70264468400706        0.10408254496791
H           -2.90574897407921       -4.69513840577752        1.18779824294219
H           -4.21306380558276       -4.16796145626739        2.23485007726371
H           -3.49053593924821       -1.91190231413303        2.23680442864868
H           -2.50576925900513       -2.11150586403088        0.79675570676116
H           -1.90165286908691       -3.30464378999808        3.52784052716860
H           -0.99024252063662       -3.64346021458398        2.05184967575503
H           -1.39359878975091       -0.87019229656395        3.24257364663464
H           -0.43839801653469       -1.25454377725595        1.80561069206926
H            0.90582706380841       -0.88658201679581        3.89698230119018
H            0.15851918069652       -2.32263622113291        4.59857822832034
H            1.16195207120758       -3.73185574528973        2.81803862266082
H            1.82187343402111       -2.29859567318944        2.03256732105041
H            2.41533556704519       -2.78896784476525        3.61984641011955
H            9.10884276675757       -2.59754927801597       -0.06278920151578
H            8.11770013135604       -1.37795523560544        0.79864848116438
H            8.19377609205314       -1.35698194984445       -0.97580094307634
H            1.86128818843094       -0.18932966096711        0.59180236790527
H           -0.10076440786323        1.24608703102793        0.98487089990823

          :  Hamiltonian                  GFN2-xTB          :
         :: gradient norm              0.000044956382 Eh/a0 ::
         :: HOMO-LUMO gap              0.006854812828 eV    ::
         :: SCC energy              -148.235245135792 Eh    ::
         :: -> dispersion             -0.132590157232 Eh    ::
         :: -> Gsolv                  -0.062181943399 Eh    ::
         :: repulsion energy           2.290670864419 Eh    ::

    * Orbital Energies and Occupations

         #    Occupation            Energy/Eh            Energy/eV
      -------------------------------------------------------------
         1        2.0000           -0.7320742             -19.9208
       ...           ...                  ...                  ...
       124        2.0000           -0.4168453             -11.3429
       125        2.0000           -0.4163058             -11.3283
       126        2.0000           -0.4133621             -11.2482
       127        2.0000           -0.4120008             -11.2111
       128        2.0000           -0.3940244             -10.7220
       129        2.0000           -0.3924130             -10.6781
       130        2.0000           -0.3825057             -10.4085
       131        2.0000           -0.3785150             -10.2999
       132        2.0000           -0.3776459             -10.2763
       133        2.0000           -0.3771099             -10.2617
       134        1.6207           -0.3581973              -9.7470
       135        1.3793           -0.3572618              -9.7216
       136        0.3908           -0.2477542              -6.7417 (HOMO)
       137        0.3297           -0.2475019              -6.7349 (LUMO)
       138        0.2794           -0.2472757              -6.7287
       139        0.0000           -0.2376518              -6.4668
       140                         -0.2172572              -5.9119
       141                         -0.2147466              -5.8436
       142                         -0.1933960              -5.2626
       143                         -0.1911165              -5.2005
       144                         -0.1856555              -5.0519
       145                         -0.1802448              -4.9047
       146                         -0.1143430              -3.1114
       147                         -0.0952828              -2.5928
       ...                                ...                  ...
       261                          0.7432258              20.2242
      -------------------------------------------------------------
                  HL-Gap            0.0002523 Eh            0.0069 eV

     #   Z          covCN         q      C6AA      α(0)
     1   6 C        3.752    -0.101    22.481     6.762
     2   6 C        3.800    -0.054    21.548     6.609
     3   6 C        3.802    -0.060    21.652     6.625
     4   6 C        3.801    -0.059    21.644     6.624
     5   6 C        3.801    -0.061    21.669     6.628
     6   6 C        3.802    -0.060    21.662     6.626
     7   6 C        3.801    -0.063    21.702     6.633
     8   6 C        3.741    -0.008    20.796     6.506
     9   7 N        2.797    -0.015    21.548     6.894
    10   6 C        3.074     0.040    27.032     8.525
    11   6 C        2.908    -0.051    29.269     8.871
    12   6 C        2.921    -0.045    29.109     8.848
    13   6 C        2.917    -0.037    28.930     8.820
    14   6 C        2.910    -0.041    29.022     8.834
    15   6 C        3.064    -0.024    28.544     8.761
    16   6 C        3.061    -0.018    28.390     8.738
    17   6 C        2.915    -0.075    29.869     8.962
    18   6 C        2.900     0.071    26.421     8.428
    19   7 N        2.714    -0.167    24.606     7.367
    20   6 C        2.934     0.270    22.459     7.772
    21   7 N        1.839    -0.343    29.771     8.086
    22   6 C        2.939     0.277    22.331     7.750
    23   7 N        2.715    -0.168    24.625     7.370
    24   6 C        2.902     0.075    26.329     8.413
    25   6 C        2.924    -0.073    29.831     8.957
    26   6 C        2.906    -0.051    29.276     8.872
    27   6 C        3.067     0.044    26.955     8.513
    28   6 C        3.065    -0.018    28.384     8.736
    29   6 C        2.910    -0.064    29.601     8.921
    30   6 C        3.062    -0.024    28.531     8.759
    31   6 C        2.910    -0.042    29.037     8.836
    32   6 C        2.917    -0.037    28.921     8.819
    33   6 C        2.921    -0.045    29.108     8.847
    34   6 C        2.908    -0.051    29.277     8.872
    35   6 C        3.074     0.040    27.029     8.524
    36   7 N        2.796    -0.011    21.463     6.881
    37   6 C        3.740    -0.008    20.790     6.506
    38   6 C        3.800    -0.066    21.758     6.641
    39   6 C        3.801    -0.062    21.695     6.632
    40   6 C        3.802    -0.060    21.661     6.626
    41   6 C        3.802    -0.059    21.639     6.623
    42   6 C        3.802    -0.058    21.620     6.620
    43   6 C        3.800    -0.053    21.536     6.607
    44   6 C        3.751    -0.095    22.383     6.747
    45   7 N        1.848    -0.412    31.702     8.345
    46   6 C        2.899     0.355    20.984     7.511
    47   8 O        1.708    -0.279    18.629     5.827
    48   6 C        3.655     0.032    20.333     6.473
    49   7 N        1.845    -0.425    32.080     8.394
    50   6 C        2.920    -0.064    29.597     8.921
    51   6 C        2.907    -0.053    29.315     8.878
    52   6 C        3.073     0.039    27.045     8.527
    53   1 H        0.925     0.032     2.562     2.503
    54   1 H        0.925     0.031     2.567     2.505
    55   1 H        0.925     0.030     2.582     2.513
    56   1 H        0.924     0.027     2.624     2.533
    57   1 H        0.924     0.035     2.513     2.479
    58   1 H        0.924     0.033     2.549     2.497
    59   1 H        0.924     0.028     2.616     2.530
    60   1 H        0.924     0.030     2.581     2.512
    61   1 H        0.924     0.030     2.580     2.512
    62   1 H        0.924     0.037     2.488     2.467
    63   1 H        0.924     0.030     2.587     2.515
    64   1 H        0.924     0.044     2.399     2.422
    65   1 H        0.924     0.037     2.493     2.469
    66   1 H        0.924     0.048     2.350     2.397
    67   1 H        0.924     0.042     2.419     2.432
    68   1 H        0.924     0.062     2.174     2.306
    69   1 H        0.924     0.061     2.190     2.314
    70   1 H        0.926     0.035     2.510     2.478
    71   1 H        0.926     0.030     2.592     2.518
    72   1 H        0.926     0.028     2.615     2.529
    73   1 H        0.926     0.024     2.666     2.554
    74   1 H        0.926     0.022     2.710     2.574
    75   1 H        0.860     0.199     1.113     1.652
    76   1 H        0.860     0.201     1.101     1.644
    77   1 H        0.926     0.021     2.715     2.577
    78   1 H        0.926     0.039     2.469     2.457
    79   1 H        0.926     0.048     2.344     2.394
    80   1 H        0.926     0.020     2.727     2.582
    81   1 H        0.926     0.028     2.615     2.529
    82   1 H        0.926     0.032     2.560     2.502
    83   1 H        0.926     0.037     2.494     2.469
    84   1 H        0.924     0.060     2.196     2.317
    85   1 H        0.924     0.060     2.197     2.318
    86   1 H        0.924     0.051     2.302     2.372
    87   1 H        0.924     0.054     2.274     2.358
    88   1 H        0.924     0.039     2.465     2.455
    89   1 H        0.924     0.038     2.470     2.458
    90   1 H        0.924     0.032     2.557     2.501
    91   1 H        0.925     0.033     2.538     2.491
    92   1 H        0.924     0.031     2.578     2.511
    93   1 H        0.924     0.028     2.619     2.531
    94   1 H        0.924     0.032     2.553     2.499
    95   1 H        0.924     0.030     2.591     2.517
    96   1 H        0.924     0.028     2.611     2.527
    97   1 H        0.924     0.034     2.532     2.488
    98   1 H        0.925     0.032     2.563     2.504
    99   1 H        0.925     0.023     2.694     2.567
   100   1 H        0.925     0.022     2.696     2.568
   101   1 H        0.925     0.079     1.988     2.205
   102   1 H        0.924     0.058     2.227     2.333
   103   1 H        0.924     0.057     2.232     2.337
   104   1 H        0.926     0.052     2.289     2.366
   105   1 H        0.926     0.045     2.385     2.415

molecular dipole:
                 x           y           z       tot (Debye)
 q only:       -3.943       0.517       0.455
   full:       -3.366       0.345       0.445       8.676

 projected vibrational frequencies (cm⁻¹)
eigval :       -0.00    -0.00    -0.00    -0.00    -0.00    -0.00
eigval :        4.20    10.89    14.64    18.13    22.87    26.59
eigval :       31.94    33.86    37.52    42.17    44.15    49.08
eigval :       56.38    59.07    64.79    66.36    74.41    85.34
eigval :       89.62    93.69    98.71   107.11   110.81   114.54
eigval :      117.86   128.69   136.14   139.92   143.69   154.09
eigval :      165.67   171.66   178.32   188.01   193.36   199.74
eigval :      210.06   216.32   218.29   226.90   230.90   235.63
eigval :      243.68   253.13   259.99   267.70   278.85   287.28
eigval :      295.16   298.87   305.64   320.44   342.00   347.74
eigval :      358.47   365.57   372.50   376.20   394.05   397.23
eigval :      416.07   421.05   425.11   447.28   461.23   462.83
eigval :      465.23   493.56   494.99   515.19   518.74   526.60
eigval :      528.73   548.17   552.76   559.31   562.62   566.62
eigval :      570.74   579.92   583.92   588.51   594.72   600.64
eigval :      613.92   633.65   652.65   653.59   667.67   687.86
eigval :      689.31   698.73   709.75   730.83   731.61   738.36
eigval :      746.18   750.84   754.45   760.84   766.63   768.67
eigval :      773.95   780.19   787.90   792.76   797.29   815.26
eigval :      819.27   827.08   833.95   837.33   838.88   846.29
eigval :      856.93   865.79   867.70   872.89   874.46   887.62
eigval :      901.16   901.30   904.98   913.38   915.92   917.46
eigval :      925.93   936.83   945.33   972.66   979.32   987.41
eigval :      990.42   997.15   999.08  1005.36  1010.03  1017.61
eigval :     1022.82  1042.89  1047.26  1054.95  1058.73  1062.91
eigval :     1066.77  1080.42  1087.51  1089.82  1090.15  1093.16
eigval :     1101.79  1105.14  1118.76  1118.97  1122.68  1126.02
eigval :     1129.91  1133.44  1136.97  1138.47  1141.94  1144.41
eigval :     1146.80  1151.90  1157.60  1163.41  1170.03  1174.15
eigval :     1177.60  1188.60  1196.66  1199.07  1200.89  1209.76
eigval :     1220.74  1224.00  1227.15  1233.81  1239.39  1247.61
eigval :     1248.25  1249.44  1259.27  1259.99  1263.25  1274.86
eigval :     1277.18  1279.69  1285.47  1287.45  1288.04  1295.27
eigval :     1296.09  1299.19  1304.07  1308.50  1310.69  1315.17
eigval :     1319.57  1320.83  1322.06  1324.06  1334.39  1339.77
eigval :     1346.18  1351.40  1361.00  1364.04  1365.29  1370.16
eigval :     1372.33  1374.60  1378.31  1378.50  1382.73  1385.00
eigval :     1389.66  1395.76  1404.52  1409.02  1410.92  1412.05
eigval :     1418.30  1431.01  1433.44  1438.14  1446.16  1452.91
eigval :     1454.17  1456.71  1459.56  1464.35  1465.38  1467.70
eigval :     1481.78  1484.73  1486.01  1487.70  1488.07  1488.58
eigval :     1490.13  1492.81  1493.77  1495.82  1497.30  1500.04
eigval :     1504.46  1505.88  1505.99  1508.63  1509.38  1515.22
eigval :     1517.40  1544.08  1547.05  1554.71  2951.52  2951.86
eigval :     2954.15  2956.02  2957.13  2958.34  2962.21  2962.65
eigval :     2963.18  2965.93  2966.84  2968.53  2971.34  2973.03
eigval :     2974.15  2975.15  2977.03  2978.34  2980.91  2982.85
eigval :     2985.47  2987.23  2988.60  2989.37  2992.54  2993.72
eigval :     2996.73  2998.63  3004.97  3016.59  3020.29  3024.31
eigval :     3024.45  3025.58  3027.24  3032.09  3038.62  3070.64
eigval :     3071.04  3071.60  3075.70  3081.30  3082.84  3085.89
eigval :     3089.30  3090.86  3094.78  3099.99  3104.95  3143.91
eigval :     3145.99  3424.14  3432.28

   temp. (K)  partition function   enthalpy   heat capacity  entropy
                                   cal/mol     cal/K/mol   cal/K/mol   J/K/mol
 298.15  VIB  0.252E+26            30314.116    179.332    194.655
         ROT  0.978E+08              888.752      2.981     39.543
         INT  0.247E+34            31202.868    182.313    234.197
         TR   0.178E+29             1481.254      4.968     45.480
         TOT                       32684.1224   187.2811   279.6777  1170.1715

       T/K    H(0)-H(T)+PV         H(T)/Eh          T*S/Eh         G(T)/Eh
   ------------------------------------------------------------------------
    298.15    0.520855E-01    0.923947E+00    0.132884E+00    0.791063E+00
   ------------------------------------------------------------------------

         :::::::::::::::::::::::::::::::::::::::::::::::::::::
         ::                  THERMODYNAMIC                  ::
         :::::::::::::::::::::::::::::::::::::::::::::::::::::
         :: total free energy        -145.153511466441 Eh   ::
         ::.................................................::
         :: total energy             -145.944574271193 Eh   ::
         :: zero point energy           0.871861246003 Eh   ::
         :: G(RRHO) w/o ZPVE           -0.080798441252 Eh   ::
         :: G(RRHO) contrib.            0.791062804752 Eh   ::
         :::::::::::::::::::::::::::::::::::::::::::::::::::::

           -------------------------------------------------
          | TOTAL ENERGY             -145.944574271193 Eh   |
          | TOTAL ENTHALPY           -145.020627560816 Eh   |
          | TOTAL FREE ENERGY        -145.153511466441 Eh   |
          | GRADIENT NORM               0.000048384464 Eh/α |
          | HOMO-LUMO GAP               0.006864895211 eV   |
           -------------------------------------------------

 * finished run on 2025/08/23 at 19:24:38.925
