   * xtb version 6.7.1 (edcfbbe) compiled by 'albert@albert-system' on 2024-07-22

   ID    Z sym.   atoms
    1    6 C      1-8, 10-18, 20, 22, 24-35, 37-44, 46, 48, 50-52
    2    7 N      9, 19, 21, 23, 36, 45, 49
    3    8 O      47
    4    1 H      53-105

          program call               : xtb data2507/toluene/2CM/2CM_toluene_S0_crest.xyz --gfn 2 --gbsa toluene --ohess vtight --parallel 40 --molden --ceasefiles --namespace data2507/toluene/2CM/2CM_toluene_S0_finalOpt
      * Solvation model:               GBSA
        Solvent                        toluene
        Solvent mass                       9.2140E+01 g/mol
          :  Hamiltonian                  GFN2-xTB          :
 * total energy  :  -146.0488073 Eh     change       -0.5111502E-08 Eh
 * total energy  :  -146.0492565 Eh     change       -0.4491956E-03 Eh
 * total energy  :  -146.0495480 Eh     change       -0.2914785E-03 Eh
 * total energy  :  -146.0496728 Eh     change       -0.1247751E-03 Eh
 * total energy  :  -146.0498331 Eh     change       -0.1603051E-03 Eh
 * total energy  :  -146.0499722 Eh     change       -0.1391317E-03 Eh
 * total energy  :  -146.0500763 Eh     change       -0.1040321E-03 Eh
 * total energy  :  -146.0501589 Eh     change       -0.8265862E-04 Eh
 * total energy  :  -146.0502291 Eh     change       -0.7020142E-04 Eh
 * total energy  :  -146.0502838 Eh     change       -0.5467820E-04 Eh
 * total energy  :  -146.0513593 Eh     change       -0.2888144E-06 Eh
 * total energy  :  -146.0513596 Eh     change       -0.2955811E-06 Eh
 * total energy  :  -146.0513599 Eh     change       -0.2756215E-06 Eh
 * total energy  :  -146.0513601 Eh     change       -0.2274348E-06 Eh
 * total energy  :  -146.0513603 Eh     change       -0.1701441E-06 Eh
 * total energy  :  -146.0513605 Eh     change       -0.1753847E-06 Eh
 * total energy  :  -146.0513607 Eh     change       -0.1980117E-06 Eh
 * total energy  :  -146.0513609 Eh     change       -0.2071984E-06 Eh
 * total energy  :  -146.0513609 Eh     change       -0.1395875E-08 Eh
   *** GEOMETRY OPTIMIZATION CONVERGED AFTER 122 ITERATIONS ***

 final structure:
================
105
 xtb: 6.7.1 (edcfbbe)
C           -7.63830223936356        0.19521615155101       -0.87058805528900
C           -6.50611069095153        0.45082770982782        0.11825682758322
C           -6.53327960948685        1.88402566106252        0.64668577617629
C           -5.47338128103995        2.15342862937069        1.71681675464830
C           -4.03347464751404        2.21346292874887        1.19928505739850
C           -3.73985684844399        3.48185305619694        0.39881270664719
C           -2.28585412799173        3.57185454872393       -0.06662011757438
C           -1.31548892570359        3.85513560724144        1.08545211906455
N            0.03906115460286        4.02470152935808        0.62794123844940
C            0.63712553684472        5.21536576468522        0.29547985163422
C            0.10800427314659        6.49997769845286        0.27439933727552
C            0.94112054440013        7.53878664652972       -0.09190404035048
C            2.27455394265121        7.31795916473640       -0.43458168251530
C            2.80848024563356        6.04518876053075       -0.42013500452658
C            1.99067513117775        4.98310985275340       -0.05422659151971
C            2.20033787747626        3.56926927151271        0.07018357919873
C            3.30425030741036        2.74817715735666       -0.10699553294297
C            3.16766072142880        1.38308949148611        0.11130904611901
N            4.31242271602909        0.58744731951557       -0.02256807003734
C            4.45882721681106       -0.74898010958531       -0.11153508622303
N            3.40976986738168       -1.54916072821747       -0.24265175913820
C            3.70250045952134       -2.84312866154296       -0.32336480058435
N            2.73094174996762       -3.76403080188797       -0.47498382869714
C            1.35983069554226       -3.60618935863192       -0.70365672530796
C            0.54035874190974       -4.72699453242235       -0.50661297238355
C           -0.82176028973279       -4.67699595156413       -0.71780756060770
C           -1.38084721176011       -3.47723407486469       -1.14090852940112
C           -0.55311839319409       -2.35014669032868       -1.36944833143513
C            0.81490314096034       -2.41302187262720       -1.15022790371683
C           -1.41610940567408       -1.30173562254998       -1.83095567408380
C           -1.19694489411219        0.01142926924834       -2.22938618680866
C           -2.27713379897985        0.76089836540641       -2.65039008660426
C           -3.56189229399631        0.21858873388159       -2.67057883684256
C           -3.80550902328085       -1.08029817715505       -2.26900971607245
C           -2.72390793167271       -1.84512251467802       -1.84929214307168
N           -2.68444940201272       -3.15452169017003       -1.43141972515631
C           -3.84292127456986       -3.96556517761788       -1.16390962395874
C           -4.53347789322375       -3.61478427583479        0.16375640993459
C           -3.62665816211420       -3.80074474781521        1.38616711709612
C           -2.80827151615110       -2.55071027316202        1.72349973868727
C           -1.58461298595885       -2.87178723005385        2.57944002959471
C           -0.71242942576310       -1.63574407743931        2.78890029014285
C            0.51611476368357       -1.89272106389988        3.66233892156594
C            1.55295411338030       -2.78484223231888        2.98771867827390
N            4.93569110144770       -3.36581435526114       -0.24239491760105
C            5.90108590130702       -2.46685867236311       -0.13380992476830
O            7.13452496984588       -2.97357809163715       -0.07715924964348
C            8.20191906704933       -2.04566093672432        0.03496828714048
N            5.74109882772498       -1.15449979257527       -0.08119296877305
C            1.93312933701520        0.84690728988999        0.49514866636609
C            0.82720042544709        1.65097660410185        0.67876770567466
C            0.96029920107031        3.01875587502439        0.47909712837161
H           -7.61016603579035       -0.83006160379542       -1.23340470168956
H           -7.55916395670510        0.86440035226906       -1.72506401797745
H           -8.60420672096663        0.36220485692518       -0.39722740332076
H           -6.59972655781333       -0.24151314810708        0.95891715780025
H           -5.55028765072889        0.25620836542263       -0.37108008333222
H           -6.40800945587259        2.57955713626872       -0.18476508980531
H           -7.51787558412847        2.07349022781927        1.08321882664292
H           -5.70295774080630        3.10183208910848        2.20971011368774
H           -5.54212518273187        1.36818311346597        2.47428178955543
H           -3.82226031530836        1.34144709279240        0.57868113386552
H           -3.36731447230064        2.17295871907890        2.06316674521935
H           -4.38271581283388        3.50619833613668       -0.48201509439034
H           -3.97947406777446        4.35807521897415        1.00654690756852
H           -1.99935642947644        2.63866892470100       -0.55526842977133
H           -2.19093535864701        4.37695922847560       -0.79925707995664
H           -1.61793343906353        4.76661822864283        1.60814803819595
H           -1.32786075721179        3.03134526317453        1.80250516743847
H           -0.92333360129106        6.68904823089058        0.53012721813543
H            0.55152188226967        8.54618521321649       -0.11596772232311
H            2.89381820210358        8.15686084195426       -0.71633790656740
H            3.84066729709205        5.87376763447671       -0.68791964525197
H            4.25758245058566        3.16283677799065       -0.40235178413367
H            5.19461203399978        1.07518745562506       -0.03086961620347
H            3.08196130159247       -4.70652737969716       -0.41923973685117
H            0.99472637454994       -5.65162865645159       -0.17844900427440
H           -1.42026503958658       -5.56058632666448       -0.55807782456893
H            1.44542072846948       -1.55802912525146       -1.32159639586965
H           -0.20076012400713        0.42902430358714       -2.20766102975917
H           -2.12910915413050        1.77985348873244       -2.97653513112766
H           -4.38463923980810        0.83080473753127       -3.00919431530363
H           -4.80556094997154       -1.48417310944891       -2.29213944250600
H           -3.53042779987094       -5.01166747802734       -1.14936014653128
H           -4.55371192121791       -3.83635900407934       -1.98641264506147
H           -5.40668699447240       -4.26370111026049        0.25152204973475
H           -4.88418332003723       -2.58247268418587        0.12825653587815
H           -2.94772915378370       -4.63559684902959        1.20459181544080
H           -4.23628827744325       -4.06473226487361        2.25273836252463
H           -3.44303501572507       -1.83209976795190        2.24711851042282
H           -2.46229627203427       -2.07024604163244        0.80942645024224
H           -1.90070416215805       -3.26725282053743        3.54784136214669
H           -0.99857845925020       -3.64217511699225        2.07480375044870
H           -1.31621845372702       -0.85361615086482        3.25643060930572
H           -0.38172181460733       -1.26751274803180        1.81454802197555
H            0.98354809955538       -0.93338361619906        3.89910058950304
H            0.20375355735958       -2.35052806500799        4.60399703798044
H            1.15874453434425       -3.78316293868907        2.81558654634386
H            1.85068008701185       -2.36693460974408        2.02725759453812
H            2.44153542986955       -2.87455839126495        3.61063897667687
H            9.10778009412445       -2.64672547936715        0.06927731936228
H            8.10152616916557       -1.45033442858317        0.94510455777800
H            8.22042657317998       -1.37339244994249       -0.82563310902075
H            1.86090566759136       -0.21576020322470        0.64884149530502
H           -0.11274818185176        1.21208101779761        0.97267420535417

          :  Hamiltonian                  GFN2-xTB          :
         :: gradient norm              0.000026124837 Eh/a0 ::
         :: HOMO-LUMO gap              2.944027106104 eV    ::
         :: SCC energy              -148.364707973818 Eh    ::
         :: -> dispersion             -0.132892567332 Eh    ::
         :: -> Gsolv                  -0.060416699610 Eh    ::
         :: repulsion energy           2.313347114131 Eh    ::

    * Orbital Energies and Occupations

         #    Occupation            Energy/Eh            Energy/eV
      -------------------------------------------------------------
         1        2.0000           -0.7373221             -20.0636
       ...           ...                  ...                  ...
       123        2.0000           -0.4179815             -11.3739
       124        2.0000           -0.4168924             -11.3442
       125        2.0000           -0.4159890             -11.3196
       126        2.0000           -0.4133483             -11.2478
       127        2.0000           -0.4116234             -11.2008
       128        2.0000           -0.3957826             -10.7698
       129        2.0000           -0.3947826             -10.7426
       130        2.0000           -0.3879310             -10.5561
       131        2.0000           -0.3822945             -10.4028
       132        2.0000           -0.3794667             -10.3258
       133        2.0000           -0.3785968             -10.3021
       134        2.0000           -0.3583925              -9.7524
       135        2.0000           -0.3570485              -9.7158 (HOMO)
       136                         -0.2488575              -6.7718 (LUMO)
       137                         -0.2479327              -6.7466
       138                         -0.2475982              -6.7375
       139                         -0.2414161              -6.5693
       140                         -0.2182878              -5.9399
       141                         -0.2148926              -5.8475
       142                         -0.1927756              -5.2457
       143                         -0.1910049              -5.1975
       144                         -0.1869513              -5.0872
       145                         -0.1808830              -4.9221
       146                         -0.1163055              -3.1648
       ...                                ...                  ...
       261                          0.7436437              20.2356
      -------------------------------------------------------------
                  HL-Gap            0.1081910 Eh            2.9440 eV

     #   Z          covCN         q      C6AA      α(0)
     1   6 C        3.752    -0.101    22.485     6.762
     2   6 C        3.800    -0.054    21.540     6.608
     3   6 C        3.802    -0.060    21.648     6.624
     4   6 C        3.801    -0.059    21.641     6.623
     5   6 C        3.801    -0.060    21.659     6.626
     6   6 C        3.802    -0.060    21.655     6.625
     7   6 C        3.801    -0.064    21.731     6.637
     8   6 C        3.740    -0.005    20.750     6.499
     9   7 N        2.796    -0.042    22.046     6.974
    10   6 C        3.085     0.044    26.912     8.504
    11   6 C        2.909    -0.053    29.317     8.878
    12   6 C        2.923    -0.035    28.871     8.811
    13   6 C        2.919    -0.044    29.102     8.846
    14   6 C        2.912    -0.035    28.883     8.813
    15   6 C        3.070    -0.022    28.484     8.751
    16   6 C        3.068    -0.019    28.408     8.740
    17   6 C        2.918    -0.063    29.563     8.916
    18   6 C        2.904     0.060    26.646     8.464
    19   7 N        2.718    -0.179    24.881     7.408
    20   6 C        2.934     0.290    22.092     7.708
    21   7 N        1.842    -0.357    30.133     8.135
    22   6 C        2.938     0.294    22.034     7.698
    23   7 N        2.719    -0.181    24.909     7.413
    24   6 C        2.906     0.063    26.586     8.455
    25   6 C        2.928    -0.061    29.505     8.908
    26   6 C        2.909    -0.050    29.232     8.866
    27   6 C        3.080     0.044    26.929     8.507
    28   6 C        3.072    -0.018    28.377     8.734
    29   6 C        2.914    -0.054    29.336     8.882
    30   6 C        3.069    -0.021    28.465     8.748
    31   6 C        2.911    -0.035    28.860     8.809
    32   6 C        2.920    -0.044    29.089     8.845
    33   6 C        2.923    -0.034    28.843     8.807
    34   6 C        2.909    -0.053    29.307     8.877
    35   6 C        3.085     0.045    26.907     8.503
    36   7 N        2.794    -0.038    21.973     6.962
    37   6 C        3.739    -0.005    20.745     6.499
    38   6 C        3.800    -0.067    21.777     6.644
    39   6 C        3.801    -0.061    21.675     6.629
    40   6 C        3.802    -0.060    21.653     6.625
    41   6 C        3.802    -0.059    21.640     6.623
    42   6 C        3.802    -0.058    21.616     6.619
    43   6 C        3.800    -0.054    21.537     6.608
    44   6 C        3.751    -0.095    22.380     6.747
    45   7 N        1.853    -0.403    31.426     8.309
    46   6 C        2.905     0.355    20.991     7.512
    47   8 O        1.708    -0.274    18.547     5.815
    48   6 C        3.656     0.030    20.370     6.479
    49   7 N        1.851    -0.418    31.883     8.369
    50   6 C        2.924    -0.054    29.342     8.883
    51   6 C        2.910    -0.051    29.269     8.871
    52   6 C        3.084     0.040    27.013     8.520
    53   1 H        0.925     0.032     2.561     2.503
    54   1 H        0.925     0.032     2.562     2.503
    55   1 H        0.925     0.031     2.578     2.511
    56   1 H        0.924     0.027     2.623     2.533
    57   1 H        0.924     0.034     2.530     2.487
    58   1 H        0.924     0.033     2.551     2.498
    59   1 H        0.924     0.028     2.615     2.529
    60   1 H        0.924     0.030     2.585     2.514
    61   1 H        0.924     0.030     2.587     2.515
    62   1 H        0.924     0.036     2.504     2.475
    63   1 H        0.924     0.029     2.602     2.522
    64   1 H        0.924     0.041     2.434     2.440
    65   1 H        0.924     0.035     2.523     2.484
    66   1 H        0.924     0.044     2.390     2.418
    67   1 H        0.924     0.040     2.453     2.449
    68   1 H        0.924     0.056     2.250     2.346
    69   1 H        0.924     0.054     2.267     2.355
    70   1 H        0.926     0.035     2.513     2.479
    71   1 H        0.926     0.032     2.552     2.498
    72   1 H        0.926     0.028     2.612     2.527
    73   1 H        0.926     0.027     2.632     2.537
    74   1 H        0.926     0.026     2.643     2.542
    75   1 H        0.860     0.196     1.126     1.662
    76   1 H        0.860     0.198     1.117     1.656
    77   1 H        0.925     0.026     2.649     2.545
    78   1 H        0.926     0.040     2.448     2.446
    79   1 H        0.926     0.049     2.332     2.388
    80   1 H        0.926     0.023     2.688     2.564
    81   1 H        0.926     0.029     2.603     2.523
    82   1 H        0.926     0.035     2.513     2.479
    83   1 H        0.926     0.038     2.480     2.463
    84   1 H        0.924     0.055     2.259     2.350
    85   1 H        0.924     0.053     2.281     2.362
    86   1 H        0.924     0.047     2.359     2.402
    87   1 H        0.924     0.050     2.316     2.380
    88   1 H        0.924     0.037     2.493     2.469
    89   1 H        0.924     0.036     2.509     2.477
    90   1 H        0.924     0.031     2.574     2.509
    91   1 H        0.925     0.033     2.540     2.493
    92   1 H        0.924     0.030     2.580     2.512
    93   1 H        0.924     0.028     2.621     2.532
    94   1 H        0.924     0.032     2.557     2.501
    95   1 H        0.924     0.029     2.602     2.522
    96   1 H        0.924     0.028     2.616     2.529
    97   1 H        0.924     0.034     2.526     2.485
    98   1 H        0.925     0.033     2.551     2.498
    99   1 H        0.925     0.022     2.710     2.574
   100   1 H        0.925     0.022     2.696     2.568
   101   1 H        0.925     0.082     1.955     2.187
   102   1 H        0.924     0.060     2.202     2.321
   103   1 H        0.924     0.059     2.205     2.322
   104   1 H        0.926     0.054     2.276     2.359
   105   1 H        0.926     0.045     2.380     2.412

molecular dipole:
                 x           y           z       tot (Debye)
 q only:       -3.187       0.551       0.351
   full:       -2.611       0.379       0.361       6.769

 projected vibrational frequencies (cm⁻¹)
eigval :       -0.00    -0.00    -0.00     0.00     0.00     0.00
eigval :        8.27    14.31    15.97    20.08    27.47    31.35
eigval :       32.59    34.93    41.33    45.96    46.93    50.15
eigval :       56.81    59.25    66.76    70.59    76.58    86.78
eigval :       90.62    94.29    99.78   105.41   112.60   117.56
eigval :      120.33   124.52   136.71   142.98   146.17   155.63
eigval :      163.30   175.71   182.20   188.91   193.38   196.34
eigval :      213.76   219.85   222.38   231.08   233.83   243.28
eigval :      245.72   260.45   265.08   274.09   283.27   288.78
eigval :      295.64   301.24   317.61   328.86   344.36   349.36
eigval :      362.47   369.20   392.20   394.60   400.56   401.43
eigval :      425.89   428.55   430.29   451.86   462.91   464.08
eigval :      474.46   493.63   496.55   527.88   530.10   534.25
eigval :      535.87   554.45   558.35   567.75   573.99   575.27
eigval :      581.54   587.20   588.94   598.77   602.90   618.61
eigval :      639.14   658.56   670.20   672.41   676.46   707.10
eigval :      709.33   709.50   722.56   741.97   745.68   756.99
eigval :      759.44   764.25   767.67   769.02   778.72   781.64
eigval :      792.04   798.18   808.37   815.03   819.82   839.17
eigval :      840.93   854.49   858.63   861.02   870.98   874.85
eigval :      878.56   888.05   893.61   897.40   902.55   905.67
eigval :      912.03   912.75   914.96   919.83   921.90   928.47
eigval :      932.93   942.65   947.31   979.18   991.94   997.90
eigval :      999.85  1005.80  1018.42  1021.51  1024.81  1041.25
eigval :     1052.06  1053.70  1063.25  1067.57  1070.98  1071.46
eigval :     1082.98  1090.30  1094.11  1098.96  1106.96  1115.41
eigval :     1120.93  1122.91  1124.71  1134.10  1134.54  1139.76
eigval :     1142.16  1145.37  1148.00  1151.11  1155.10  1161.68
eigval :     1165.19  1172.33  1175.66  1179.89  1182.53  1185.63
eigval :     1188.17  1200.14  1210.23  1215.60  1226.32  1228.36
eigval :     1230.40  1238.27  1240.87  1249.87  1254.90  1260.79
eigval :     1260.96  1266.85  1270.62  1275.70  1279.58  1286.71
eigval :     1288.00  1290.81  1296.09  1299.19  1300.97  1310.32
eigval :     1316.84  1321.02  1321.58  1327.86  1330.79  1333.13
eigval :     1342.55  1351.47  1353.47  1355.11  1355.60  1360.91
eigval :     1363.91  1365.63  1368.78  1370.58  1373.01  1375.14
eigval :     1378.44  1379.85  1385.61  1396.39  1412.71  1418.07
eigval :     1422.69  1424.54  1437.25  1439.66  1443.15  1459.18
eigval :     1461.02  1461.47  1463.97  1472.02  1475.12  1483.90
eigval :     1484.70  1486.28  1487.32  1488.38  1488.58  1490.63
eigval :     1491.99  1492.33  1492.79  1494.30  1494.48  1497.91
eigval :     1500.68  1505.39  1506.19  1507.96  1510.24  1529.54
eigval :     1559.93  1568.87  1569.83  1579.88  1584.62  1585.62
eigval :     1599.92  1600.26  1617.14  1617.80  2947.02  2952.21
eigval :     2954.20  2955.70  2957.58  2960.41  2960.68  2961.61
eigval :     2962.34  2962.49  2966.14  2967.82  2970.44  2973.79
eigval :     2974.34  2974.36  2976.44  2977.42  2980.11  2980.44
eigval :     2984.62  2985.83  2987.12  2987.61  2991.44  2993.27
eigval :     2995.66  2998.00  3001.55  3016.52  3020.80  3024.15
eigval :     3024.67  3026.82  3029.60  3032.39  3041.30  3066.02
eigval :     3069.29  3071.67  3072.10  3076.38  3079.00  3084.07
eigval :     3087.77  3088.41  3092.59  3098.39  3100.84  3136.61
eigval :     3137.84  3436.00  3446.06

   temp. (K)  partition function   enthalpy   heat capacity  entropy
                                   cal/mol     cal/K/mol   cal/K/mol   J/K/mol
 298.15  VIB  0.249E+25            29841.502    176.675    190.869
         ROT  0.969E+08              888.752      2.981     39.524
         INT  0.241E+33            30730.255    179.656    230.393
         TR   0.178E+29             1481.254      4.968     45.480
         TOT                       32211.5086   184.6239   275.8736  1154.2552

       T/K    H(0)-H(T)+PV         H(T)/Eh          T*S/Eh         G(T)/Eh
   ------------------------------------------------------------------------
    298.15    0.513323E-01    0.931831E+00    0.131076E+00    0.800754E+00
   ------------------------------------------------------------------------

         :::::::::::::::::::::::::::::::::::::::::::::::::::::
         ::                  THERMODYNAMIC                  ::
         :::::::::::::::::::::::::::::::::::::::::::::::::::::
         :: total free energy        -145.250606452382 Eh   ::
         ::.................................................::
         :: total energy             -146.051360860484 Eh   ::
         :: zero point energy           0.880498559890 Eh   ::
         :: G(RRHO) w/o ZPVE           -0.079744151788 Eh   ::
         :: G(RRHO) contrib.            0.800754408102 Eh   ::
         :::::::::::::::::::::::::::::::::::::::::::::::::::::

           -------------------------------------------------
          | TOTAL ENERGY             -146.051360860484 Eh   |
          | TOTAL ENTHALPY           -145.119529994186 Eh   |
          | TOTAL FREE ENERGY        -145.250606452382 Eh   |
          | GRADIENT NORM               0.000026125461 Eh/α |
          | HOMO-LUMO GAP               2.944027152808 eV   |
           -------------------------------------------------

 * finished run on 2025/08/23 at 19:24:24.842
