   * xtb version 6.7.1 (edcfbbe) compiled by 'albert@albert-system' on 2024-07-22

   ID    Z sym.   atoms
    1    6 C      1-8, 10-18, 20, 22, 24-35, 37-44, 46, 48, 50-52
    2    7 N      9, 19, 21, 23, 36, 45, 49
    3    8 O      47
    4    1 H      53-105

          program call               : xtb data2507/toluene/2CM/2CM.xyz --gfn 2 --gbsa toluene --ohess vtight --parallel 40 --molden --ceasefiles --namespace data2507/toluene/2CM/2CM_toluene_S0_preOpt
      * Solvation model:               GBSA
        Solvent                        toluene
        Solvent mass                       9.2140E+01 g/mol
          :  Hamiltonian                  GFN2-xTB          :
 * total energy  :  -146.0245323 Eh     change       -0.5351723E-08 Eh
 * total energy  :  -146.0399362 Eh     change       -0.1540384E-01 Eh
 * total energy  :  -146.0443353 Eh     change       -0.4399098E-02 Eh
 * total energy  :  -146.0454735 Eh     change       -0.1138236E-02 Eh
 * total energy  :  -146.0463552 Eh     change       -0.8817176E-03 Eh
 * total energy  :  -146.0466276 Eh     change       -0.2723572E-03 Eh
 * total energy  :  -146.0467531 Eh     change       -0.1255374E-03 Eh
 * total energy  :  -146.0468458 Eh     change       -0.9273090E-04 Eh
 * total energy  :  -146.0469151 Eh     change       -0.6929714E-04 Eh
 * total energy  :  -146.0469837 Eh     change       -0.6856478E-04 Eh
 * total energy  :  -146.0475691 Eh     change       -0.1899719E-05 Eh
 * total energy  :  -146.0475711 Eh     change       -0.1975370E-05 Eh
 * total energy  :  -146.0475730 Eh     change       -0.1911011E-05 Eh
 * total energy  :  -146.0475747 Eh     change       -0.1782459E-05 Eh
 * total energy  :  -146.0475764 Eh     change       -0.1675333E-05 Eh
 * total energy  :  -146.0475781 Eh     change       -0.1696614E-05 Eh
 * total energy  :  -146.0475799 Eh     change       -0.1818638E-05 Eh
 * total energy  :  -146.0475821 Eh     change       -0.2144200E-05 Eh
 * total energy  :  -146.0475821 Eh     change       -0.5026038E-08 Eh
   *** GEOMETRY OPTIMIZATION CONVERGED AFTER 94 ITERATIONS ***

 final structure:
================
105
 xtb: 6.7.1 (edcfbbe)
C           10.95489382123575       -3.20920469953611       -5.02387943313746
C           10.07028153809209       -2.86034686122156       -3.83209574242180
C           10.86208794476965       -2.18539728517232       -2.71371885295871
C            9.98373655453092       -1.82271170589831       -1.51747414062829
C           10.79108185215572       -1.14796641080913       -0.40975092391447
C            9.97647860382335       -0.85236011228422        0.85051909772236
C            8.89644338154861        0.20601836116773        0.63562792961247
C            8.24848916418355        0.62055810742398        1.96187902589802
N            7.23619861140589        1.62592499462142        1.77289208997518
C            7.47100912311401        2.97367192301160        1.64663727191995
C            8.66458623080094        3.67905199891514        1.73951065119747
C            8.62067718698622        5.05066338094085        1.58331354236617
C            7.42166822144610        5.71871818579295        1.33791768354548
C            6.23123515778751        5.02643112062047        1.24331771793096
C            6.24923691902277        3.64543323960990        1.39663992847061
C            5.23481778269148        2.63162592147023        1.36008295328219
C            3.86289449452762        2.66419711755869        1.16096906537396
C            3.14914892303090        1.47248573359251        1.19485055738864
N            1.76813359131128        1.54901955889791        0.99056552085483
C            0.78899652684351        0.62618928321723        1.07720170914991
N           -0.43426812414151        1.11160386598735        0.84349046707266
C           -1.42418890324116        0.22348326144755        0.94162795483514
N           -2.64723258678055        0.73380230283722        0.69287166106567
C           -3.92027955366542        0.15597137576758        0.69742174125330
C           -4.98328337617507        0.96790316109922        0.27317336199275
C           -6.28157570613464        0.50513821247325        0.24286867646655
C           -6.52596369731835       -0.79975277423213        0.65132445773570
C           -5.45840364870512       -1.62569396396242        1.08143195798481
C           -4.15537253088048       -1.14809529719409        1.10444213684180
C           -6.04410242243983       -2.88947882377391        1.42549168883392
C           -5.52507048016027       -4.08709482482354        1.90216845732697
C           -6.38965070414666       -5.13833646675195        2.13127619661215
C           -7.75664386369340       -5.00707149853750        1.88936699146816
C           -8.29647406476054       -3.82756742940107        1.41523564603133
C           -7.43439326396573       -2.76249850702973        1.18459226257141
N           -7.70767476509050       -1.49281593597306        0.73562769741450
C           -8.99650394082407       -1.01178864001970        0.31050638215476
C           -9.25622058540679       -1.32770232448007       -1.16829867971702
C          -10.62137968692253       -0.82350111607526       -1.65726166143171
C          -10.55901754280189        0.48316463629211       -2.45168625925914
C          -10.10543065791490        1.69006492357970       -1.63337741043819
C          -10.15000034679176        2.97563168305231       -2.45867253947862
C           -9.81633334099412        4.23229990281313       -1.65205896981371
C           -8.37584037864412        4.26930238058152       -1.15142420743144
N           -1.26321637843975       -1.06690834027854        1.25387388510364
C           -0.00468304763867       -1.42887322162383        1.44667084364629
O            0.26295676651009       -2.69865284423977        1.74695875975860
C           -0.84366016246928       -3.58055773827332        1.85127543073561
N            1.06087959393480       -0.64615902441518        1.37313599998775
C            3.80868926806490        0.25779389169073        1.41661385579915
C            5.17431326302974        0.21085616525634        1.61118283313699
C            5.89445420060483        1.39841427955350        1.58852407568485
H           11.75139072395178       -3.88680375062983       -4.72256285035262
H           11.40904982183742       -2.31083060773069       -5.43743481830818
H           10.37222109059165       -3.69057234862751       -5.80645147197249
H            9.26774457514062       -2.19434985812461       -4.15905160252962
H            9.60604776044804       -3.77141370286689       -3.44635155937964
H           11.66155216833632       -2.85487450010677       -2.38605299895789
H           11.33120530267158       -1.27840980113853       -3.10348237071417
H            9.18616631085046       -1.15723418855720       -1.85283517906540
H            9.51776832504780       -2.72965857260734       -1.12410417379833
H           11.21563521117771       -0.21604654710115       -0.79064991303405
H           11.62375682047741       -1.80169574919022       -0.13774824145338
H            9.51461970072591       -1.77538150423912        1.20795802140484
H           10.65971458671957       -0.50216028054381        1.62851753105882
H            9.33600859037173        1.08865158841184        0.16591482842624
H            8.11965767701938       -0.17471001597495       -0.02912121173073
H            7.78975979301289       -0.24758322080342        2.44084348978533
H            9.00977054371476        1.01812630286050        2.63952782025324
H            9.60220656970689        3.17845918043700        1.92614409896514
H            9.53621388213103        5.62026962349073        1.65055195393938
H            7.42939522671302        6.79247714175314        1.22089080465403
H            5.30218669593711        5.54331053001601        1.05335994953692
H            3.35554652692012        3.60243160161170        0.98587832804788
H            1.40702329176895        2.46822581611970        0.78605692968160
H           -2.60720029733093        1.71094275740446        0.44580054969641
H           -4.77375024363576        1.98164540654206       -0.03910288787130
H           -7.07556946993779        1.15197471777634       -0.09397378434014
H           -3.33607339097649       -1.76533662925520        1.42682954042021
H           -4.46604131397387       -4.18728577751778        2.08742979600089
H           -6.00649110370557       -6.07780918929242        2.50162704107804
H           -8.40753806641600       -5.84878275056637        2.07642328118873
H           -9.35655616459614       -3.74597909915887        1.22990032790638
H           -9.04029189411257        0.06439206947750        0.48674708164168
H           -9.76245698941322       -1.48698545254635        0.92922396813366
H           -9.19530367574315       -2.41103701400052       -1.29216570482826
H           -8.45886832607353       -0.88869784663623       -1.77096943971948
H          -11.28933054645690       -0.69325798599771       -0.80318081362430
H          -11.06685727155456       -1.58162087274718       -2.30440720669400
H          -11.55522684925427        0.68696538815200       -2.85326372392210
H           -9.88532915458443        0.35251979120261       -3.30222563825100
H          -10.75309790045645        1.80046730651174       -0.75993692880929
H           -9.08608967417251        1.52597649666955       -1.28581926274394
H          -11.15305281648022        3.09015993651203       -2.87826464819300
H           -9.45213970727522        2.89050621656706       -3.29566966846250
H           -9.98919687472442        5.10492314448568       -2.28728534729245
H          -10.49686165015488        4.30594782481811       -0.80015520194085
H           -8.20018517223057        3.49901254967046       -0.40483423424742
H           -7.68109275996702        4.11929107734255       -1.97578794432023
H           -8.16104825328641        5.23297195228889       -0.69388145098924
H           -0.41811450757801       -4.55848719679905        2.06544088954610
H           -1.40813942890496       -3.60447597318203        0.91641675194020
H           -1.50730437025775       -3.26860434428169        2.66116032859170
H            3.22125255702896       -0.64423290088353        1.43614434538345
H            5.65679215949590       -0.74021486225918        1.77460827471444

          :  Hamiltonian                  GFN2-xTB          :
         :: gradient norm              0.000058043928 Eh/a0 ::
         :: HOMO-LUMO gap              2.929896890757 eV    ::
         :: SCC energy              -148.359909416768 Eh    ::
         :: -> dispersion             -0.115241704906 Eh    ::
         :: -> Gsolv                  -0.067846913586 Eh    ::
         :: repulsion energy           2.312327330546 Eh    ::

    * Orbital Energies and Occupations

         #    Occupation            Energy/Eh            Energy/eV
      -------------------------------------------------------------
         1        2.0000           -0.7388033             -20.1039
       ...           ...                  ...                  ...
       123        2.0000           -0.4197933             -11.4232
       124        2.0000           -0.4194756             -11.4145
       125        2.0000           -0.4188653             -11.3979
       126        2.0000           -0.4167792             -11.3411
       127        2.0000           -0.4162875             -11.3278
       128        2.0000           -0.3961401             -10.7795
       129        2.0000           -0.3953565             -10.7582
       130        2.0000           -0.3892913             -10.5932
       131        2.0000           -0.3816675             -10.3857
       132        2.0000           -0.3798994             -10.3376
       133        2.0000           -0.3782756             -10.2934
       134        2.0000           -0.3591113              -9.7719
       135        2.0000           -0.3564315              -9.6990 (HOMO)
       136                         -0.2487598              -6.7691 (LUMO)
       137                         -0.2482756              -6.7559
       138                         -0.2468901              -6.7182
       139                         -0.2442698              -6.6469
       140                         -0.2185704              -5.9476
       141                         -0.2143537              -5.8329
       142                         -0.1926038              -5.2410
       143                         -0.1908265              -5.1927
       144                         -0.1867944              -5.0829
       145                         -0.1789025              -4.8682
       146                         -0.1166273              -3.1736
       ...                                ...                  ...
       261                          0.7437736              20.2391
      -------------------------------------------------------------
                  HL-Gap            0.1076717 Eh            2.9299 eV

     #   Z          covCN         q      C6AA      α(0)
     1   6 C        3.752    -0.102    22.514     6.766
     2   6 C        3.800    -0.053    21.533     6.607
     3   6 C        3.803    -0.060    21.647     6.624
     4   6 C        3.802    -0.060    21.656     6.625
     5   6 C        3.802    -0.059    21.639     6.623
     6   6 C        3.802    -0.060    21.655     6.625
     7   6 C        3.802    -0.063    21.717     6.635
     8   6 C        3.741    -0.005    20.751     6.499
     9   7 N        2.796    -0.042    22.055     6.975
    10   6 C        3.085     0.044    26.917     8.505
    11   6 C        2.909    -0.053    29.314     8.878
    12   6 C        2.923    -0.035    28.874     8.812
    13   6 C        2.919    -0.044    29.100     8.846
    14   6 C        2.912    -0.036    28.884     8.813
    15   6 C        3.068    -0.022    28.482     8.751
    16   6 C        3.069    -0.019    28.410     8.740
    17   6 C        2.919    -0.064    29.591     8.920
    18   6 C        2.904     0.061    26.632     8.462
    19   7 N        2.719    -0.179    24.864     7.406
    20   6 C        2.927     0.290    22.094     7.708
    21   7 N        1.873    -0.404    31.481     8.317
    22   6 C        2.925     0.288    22.131     7.715
    23   7 N        2.719    -0.177    24.830     7.401
    24   6 C        2.904     0.060    26.653     8.465
    25   6 C        2.929    -0.062    29.551     8.915
    26   6 C        2.909    -0.052    29.293     8.875
    27   6 C        3.085     0.039    27.038     8.524
    28   6 C        3.069    -0.019    28.420     8.741
    29   6 C        2.913    -0.058    29.444     8.898
    30   6 C        3.071    -0.022    28.470     8.749
    31   6 C        2.912    -0.036    28.892     8.814
    32   6 C        2.919    -0.044    29.098     8.846
    33   6 C        2.923    -0.035    28.872     8.812
    34   6 C        2.909    -0.053    29.320     8.879
    35   6 C        3.085     0.044    26.918     8.505
    36   7 N        2.796    -0.043    22.070     6.977
    37   6 C        3.740    -0.006    20.759     6.501
    38   6 C        3.800    -0.064    21.729     6.637
    39   6 C        3.800    -0.062    21.687     6.630
    40   6 C        3.802    -0.060    21.652     6.625
    41   6 C        3.801    -0.059    21.634     6.622
    42   6 C        3.802    -0.059    21.633     6.622
    43   6 C        3.799    -0.054    21.537     6.608
    44   6 C        3.751    -0.101    22.496     6.764
    45   7 N        1.836    -0.391    31.097     8.264
    46   6 C        2.916     0.353    21.031     7.520
    47   8 O        1.708    -0.267    18.424     5.795
    48   6 C        3.656     0.031    20.338     6.474
    49   7 N        1.838    -0.376    30.667     8.207
    50   6 C        2.922    -0.058    29.442     8.898
    51   6 C        2.910    -0.052    29.300     8.876
    52   6 C        3.080     0.039    27.041     8.525
    53   1 H        0.925     0.034     2.534     2.489
    54   1 H        0.925     0.033     2.537     2.491
    55   1 H        0.925     0.033     2.548     2.496
    56   1 H        0.924     0.028     2.620     2.531
    57   1 H        0.924     0.028     2.612     2.527
    58   1 H        0.924     0.030     2.585     2.514
    59   1 H        0.924     0.030     2.585     2.514
    60   1 H        0.924     0.031     2.576     2.510
    61   1 H        0.924     0.030     2.585     2.514
    62   1 H        0.924     0.034     2.536     2.491
    63   1 H        0.924     0.034     2.528     2.487
    64   1 H        0.924     0.036     2.505     2.475
    65   1 H        0.924     0.036     2.500     2.473
    66   1 H        0.924     0.044     2.402     2.424
    67   1 H        0.924     0.041     2.438     2.442
    68   1 H        0.924     0.054     2.272     2.357
    69   1 H        0.924     0.055     2.260     2.351
    70   1 H        0.926     0.036     2.508     2.476
    71   1 H        0.926     0.033     2.548     2.496
    72   1 H        0.926     0.029     2.604     2.524
    73   1 H        0.926     0.027     2.626     2.534
    74   1 H        0.926     0.026     2.640     2.541
    75   1 H        0.860     0.197     1.123     1.660
    76   1 H        0.860     0.195     1.130     1.665
    77   1 H        0.925     0.028     2.611     2.527
    78   1 H        0.926     0.043     2.414     2.430
    79   1 H        0.926     0.055     2.257     2.349
    80   1 H        0.926     0.027     2.629     2.536
    81   1 H        0.926     0.029     2.599     2.521
    82   1 H        0.926     0.033     2.545     2.495
    83   1 H        0.926     0.035     2.513     2.479
    84   1 H        0.924     0.058     2.217     2.329
    85   1 H        0.924     0.054     2.266     2.354
    86   1 H        0.924     0.039     2.459     2.452
    87   1 H        0.924     0.044     2.395     2.420
    88   1 H        0.924     0.039     2.462     2.454
    89   1 H        0.924     0.038     2.471     2.458
    90   1 H        0.924     0.032     2.563     2.504
    91   1 H        0.924     0.032     2.563     2.504
    92   1 H        0.924     0.030     2.580     2.512
    93   1 H        0.925     0.034     2.524     2.485
    94   1 H        0.924     0.028     2.618     2.530
    95   1 H        0.924     0.029     2.595     2.519
    96   1 H        0.924     0.028     2.613     2.528
    97   1 H        0.924     0.030     2.584     2.514
    98   1 H        0.925     0.033     2.548     2.496
    99   1 H        0.925     0.033     2.543     2.494
   100   1 H        0.925     0.031     2.574     2.509
   101   1 H        0.925     0.083     1.950     2.184
   102   1 H        0.924     0.062     2.178     2.308
   103   1 H        0.924     0.059     2.206     2.322
   104   1 H        0.926     0.061     2.189     2.314
   105   1 H        0.926     0.041     2.433     2.439

molecular dipole:
                 x           y           z       tot (Debye)
 q only:       -0.838      -0.075      -0.390
   full:       -0.991       0.181      -0.446       2.800

 projected vibrational frequencies (cm⁻¹)
eigval :       -0.00    -0.00     0.00     0.00     0.00     0.00
eigval :       -2.76     4.71     7.81    13.90    16.03    17.28
eigval :       20.22    23.32    30.94    38.64    40.67    49.23
eigval :       52.61    56.02    60.45    62.05    80.18    86.13
eigval :       95.10    99.38   101.91   111.53   112.42   115.32
eigval :      120.01   122.39   128.16   132.83   133.63   141.99
eigval :      142.95   153.35   158.89   172.77   179.44   192.41
eigval :      203.66   213.87   217.59   223.17   236.17   240.65
eigval :      245.02   255.71   263.72   265.92   282.00   283.84
eigval :      295.43   301.82   314.58   316.40   327.19   339.36
eigval :      353.64   361.66   391.84   392.52   401.15   408.51
eigval :      421.81   425.63   430.03   445.54   455.11   457.59
eigval :      473.22   475.04   505.92   525.61   530.80   533.16
eigval :      534.14   555.38   558.75   576.74   577.59   579.12
eigval :      591.61   595.60   597.72   605.29   608.61   611.66
eigval :      639.38   662.83   671.74   672.13   678.18   696.53
eigval :      706.90   709.46   742.05   745.09   754.74   759.55
eigval :      764.39   768.60   769.25   770.11   770.42   777.70
eigval :      778.48   796.17   804.07   808.03   811.00   831.63
eigval :      838.41   850.84   859.54   861.64   862.28   862.89
eigval :      871.85   874.94   883.85   892.21   898.41   899.72
eigval :      906.57   917.35   919.06   919.74   926.82   937.84
eigval :      939.03   961.00   970.85   981.79   994.71  1004.22
eigval :     1009.81  1018.15  1021.77  1024.46  1025.29  1042.13
eigval :     1044.58  1054.15  1058.13  1065.89  1069.97  1070.98
eigval :     1076.39  1082.04  1091.23  1092.32  1111.14  1121.99
eigval :     1125.70  1126.72  1130.29  1132.46  1134.91  1135.95
eigval :     1139.85  1142.93  1148.48  1152.74  1158.88  1166.79
eigval :     1170.48  1177.04  1178.07  1180.13  1181.99  1188.48
eigval :     1193.34  1203.39  1212.06  1216.91  1221.18  1227.62
eigval :     1230.66  1242.45  1251.43  1253.89  1255.32  1256.14
eigval :     1261.71  1271.45  1274.96  1279.03  1280.99  1284.70
eigval :     1285.50  1286.82  1287.01  1290.81  1292.67  1295.63
eigval :     1296.59  1322.05  1323.69  1328.17  1337.57  1342.80
eigval :     1345.28  1351.29  1352.26  1355.24  1356.34  1358.60
eigval :     1360.13  1365.10  1366.69  1367.10  1368.40  1376.79
eigval :     1378.84  1379.54  1385.45  1397.79  1412.15  1412.71
eigval :     1421.95  1424.43  1438.92  1440.58  1442.19  1458.43
eigval :     1465.13  1466.66  1470.04  1476.15  1483.51  1484.79
eigval :     1485.33  1487.03  1488.66  1489.87  1490.62  1491.55
eigval :     1492.87  1493.19  1493.63  1495.94  1497.46  1497.80
eigval :     1501.36  1501.45  1504.34  1504.90  1509.48  1548.04
eigval :     1555.07  1565.98  1569.22  1570.72  1584.75  1585.20
eigval :     1600.18  1600.56  1616.59  1617.92  2951.56  2952.98
eigval :     2953.47  2955.50  2956.07  2957.65  2958.90  2959.25
eigval :     2960.98  2961.58  2964.60  2966.64  2968.29  2970.52
eigval :     2971.15  2971.82  2973.95  2974.04  2975.02  2975.22
eigval :     2977.59  2977.80  2977.87  2984.65  2986.46  2986.69
eigval :     2989.09  2995.90  2999.07  3004.34  3022.58  3022.78
eigval :     3025.47  3026.55  3029.06  3032.57  3041.03  3065.87
eigval :     3066.51  3071.18  3071.28  3076.03  3076.87  3084.95
eigval :     3084.99  3090.46  3092.49  3093.10  3100.13  3133.46
eigval :     3148.03  3429.94  3430.62

   temp. (K)  partition function   enthalpy   heat capacity  entropy
                                   cal/mol     cal/K/mol   cal/K/mol   J/K/mol
 298.15  VIB  0.192E+28            30236.263    175.751    197.735
         ROT  0.242E+09              888.752      2.981     41.348
         INT  0.466E+36            31125.015    178.732    239.083
         TR   0.178E+29             1481.254      4.968     45.480
         TOT                       32606.2692   183.6999   284.5630  1190.6115

       T/K    H(0)-H(T)+PV         H(T)/Eh          T*S/Eh         G(T)/Eh
   ------------------------------------------------------------------------
    298.15    0.519614E-01    0.931435E+00    0.135205E+00    0.796230E+00
   ------------------------------------------------------------------------

         :::::::::::::::::::::::::::::::::::::::::::::::::::::
         ::                  THERMODYNAMIC                  ::
         :::::::::::::::::::::::::::::::::::::::::::::::::::::
         :: total free energy        -145.251352317055 Eh   ::
         ::.................................................::
         :: total energy             -146.047582081177 Eh   ::
         :: zero point energy           0.879473414984 Eh   ::
         :: G(RRHO) w/o ZPVE           -0.083243650862 Eh   ::
         :: G(RRHO) contrib.            0.796229764122 Eh   ::
         :::::::::::::::::::::::::::::::::::::::::::::::::::::

           -------------------------------------------------
          | TOTAL ENERGY             -146.047582081177 Eh   |
          | TOTAL ENTHALPY           -145.116147268770 Eh   |
          | TOTAL FREE ENERGY        -145.251352317055 Eh   |
          | GRADIENT NORM               0.000058042731 Eh/α |
          | HOMO-LUMO GAP               2.929896749633 eV   |
           -------------------------------------------------

 * finished run on 2025/08/23 at 16:30:25.169
