   * xtb version 6.7.1 (edcfbbe) compiled by 'albert@albert-system' on 2024-07-22

   ID    Z sym.   atoms
    1    8 O      1, 3, 15, 34
    2   16 S      2
    3    6 C      4-7, 9-14, 16-26, 28-33, 35-43
    4    7 N      8, 27
    5    1 H      44-65

          program call               : xtb data2507/toluene/DBTO-PTZ/DBTO-PTZ_toluene_S0_crest.xyz --gfn 2 --gbsa toluene --ohess vtight --parallel 40 --molden --ceasefiles --namespace data2507/toluene/DBTO-PTZ/DBTO-PTZ_toluene_S0_finalOpt
      * Solvation model:               GBSA
        Solvent                        toluene
        Solvent mass                       9.2140E+01 g/mol
          :  Hamiltonian                  GFN2-xTB          :
 * total energy  :  -113.7518413 Eh     change       -0.3085034E-09 Eh
 * total energy  :  -113.7519307 Eh     change       -0.8936389E-04 Eh
 * total energy  :  -113.7519719 Eh     change       -0.4119302E-04 Eh
 * total energy  :  -113.7519775 Eh     change       -0.5588286E-05 Eh
 * total energy  :  -113.7519806 Eh     change       -0.3104173E-05 Eh
 * total energy  :  -113.7519817 Eh     change       -0.1122705E-05 Eh
 * total energy  :  -113.7519823 Eh     change       -0.6396165E-06 Eh
 * total energy  :  -113.7519832 Eh     change       -0.8781565E-06 Eh
 * total energy  :  -113.7519848 Eh     change       -0.1618082E-05 Eh
 * total energy  :  -113.7519878 Eh     change       -0.2939265E-05 Eh
 * total energy  :  -113.7519969 Eh     change       -0.9356043E-06 Eh
 * total energy  :  -113.7519975 Eh     change       -0.5645139E-06 Eh
 * total energy  :  -113.7519977 Eh     change       -0.2401075E-06 Eh
 * total energy  :  -113.7519980 Eh     change       -0.2115273E-06 Eh
 * total energy  :  -113.7519982 Eh     change       -0.2173845E-06 Eh
 * total energy  :  -113.7519985 Eh     change       -0.3185269E-06 Eh
 * total energy  :  -113.7519990 Eh     change       -0.4665735E-06 Eh
 * total energy  :  -113.7519994 Eh     change       -0.4139194E-06 Eh
 * total energy  :  -113.7519994 Eh     change       -0.1931393E-07 Eh
   *** GEOMETRY OPTIMIZATION CONVERGED AFTER 22 ITERATIONS ***

 final structure:
================
65
 xtb: 6.7.1 (edcfbbe)
O            0.01082643876144       -4.35244257310354        2.58798752010863
S            0.01268756241838       -3.99112269245691        1.18790267763685
O            0.01933831275334       -5.08949446448048        0.24761760374032
C           -1.29256671444765       -2.82070065395458        0.81672140135928
C           -2.65469933759993       -3.00316728243861        0.88681150859359
C           -3.48483492955407       -1.93845962181488        0.57070806725167
C           -2.94322796081730       -0.71237493396241        0.17834747558204
N           -3.79196088510467        0.36402130352474       -0.13316092422340
C           -3.72481029377291        1.56161813773344        0.59296232887934
C           -2.84541303794480        1.74513129142713        1.65363264585314
C           -2.80683815189932        2.94471258211111        2.34845064661301
C           -3.65574905144031        3.97821090982348        2.00628726238150
C           -4.56606431136915        3.79863855130037        0.97575191090008
C           -4.60950164452503        2.60262794360234        0.28157554697046
O           -5.56793025512190        2.49212177416302       -0.69716007019161
C           -5.61688002133209        1.31586377543174       -1.40563234052288
C           -6.56686263913027        1.23047267011218       -2.40773609019295
C           -6.65350128692363        0.09229224411545       -3.19525414266798
C           -5.76900783083683       -0.94702473245817       -2.98568397412467
C           -4.81794035225376       -0.86703878955407       -1.97966193944219
C           -4.74313417475653        0.24980173805753       -1.15594929369263
C           -1.55933402870490       -0.54708419074317        0.10018232915120
C           -0.72690190924071       -1.60639077212033        0.42980022994768
C            0.73636297643281       -1.60083784721329        0.43192484721350
C            1.56162074202618       -0.53590539876189        0.10224787526797
C            2.94651712655522       -0.69011316942565        0.18560607279117
N            3.78858859795571        0.39131939466637       -0.12594654578243
C            4.74877732716852        0.27757936667815       -1.14048656435791
C            4.83162000420917       -0.83977507676943       -1.96278776344453
C            5.79174457978655       -0.91991015083917       -2.96012602188209
C            6.67730355515274        0.11993448832277       -3.16262227851126
C            6.58244252976334        1.25888395394166       -2.37720420528254
C            5.62337509323910        1.34436009921352       -1.38374915316817
O            5.56666836932088        2.52122365144645       -0.67701637485195
C            4.59584609472158        2.63356838784056        0.28921943198790
C            4.54107327725745        3.83273388410245        0.97714629000861
C            3.61788725208909        4.01498937578554        1.99564442885444
C            2.76775620428109        2.98078674413011        2.33260378142326
C            2.81787002480063        1.77796183645920        1.64415450451219
C            3.71008761694706        1.59166087404847        0.59472051848432
C            3.49612212222824       -1.91123169281491        0.58266905136872
C            2.67332573261245       -2.98195461042187        0.89731064363954
C            1.31001759182261       -2.81025531693459        0.82228851133115
H           -3.05933015374558       -3.95379949526071        1.19597342282188
H           -4.55637342936209       -2.04915436214298        0.63463858263932
H           -2.19148752041951        0.94131507888969        1.95173811114815
H           -2.10865703041880        3.05838019218783        3.16322478246037
H           -3.62739349071502        4.91528008508497        2.53945947253190
H           -5.26119457559419        4.57481021383717        0.69662501092759
H           -7.22624397656984        2.07074261703707       -2.55825606661766
H           -7.39988122777520        0.03301434948626       -3.97155146038119
H           -5.80716897291904       -1.83008564090407       -3.60476115590113
H           -4.12336764851918       -1.68029611063159       -1.84094892222058
H           -1.15403969889989        0.39988811230137       -0.21940048423662
H            1.14980092515061        0.40659776475772       -0.22214677168351
H            4.13648863176679       -1.65348026574625       -1.82950950513236
H            5.83599563273820       -1.80336378170341       -3.57823124648642
H            7.43080506706247        0.06049132650116       -3.93199691161199
H            7.24236074488764        2.09963039585053       -2.52262636999881
H            5.23780484280804        4.60918033949020        0.70283483812644
H            3.58063075844162        4.95456781178181        2.52381616540582
H            2.05957787720344        3.09642993402796        3.13843249536236
H            2.16284139683423        0.97386696550371        1.93890501457595
H            4.56825779400646       -2.01348552642133        0.65063925015497
H            3.08434802431300       -3.92899463009814        1.20903021680278

          :  Hamiltonian                  GFN2-xTB          :
         :: gradient norm              0.000084062297 Eh/a0 ::
         :: HOMO-LUMO gap              1.548151336744 eV    ::
         :: SCC energy              -115.592580380140 Eh    ::
         :: -> dispersion             -0.094499842091 Eh    ::
         :: -> Gsolv                  -0.052074284450 Eh    ::
         :: repulsion energy           1.840580993272 Eh    ::

    * Orbital Energies and Occupations

         #    Occupation            Energy/Eh            Energy/eV
      -------------------------------------------------------------
         1        2.0000           -0.7833530             -21.3161
       ...           ...                  ...                  ...
        91        2.0000           -0.4338325             -11.8052
        92        2.0000           -0.4309364             -11.7264
        93        2.0000           -0.4291375             -11.6774
        94        2.0000           -0.4198996             -11.4261
        95        2.0000           -0.4198696             -11.4252
        96        2.0000           -0.4193966             -11.4124
        97        2.0000           -0.4185923             -11.3905
        98        2.0000           -0.4171225             -11.3505
        99        2.0000           -0.4142897             -11.2734
       100        2.0000           -0.3948928             -10.7456
       101        2.0000           -0.3948758             -10.7451
       102        2.0000           -0.3500918              -9.5265
       103        2.0000           -0.3500407              -9.5251 (HOMO)
       104                         -0.2931473              -7.9769 (LUMO)
       105                         -0.2689235              -7.3178
       106                         -0.2612946              -7.1102
       107                         -0.2427976              -6.6069
       108                         -0.2427696              -6.6061
       109                         -0.2343598              -6.3773
       110                         -0.2340550              -6.3690
       111                         -0.2290102              -6.2317
       112                         -0.2199997              -5.9865
       113                         -0.2175392              -5.9195
       114                         -0.2012111              -5.4752
       ...                                ...                  ...
       199                          1.1780507              32.0564
      -------------------------------------------------------------
                  HL-Gap            0.0568934 Eh            1.5481 eV

     #   Z          covCN         q      C6AA      α(0)
     1   8 O        0.860    -0.571    25.413     6.759
     2  16 S        3.942     0.963   107.730    17.469
     3   8 O        0.860    -0.571    25.411     6.759
     4   6 C        2.989    -0.082    30.051     8.992
     5   6 C        2.924    -0.016    28.407     8.740
     6   6 C        2.925    -0.036    28.896     8.815
     7   6 C        2.918     0.073    26.365     8.420
     8   7 N        2.751    -0.062    22.441     7.036
     9   6 C        2.920     0.039    27.131     8.542
    10   6 C        2.924    -0.061    29.517     8.910
    11   6 C        2.919    -0.038    28.941     8.822
    12   6 C        2.919    -0.039    28.967     8.826
    13   6 C        2.920    -0.056    29.401     8.892
    14   6 C        2.883     0.125    25.267     8.241
    15   8 O        1.709    -0.266    18.416     5.794
    16   6 C        2.883     0.124    25.268     8.241
    17   6 C        2.920    -0.057    29.407     8.893
    18   6 C        2.919    -0.039    28.968     8.826
    19   6 C        2.919    -0.038    28.942     8.822
    20   6 C        2.924    -0.060    29.495     8.906
    21   6 C        2.920     0.039    27.129     8.541
    22   6 C        2.922    -0.040    28.983     8.828
    23   6 C        3.114     0.007    27.702     8.622
    24   6 C        3.114     0.007    27.703     8.622
    25   6 C        2.922    -0.040    28.985     8.829
    26   6 C        2.918     0.073    26.365     8.420
    27   7 N        2.751    -0.062    22.439     7.035
    28   6 C        2.920     0.039    27.130     8.542
    29   6 C        2.924    -0.060    29.493     8.906
    30   6 C        2.919    -0.038    28.942     8.822
    31   6 C        2.919    -0.039    28.967     8.826
    32   6 C        2.920    -0.057    29.407     8.893
    33   6 C        2.883     0.124    25.267     8.241
    34   8 O        1.709    -0.266    18.415     5.794
    35   6 C        2.883     0.125    25.267     8.241
    36   6 C        2.920    -0.056    29.401     8.892
    37   6 C        2.919    -0.039    28.966     8.826
    38   6 C        2.919    -0.038    28.941     8.822
    39   6 C        2.924    -0.061    29.518     8.910
    40   6 C        2.920     0.039    27.132     8.542
    41   6 C        2.925    -0.036    28.897     8.816
    42   6 C        2.924    -0.016    28.408     8.741
    43   6 C        2.989    -0.082    30.052     8.992
    44   1 H        0.926     0.061     2.191     2.314
    45   1 H        0.926     0.071     2.069     2.250
    46   1 H        0.926     0.043     2.414     2.429
    47   1 H        0.926     0.045     2.381     2.413
    48   1 H        0.926     0.045     2.380     2.412
    49   1 H        0.926     0.051     2.309     2.376
    50   1 H        0.926     0.051     2.307     2.375
    51   1 H        0.926     0.045     2.386     2.416
    52   1 H        0.926     0.044     2.400     2.423
    53   1 H        0.926     0.041     2.434     2.440
    54   1 H        0.926     0.076     2.024     2.225
    55   1 H        0.926     0.076     2.023     2.224
    56   1 H        0.926     0.041     2.434     2.440
    57   1 H        0.926     0.044     2.400     2.422
    58   1 H        0.926     0.045     2.386     2.415
    59   1 H        0.926     0.051     2.307     2.375
    60   1 H        0.926     0.051     2.309     2.376
    61   1 H        0.926     0.045     2.379     2.412
    62   1 H        0.926     0.045     2.380     2.413
    63   1 H        0.926     0.043     2.411     2.428
    64   1 H        0.926     0.071     2.071     2.250
    65   1 H        0.926     0.061     2.191     2.315

molecular dipole:
                 x           y           z       tot (Debye)
 q only:       -0.007       2.340      -0.715
   full:       -0.006       1.988      -0.623       5.295

 projected vibrational frequencies (cm⁻¹)
eigval :       -0.00    -0.00    -0.00    -0.00    -0.00    -0.00
eigval :       11.03    12.28    16.43    27.96    33.05    35.34
eigval :       40.37    51.33    85.31    91.45    99.80   100.89
eigval :      115.35   125.71   143.17   161.61   173.74   177.48
eigval :      215.39   228.08   235.34   247.63   248.68   255.78
eigval :      265.80   268.48   283.38   301.54   347.01   354.75
eigval :      367.75   384.12   387.04   395.14   398.16   408.47
eigval :      422.42   424.28   429.18   429.87   434.25   442.20
eigval :      450.06   451.85   504.87   508.50   509.03   510.05
eigval :      518.02   519.42   521.56   524.55   532.25   566.90
eigval :      579.18   596.26   597.17   603.79   609.06   650.00
eigval :      655.48   657.09   659.94   660.23   662.09   663.37
eigval :      685.29   697.87   700.84   724.79   762.46   778.72
eigval :      779.28   779.45   780.98   803.09   821.80   833.02
eigval :      833.59   854.38   854.47   863.81   865.12   869.78
eigval :      869.87   888.82   893.83   897.70   897.97   901.72
eigval :      904.68   914.82   915.16   915.53   915.81   918.96
eigval :      919.44   921.82   924.95   925.31   990.04  1010.14
eigval :     1023.10  1088.85  1089.02  1089.14  1090.61  1091.67
eigval :     1095.21  1106.29  1106.59  1114.62  1120.11  1151.00
eigval :     1152.82  1162.50  1168.66  1171.94  1172.78  1183.51
eigval :     1184.20  1193.52  1197.63  1198.83  1199.82  1211.92
eigval :     1218.78  1222.57  1242.06  1242.25  1249.90  1260.10
eigval :     1260.46  1299.19  1301.89  1302.64  1306.90  1309.60
eigval :     1322.40  1328.38  1342.12  1348.67  1350.21  1387.65
eigval :     1416.43  1421.04  1421.29  1437.87  1441.72  1447.55
eigval :     1450.18  1477.85  1478.57  1498.67  1499.33  1557.96
eigval :     1560.35  1564.77  1566.64  1568.09  1574.59  1578.50
eigval :     1578.84  1587.59  1587.63  1600.20  1600.27  3088.89
eigval :     3089.00  3089.98  3090.25  3097.27  3097.29  3098.08
eigval :     3098.17  3098.34  3098.46  3104.36  3105.39  3105.49
eigval :     3106.69  3106.85  3107.79  3108.14  3109.64  3110.16
eigval :     3110.18  3111.39  3111.54

   temp. (K)  partition function   enthalpy   heat capacity  entropy
                                   cal/mol     cal/K/mol   cal/K/mol   J/K/mol
 298.15  VIB  0.445E+15            19199.454    123.388    117.404
         ROT  0.642E+08              888.752      2.981     38.706
         INT  0.286E+23            20088.207    126.368    156.109
         TR   0.135E+29             1481.254      4.968     44.930
         TOT                       21569.4606   131.3366   201.0395   841.1494

       T/K    H(0)-H(T)+PV         H(T)/Eh          T*S/Eh         G(T)/Eh
   ------------------------------------------------------------------------
    298.15    0.343731E-01    0.508283E+00    0.955204E-01    0.412763E+00
   ------------------------------------------------------------------------

         :::::::::::::::::::::::::::::::::::::::::::::::::::::
         ::                  THERMODYNAMIC                  ::
         :::::::::::::::::::::::::::::::::::::::::::::::::::::
         :: total free energy        -113.339236758401 Eh   ::
         ::.................................................::
         :: total energy             -113.751999386972 Eh   ::
         :: zero point energy           0.473909878959 Eh   ::
         :: G(RRHO) w/o ZPVE           -0.061147250388 Eh   ::
         :: G(RRHO) contrib.            0.412762628571 Eh   ::
         :::::::::::::::::::::::::::::::::::::::::::::::::::::

           -------------------------------------------------
          | TOTAL ENERGY             -113.751999386972 Eh   |
          | TOTAL ENTHALPY           -113.243716384648 Eh   |
          | TOTAL FREE ENERGY        -113.339236758401 Eh   |
          | GRADIENT NORM               0.000084059090 Eh/α |
          | HOMO-LUMO GAP               1.548148470380 eV   |
           -------------------------------------------------

 * finished run on 2025/08/24 at 07:23:18.832
