   * xtb version 6.7.1 (edcfbbe) compiled by 'albert@albert-system' on 2024-07-22

   ID    Z sym.   atoms
    1    8 O      1, 3, 15, 34
    2   16 S      2
    3    6 C      4-7, 9-14, 16-26, 28-33, 35-43
    4    7 N      8, 27
    5    1 H      44-65

          program call               : xtb data2507/toluene/DBTO-PTZ/DBTO-PTZ.xyz --gfn 2 --gbsa toluene --ohess vtight --parallel 40 --molden --ceasefiles --namespace data2507/toluene/DBTO-PTZ/DBTO-PTZ_toluene_S0_preOpt
      * Solvation model:               GBSA
        Solvent                        toluene
        Solvent mass                       9.2140E+01 g/mol
          :  Hamiltonian                  GFN2-xTB          :
 * total energy  :  -113.7303252 Eh     change       -0.3247166E-08 Eh
 * total energy  :  -113.7416339 Eh     change       -0.1130868E-01 Eh
 * total energy  :  -113.7462929 Eh     change       -0.4659058E-02 Eh
 * total energy  :  -113.7476779 Eh     change       -0.1384923E-02 Eh
 * total energy  :  -113.7484837 Eh     change       -0.8058782E-03 Eh
 * total energy  :  -113.7487304 Eh     change       -0.2466248E-03 Eh
 * total energy  :  -113.7488073 Eh     change       -0.7689483E-04 Eh
 * total energy  :  -113.7488387 Eh     change       -0.3141761E-04 Eh
 * total energy  :  -113.7488553 Eh     change       -0.1659357E-04 Eh
 * total energy  :  -113.7488610 Eh     change       -0.5731324E-05 Eh
 * total energy  :  -113.7517662 Eh     change       -0.1309501E-05 Eh
 * total energy  :  -113.7517671 Eh     change       -0.8993747E-06 Eh
 * total energy  :  -113.7517676 Eh     change       -0.5133528E-06 Eh
 * total energy  :  -113.7517681 Eh     change       -0.4954322E-06 Eh
 * total energy  :  -113.7517685 Eh     change       -0.4610991E-06 Eh
 * total energy  :  -113.7517689 Eh     change       -0.3227398E-06 Eh
 * total energy  :  -113.7517691 Eh     change       -0.2632753E-06 Eh
 * total energy  :  -113.7517693 Eh     change       -0.2138337E-06 Eh
 * total energy  :  -113.7517693 Eh     change       -0.6158672E-08 Eh
   *** GEOMETRY OPTIMIZATION CONVERGED AFTER 122 ITERATIONS ***

 final structure:
================
65
 xtb: 6.7.1 (edcfbbe)
O            0.10088140602481       -1.18491735382491       -5.24272456630691
S            0.00219290547477        0.03285703744323       -4.46969891270556
O           -0.09599534859991        1.26074688310561       -5.22656735701746
C           -1.29442295618497       -0.08237651929362       -3.23867983752109
C           -2.65176651613254       -0.19567558524806       -3.43383994378759
C           -3.47787356113442       -0.27104199111253       -2.32292230392548
C           -2.93540380851015       -0.24503509778279       -1.03647874968204
N           -3.78244028290483       -0.32536622817496        0.08338070038073
C           -4.62248808234751       -1.43248149522759        0.26289062037589
C           -4.57335270110846       -2.54506171732199       -0.56852416685264
C           -5.41438035652922       -3.62762506146158       -0.35904379164631
C           -6.30853058192094       -3.62446924400901        0.69297325319120
C           -6.34449133371680       -2.53798228020510        1.55408310869642
C           -5.50605602092024       -1.45673516193801        1.34964254591626
O           -5.57729015253388       -0.43552439049004        2.26644641985548
C           -4.74021082980806        0.63911836923332        2.08408284976395
C           -4.83046072044509        1.66135081322962        3.01186218617842
C           -4.04682899881782        2.79796432417673        2.88055277206188
C           -3.18990103474845        2.91016298906922        1.80404821156647
C           -3.09524622083630        1.88719029053264        0.87231912023945
C           -3.84787945840407        0.72664312152269        1.00731912260583
C           -1.55551619205908       -0.13823054745182       -0.85513199407051
C           -0.72788327317700       -0.04736288094933       -1.96497053261834
C            0.73077929160739        0.07577764819802       -1.96366170419304
C            1.55776233349911        0.15018318526905       -0.85218118972704
C            2.93759416177511        0.26211895916543       -1.03102636515849
N            3.78357235968472        0.32448292677690        0.09074359215915
C            4.62188465640838        1.42936255447954        0.29073091565878
C            4.57373429140025        2.55544901664161       -0.52234982133379
C            5.41296350855644        3.63532102757241       -0.29269379569987
C            6.30415337308604        3.61577716770920        0.76166503394184
C            6.33884735969957        2.51537925255559        1.60498497679739
C            5.50236882039039        1.43665162629506        1.38025475165778
O            5.57235011223546        0.40039430623236        2.28012607120945
C            4.73746249466006       -0.67226249010245        2.07742658135448
C            4.82679541220216       -1.70988050846155        2.98806732670061
C            4.04547760531787       -2.84539246091378        2.83526336767731
C            3.19184114789927       -2.94079546073545        1.75452663446150
C            3.09805699614497       -1.90233222104842        0.84001924154140
C            3.84824024229057       -0.74294558019666        0.99689177605748
C            3.48061608586714        0.31043165060346       -2.31655858060431
C            2.65515836732674        0.25077616384537       -3.42893445505772
C            1.29798804278025        0.13131937482260       -3.23637440868253
H           -3.05644752296566       -0.21372856380259       -4.43326252894067
H           -4.54734190092637       -0.34522450522531       -2.44633178944556
H           -3.86813538379778       -2.57191734580081       -1.38405927846749
H           -5.35804086068879       -4.47438648746534       -1.02561495948870
H           -6.96928631503104       -4.46081389001957        0.85767333396428
H           -7.01531279679463       -2.51084513338786        2.39832120809062
H           -5.52794259782746        1.54908101176195        3.82698334609801
H           -4.12253819455470        3.58861917759928        3.61017846846972
H           -2.58950934975971        3.79732688484202        1.67407866346827
H           -2.43781259683478        2.00332948264205        0.02551809663126
H           -1.14940602657584       -0.13541899576522        0.14405051301644
H            1.15127136762178        0.13060484810474        0.14666241247864
H            3.87067876331147        2.59482798352322       -1.33923558435598
H            5.35762249887406        4.49299074594465       -0.94527856607985
H            6.96357992065797        4.44994537256786        0.94197117540704
H            7.00721197594447        2.47523276601470        2.45065357151145
H            5.52182243972080       -1.61028526829243        3.80691916327096
H            4.12042895873286       -3.64817941887819        3.55159475840744
H            2.59343377496166       -3.82667688181283        1.60770701769741
H            2.44317252010602       -2.00515643325332       -0.01047236041055
H            4.54995608808387        0.38912115176743       -2.43826432454522
H            3.06028669424461        0.28559208640606       -4.42773104025526

          :  Hamiltonian                  GFN2-xTB          :
         :: gradient norm              0.000055023201 Eh/a0 ::
         :: HOMO-LUMO gap              1.525039025054 eV    ::
         :: SCC energy              -115.592328662627 Eh    ::
         :: -> dispersion             -0.094001550697 Eh    ::
         :: -> Gsolv                  -0.052097770744 Eh    ::
         :: repulsion energy           1.840559318213 Eh    ::

    * Orbital Energies and Occupations

         #    Occupation            Energy/Eh            Energy/eV
      -------------------------------------------------------------
         1        2.0000           -0.7837047             -21.3257
       ...           ...                  ...                  ...
        91        2.0000           -0.4340167             -11.8102
        92        2.0000           -0.4306300             -11.7180
        93        2.0000           -0.4299728             -11.7002
        94        2.0000           -0.4198677             -11.4252
        95        2.0000           -0.4198518             -11.4248
        96        2.0000           -0.4196337             -11.4188
        97        2.0000           -0.4187569             -11.3950
        98        2.0000           -0.4159675             -11.3191
        99        2.0000           -0.4156276             -11.3098
       100        2.0000           -0.3949957             -10.7484
       101        2.0000           -0.3948124             -10.7434
       102        2.0000           -0.3502532              -9.5309
       103        2.0000           -0.3496750              -9.5151 (HOMO)
       104                         -0.2936308              -7.9901 (LUMO)
       105                         -0.2693289              -7.3288
       106                         -0.2616722              -7.1205
       107                         -0.2427227              -6.6048
       108                         -0.2427051              -6.6043
       109                         -0.2343362              -6.3766
       110                         -0.2340229              -6.3681
       111                         -0.2293221              -6.2402
       112                         -0.2199892              -5.9862
       113                         -0.2176301              -5.9220
       114                         -0.2012006              -5.4749
       ...                                ...                  ...
       199                          1.1784408              32.0670
      -------------------------------------------------------------
                  HL-Gap            0.0560442 Eh            1.5250 eV

     #   Z          covCN         q      C6AA      α(0)
     1   8 O        0.860    -0.570    25.403     6.758
     2  16 S        3.941     0.963   107.713    17.468
     3   8 O        0.860    -0.570    25.402     6.757
     4   6 C        2.989    -0.082    30.045     8.991
     5   6 C        2.924    -0.016    28.405     8.740
     6   6 C        2.925    -0.036    28.887     8.814
     7   6 C        2.919     0.073    26.360     8.419
     8   7 N        2.751    -0.063    22.453     7.038
     9   6 C        2.920     0.039    27.127     8.541
    10   6 C        2.924    -0.060    29.495     8.906
    11   6 C        2.919    -0.038    28.942     8.822
    12   6 C        2.919    -0.039    28.969     8.826
    13   6 C        2.920    -0.057    29.406     8.893
    14   6 C        2.883     0.124    25.268     8.241
    15   8 O        1.708    -0.267    18.417     5.794
    16   6 C        2.883     0.124    25.268     8.241
    17   6 C        2.920    -0.056    29.403     8.892
    18   6 C        2.919    -0.039    28.971     8.826
    19   6 C        2.919    -0.038    28.945     8.823
    20   6 C        2.923    -0.061    29.520     8.910
    21   6 C        2.920     0.039    27.125     8.541
    22   6 C        2.922    -0.039    28.970     8.826
    23   6 C        3.113     0.007    27.698     8.621
    24   6 C        3.113     0.007    27.698     8.621
    25   6 C        2.922    -0.039    28.970     8.826
    26   6 C        2.919     0.073    26.360     8.419
    27   7 N        2.751    -0.063    22.452     7.037
    28   6 C        2.920     0.039    27.127     8.541
    29   6 C        2.924    -0.060    29.495     8.906
    30   6 C        2.919    -0.038    28.942     8.822
    31   6 C        2.919    -0.039    28.970     8.826
    32   6 C        2.920    -0.057    29.406     8.892
    33   6 C        2.883     0.124    25.269     8.241
    34   8 O        1.708    -0.267    18.417     5.794
    35   6 C        2.883     0.124    25.267     8.241
    36   6 C        2.920    -0.056    29.403     8.892
    37   6 C        2.919    -0.039    28.971     8.826
    38   6 C        2.919    -0.038    28.945     8.823
    39   6 C        2.923    -0.061    29.520     8.910
    40   6 C        2.920     0.039    27.126     8.541
    41   6 C        2.925    -0.036    28.887     8.814
    42   6 C        2.924    -0.016    28.405     8.740
    43   6 C        2.989    -0.082    30.045     8.991
    44   1 H        0.926     0.061     2.187     2.312
    45   1 H        0.926     0.072     2.069     2.249
    46   1 H        0.926     0.041     2.437     2.441
    47   1 H        0.926     0.044     2.399     2.422
    48   1 H        0.926     0.045     2.386     2.415
    49   1 H        0.926     0.051     2.307     2.375
    50   1 H        0.926     0.051     2.309     2.376
    51   1 H        0.926     0.045     2.386     2.415
    52   1 H        0.926     0.044     2.392     2.419
    53   1 H        0.926     0.042     2.421     2.433
    54   1 H        0.926     0.076     2.021     2.223
    55   1 H        0.926     0.076     2.021     2.223
    56   1 H        0.926     0.041     2.436     2.441
    57   1 H        0.926     0.044     2.399     2.422
    58   1 H        0.926     0.045     2.386     2.416
    59   1 H        0.926     0.051     2.307     2.375
    60   1 H        0.926     0.051     2.308     2.376
    61   1 H        0.926     0.045     2.385     2.415
    62   1 H        0.926     0.044     2.392     2.419
    63   1 H        0.926     0.042     2.422     2.434
    64   1 H        0.926     0.072     2.068     2.249
    65   1 H        0.926     0.061     2.187     2.312

molecular dipole:
                 x           y           z       tot (Debye)
 q only:        0.000      -0.015       2.388
   full:        0.000      -0.012       2.024       5.146

 projected vibrational frequencies (cm⁻¹)
eigval :       -0.00    -0.00    -0.00     0.00     0.00     0.00
eigval :       14.78    16.13    20.89    32.62    34.17    35.47
eigval :       43.46    52.81    85.54    90.72   100.22   101.50
eigval :      117.80   123.42   147.67   155.27   171.06   176.62
eigval :      215.33   226.09   236.23   249.29   250.80   258.61
eigval :      266.09   271.51   283.20   301.19   346.53   358.42
eigval :      361.75   385.17   387.63   396.18   402.25   405.67
eigval :      421.98   427.35   428.06   432.21   432.59   444.48
eigval :      446.22   451.51   502.85   509.93   510.46   514.86
eigval :      517.93   518.99   521.88   525.70   528.78   566.45
eigval :      581.37   594.52   596.47   603.99   609.41   651.40
eigval :      656.17   658.11   661.77   661.80   663.13   663.87
eigval :      685.76   697.65   702.71   725.12   762.36   778.25
eigval :      779.05   779.92   781.54   803.08   821.62   828.35
eigval :      829.83   854.25   854.38   867.48   868.27   870.50
eigval :      871.00   884.21   890.84   898.50   899.01   904.37
eigval :      905.32   913.23   914.40   915.54   915.58   916.77
eigval :      918.17   919.52   922.49   923.20   989.28  1010.07
eigval :     1023.00  1088.70  1090.07  1090.42  1091.06  1092.08
eigval :     1094.54  1106.61  1106.64  1114.25  1120.32  1150.97
eigval :     1152.96  1162.58  1168.98  1172.47  1172.80  1183.00
eigval :     1184.70  1194.14  1197.18  1199.17  1199.63  1211.89
eigval :     1217.63  1222.33  1242.61  1243.57  1249.85  1260.28
eigval :     1261.40  1299.28  1302.02  1302.78  1306.77  1308.87
eigval :     1322.83  1328.65  1341.95  1349.11  1350.36  1387.35
eigval :     1416.31  1420.75  1421.05  1437.66  1441.36  1447.08
eigval :     1449.87  1478.49  1478.83  1499.06  1499.58  1557.67
eigval :     1560.03  1564.85  1566.74  1568.05  1574.62  1578.51
eigval :     1578.85  1587.72  1587.79  1600.29  1600.42  3088.78
eigval :     3089.13  3089.63  3089.68  3097.50  3097.51  3098.00
eigval :     3098.22  3098.43  3098.64  3103.92  3105.17  3105.65
eigval :     3106.43  3106.67  3108.04  3108.30  3108.96  3110.19
eigval :     3110.27  3111.24  3111.26

   temp. (K)  partition function   enthalpy   heat capacity  entropy
                                   cal/mol     cal/K/mol   cal/K/mol   J/K/mol
 298.15  VIB  0.155E+15            19162.750    123.575    116.558
         ROT  0.322E+08              888.752      2.981     37.338
         INT  0.501E+22            20051.502    126.556    153.896
         TR   0.135E+29             1481.254      4.968     44.930
         TOT                       21532.7560   131.5238   198.8261   831.8886

       T/K    H(0)-H(T)+PV         H(T)/Eh          T*S/Eh         G(T)/Eh
   ------------------------------------------------------------------------
    298.15    0.343146E-01    0.508290E+00    0.944687E-01    0.413821E+00
   ------------------------------------------------------------------------

         :::::::::::::::::::::::::::::::::::::::::::::::::::::
         ::                  THERMODYNAMIC                  ::
         :::::::::::::::::::::::::::::::::::::::::::::::::::::
         :: total free energy        -113.337948533955 Eh   ::
         ::.................................................::
         :: total energy             -113.751769346636 Eh   ::
         :: zero point energy           0.473974894442 Eh   ::
         :: G(RRHO) w/o ZPVE           -0.060154081762 Eh   ::
         :: G(RRHO) contrib.            0.413820812681 Eh   ::
         :::::::::::::::::::::::::::::::::::::::::::::::::::::

           -------------------------------------------------
          | TOTAL ENERGY             -113.751769346636 Eh   |
          | TOTAL ENTHALPY           -113.243479821247 Eh   |
          | TOTAL FREE ENERGY        -113.337948533955 Eh   |
          | GRADIENT NORM               0.000055012346 Eh/α |
          | HOMO-LUMO GAP               1.525039854031 eV   |
           -------------------------------------------------

 * finished run on 2025/08/24 at 07:20:25.879
