   * xtb version 6.7.1 (edcfbbe) compiled by 'albert@albert-system' on 2024-07-22

   ID    Z sym.   atoms
    1    8 O      1, 3, 15, 34
    2   16 S      2
    3    6 C      4-7, 9-14, 16-26, 28-33, 35-43
    4    7 N      8, 27
    5    1 H      44-65

          program call               : xtb data2507/toluene/DBTO-PTZ/DBTO-PTZ_toluene_S0_finalOpt.xtbopt.xyz --gfn 2 --uhf 2 --gbsa toluene --ohess vtight --parallel 40 --molden --ceasefiles --namespace data2507/toluene/DBTO-PTZ/DBTO-PTZ_toluene_T1_preOpt
      * Solvation model:               GBSA
        Solvent                        toluene
        Solvent mass                       9.2140E+01 g/mol
          :  Hamiltonian                  GFN2-xTB          :
 * total energy  :  -113.6725239 Eh     change        0.1032276E-09 Eh
 * total energy  :  -113.6778014 Eh     change       -0.5277475E-02 Eh
 * total energy  :  -113.6795905 Eh     change       -0.1789109E-02 Eh
 * total energy  :  -113.6797488 Eh     change       -0.1582790E-03 Eh
 * total energy  :  -113.6799302 Eh     change       -0.1814038E-03 Eh
 * total energy  :  -113.6799782 Eh     change       -0.4798963E-04 Eh
 * total energy  :  -113.6800310 Eh     change       -0.5277829E-04 Eh
 * total energy  :  -113.6800558 Eh     change       -0.2482540E-04 Eh
 * total energy  :  -113.6800790 Eh     change       -0.2315912E-04 Eh
 * total energy  :  -113.6801034 Eh     change       -0.2439337E-04 Eh
 * total energy  :  -113.6806840 Eh     change       -0.5084105E-06 Eh
 * total energy  :  -113.6806845 Eh     change       -0.5049049E-06 Eh
 * total energy  :  -113.6806850 Eh     change       -0.4939453E-06 Eh
 * total energy  :  -113.6806854 Eh     change       -0.4909200E-06 Eh
 * total energy  :  -113.6806859 Eh     change       -0.4797109E-06 Eh
 * total energy  :  -113.6806864 Eh     change       -0.4760555E-06 Eh
 * total energy  :  -113.6806869 Eh     change       -0.4663546E-06 Eh
 * total energy  :  -113.6806873 Eh     change       -0.4625540E-06 Eh
 * total energy  :  -113.6806873 Eh     change       -0.4499640E-08 Eh
   *** GEOMETRY OPTIMIZATION CONVERGED AFTER 221 ITERATIONS ***

 final structure:
================
65
 xtb: 6.7.1 (edcfbbe)
O            0.01046580563511       -4.17884563291352        2.80438505088997
S            0.01138201784462       -3.85318487309773        1.38160747814674
O            0.01638592824299       -5.02279039063048        0.50839541194290
C           -1.28582346966888       -2.71986400539283        0.96273290535843
C           -2.63950344034964       -2.90392021091254        1.05147635250014
C           -3.49599480220058       -1.87584010451541        0.67812535410259
C           -2.94073272438250       -0.66170367481773        0.21448229867430
N           -3.82847238422050        0.38971242503923       -0.14785554432551
C           -3.91341904578225        1.53597379637104        0.62344707564431
C           -3.13600451226028        1.72613680564822        1.76666839387499
C           -3.24706673294617        2.88834576288829        2.50560087939110
C           -4.13775191977509        3.88310748271172        2.12772781019539
C           -4.93349932418458        3.70569947066190        1.00950793782719
C           -4.83077100602935        2.54230818552418        0.26238520291210
O           -5.65711840257105        2.41545592268445       -0.81662896863649
C           -5.56100024156315        1.27999217565843       -1.56761427825536
C           -6.39557087025952        1.16993537412862       -2.66918393318345
C           -6.32876368504896        0.04898966431260       -3.47837992613011
C           -5.41558669566378       -0.95591661287704       -3.19282398450683
C           -4.57895169880291       -0.85532642933065       -2.09740188247150
C           -4.64685147991577        0.25531893346080       -1.25527893171199
C           -1.58347313302982       -0.46832749959627        0.12018088203931
C           -0.70066834749974       -1.50013247241165        0.50082395655556
C            0.71058125952935       -1.49545814037853        0.50301723529374
C            1.58772659977317       -0.45767430536442        0.12550927903456
C            2.94592175777880       -0.64218022465941        0.22384881734741
N            3.82789717192203        0.41522499863070       -0.13521258786947
C            4.64970946888230        0.28712170574431       -1.24081487558248
C            4.59042171486058       -0.82289691191618       -2.08439613562894
C            5.43007941611736       -0.91708491408679       -3.17807170716791
C            6.33786849717415        0.09363032290784       -3.46027044709242
C            6.39619040721497        1.21390819696557       -2.64948837915817
C            5.55850629627981        1.31759260007595       -1.54966753220760
O            5.64621608520360        2.45254768340749       -0.79687015209937
C            4.81651398419207        2.57309703068166        0.28030389415308
C            4.91063304608203        3.73602635136031        1.02926903847472
C            4.11112891181130        3.90725444726587        2.14577302697541
C            3.22524098582063        2.90686424596062        2.52003552609786
C            3.12273010517884        1.74505512958168        1.77924066729699
C            3.90415690919146        1.56095014156746        0.63776513618135
C            3.50778594873396       -1.85286494920035        0.68853715461012
C            2.65695001317135       -2.88663463040243        1.05908278201466
C            1.30235665043109       -2.71140113148339        0.96645379152007
H           -3.02926181825854       -3.84394962016569        1.41413572630631
H           -4.56538329605823       -1.98603776654639        0.75096745569347
H           -2.45149262348699        0.95017273792795        2.06953417938219
H           -2.63529350573531        3.01491749457450        3.38491740194444
H           -4.21982487906911        4.79005883444727        2.70497519725400
H           -5.64565130514607        4.45283844554442        0.69767641566686
H           -7.08488319800530        1.97368253293882       -2.87245393923661
H           -6.98124056614076       -0.03379356051252       -4.33284140703844
H           -5.35016159373682       -1.82517284459159       -3.82827138135549
H           -3.86487354804478       -1.63393417751914       -1.88253739179802
H           -1.19569745871135        0.47050156782403       -0.24501735458649
H            1.19490493968782        0.47880581084756       -0.24032331240808
H            3.88064763186252       -1.60609648484081       -1.87194913029706
H            5.37132218786696       -1.78593388890592       -3.81473067834487
H            6.99280490416359        0.01583088205467       -4.31331444868265
H            7.08124503027805        2.02192808187697       -2.85019019678705
H            5.61918208896921        4.48774037773484        0.72023527164462
H            4.18651114909879        4.81388219420258        2.72444773342143
H            2.61055012556197        3.02867278166501        3.39798968156274
H            2.44190194087196        0.96475560884366        2.07928065132447
H            4.57766041144738       -1.95610501657883        0.76438776741477
H            3.05176774441321       -3.82420978127904        1.42260824869841

          :  Hamiltonian                  GFN2-xTB          :
         :: gradient norm              0.000056664757 Eh/a0 ::
         :: HOMO-LUMO gap              0.283360637486 eV    ::
         :: SCC energy              -115.506269274881 Eh    ::
         :: -> dispersion             -0.094361844897 Eh    ::
         :: -> Gsolv                  -0.064744703623 Eh    ::
         :: repulsion energy           1.825581939674 Eh    ::

    * Orbital Energies and Occupations

         #    Occupation            Energy/Eh            Energy/eV
      -------------------------------------------------------------
         1        2.0000           -0.7553760             -20.5548
       ...           ...                  ...                  ...
        92        2.0000           -0.4305932             -11.7170
        93        2.0000           -0.4252999             -11.5730
        94        2.0000           -0.4208459             -11.4518
        95        2.0000           -0.4202178             -11.4347
        96        2.0000           -0.4130596             -11.2399
        97        2.0000           -0.4129867             -11.2379
        98        2.0000           -0.4073305             -11.0840
        99        2.0000           -0.4069501             -11.0737
       100        2.0000           -0.3863825             -10.5140
       101        2.0000           -0.3782296             -10.2922
       102        1.5048           -0.3600005              -9.7961
       103        1.4952           -0.3599642              -9.7951
       104        0.9941           -0.2693784              -7.3302 (HOMO)
       105        0.0029           -0.2589649              -7.0468 (LUMO)
       106        0.0029           -0.2589545              -7.0465
       107                         -0.2462218              -6.7000
       108                         -0.2461607              -6.6984
       109                         -0.2396348              -6.5208
       110                         -0.2358985              -6.4191
       111                         -0.2304800              -6.2717
       112                         -0.2270270              -6.1777
       113                         -0.2133907              -5.8067
       114                         -0.2127828              -5.7901
       115                         -0.1933506              -5.2613
       ...                                ...                  ...
       199                          1.1540347              31.4029
      -------------------------------------------------------------
                  HL-Gap            0.0104135 Eh            0.2834 eV

     #   Z          covCN         q      C6AA      α(0)
     1   8 O        0.860    -0.604    26.217     6.865
     2  16 S        3.948     0.890   109.853    17.640
     3   8 O        0.860    -0.604    26.226     6.866
     4   6 C        2.986    -0.101    30.536     9.065
     5   6 C        2.924    -0.023    28.588     8.768
     6   6 C        2.920    -0.072    29.795     8.951
     7   6 C        2.919     0.044    27.005     8.522
     8   7 N        2.754    -0.017    21.577     6.899
     9   6 C        2.925     0.047    26.956     8.514
    10   6 C        2.920    -0.050    29.230     8.866
    11   6 C        2.918    -0.029    28.717     8.788
    12   6 C        2.919    -0.029    28.716     8.787
    13   6 C        2.916    -0.051    29.267     8.871
    14   6 C        2.885     0.131    25.131     8.219
    15   8 O        1.709    -0.223    17.701     5.680
    16   6 C        2.885     0.131    25.131     8.219
    17   6 C        2.916    -0.052    29.280     8.873
    18   6 C        2.919    -0.028    28.710     8.787
    19   6 C        2.918    -0.029    28.721     8.788
    20   6 C        2.920    -0.049    29.212     8.863
    21   6 C        2.926     0.047    26.938     8.512
    22   6 C        2.915    -0.052    29.296     8.876
    23   6 C        3.110    -0.029    28.560     8.755
    24   6 C        3.110    -0.029    28.560     8.755
    25   6 C        2.915    -0.052    29.296     8.876
    26   6 C        2.919     0.044    27.005     8.522
    27   7 N        2.754    -0.017    21.577     6.899
    28   6 C        2.926     0.047    26.938     8.512
    29   6 C        2.920    -0.049    29.212     8.863
    30   6 C        2.918    -0.029    28.721     8.788
    31   6 C        2.919    -0.028    28.710     8.787
    32   6 C        2.916    -0.052    29.280     8.873
    33   6 C        2.885     0.131    25.131     8.219
    34   8 O        1.709    -0.223    17.701     5.680
    35   6 C        2.885     0.131    25.131     8.219
    36   6 C        2.916    -0.051    29.267     8.871
    37   6 C        2.919    -0.029    28.716     8.787
    38   6 C        2.918    -0.029    28.717     8.788
    39   6 C        2.920    -0.050    29.230     8.866
    40   6 C        2.925     0.047    26.956     8.514
    41   6 C        2.920    -0.072    29.795     8.951
    42   6 C        2.924    -0.023    28.588     8.768
    43   6 C        2.986    -0.101    30.536     9.065
    44   1 H        0.926     0.025     2.662     2.552
    45   1 H        0.926     0.035     2.510     2.478
    46   1 H        0.926     0.057     2.233     2.337
    47   1 H        0.926     0.059     2.211     2.325
    48   1 H        0.926     0.061     2.181     2.310
    49   1 H        0.926     0.067     2.119     2.276
    50   1 H        0.926     0.067     2.118     2.276
    51   1 H        0.926     0.061     2.190     2.314
    52   1 H        0.926     0.057     2.234     2.337
    53   1 H        0.926     0.056     2.243     2.342
    54   1 H        0.926     0.045     2.380     2.413
    55   1 H        0.926     0.045     2.380     2.413
    56   1 H        0.926     0.056     2.244     2.342
    57   1 H        0.926     0.057     2.234     2.337
    58   1 H        0.926     0.061     2.190     2.314
    59   1 H        0.926     0.067     2.118     2.276
    60   1 H        0.926     0.067     2.119     2.276
    61   1 H        0.926     0.061     2.181     2.310
    62   1 H        0.926     0.059     2.211     2.325
    63   1 H        0.926     0.057     2.234     2.337
    64   1 H        0.926     0.035     2.510     2.478
    65   1 H        0.926     0.025     2.662     2.552

molecular dipole:
                 x           y           z       tot (Debye)
 q only:       -0.019       6.716      -2.349
   full:       -0.017       6.207      -2.181      16.721

 projected vibrational frequencies (cm⁻¹)
eigval :       -0.00    -0.00     0.00     0.00     0.00     0.00
eigval :       11.88    13.52    21.39    29.66    34.04    36.20
eigval :       50.68    64.80    75.27    96.48    97.85   107.94
eigval :      112.21   114.57   141.07   155.40   155.86   176.80
eigval :      214.94   228.19   235.95   243.93   245.00   254.75
eigval :      268.22   268.42   287.67   307.22   347.76   348.54
eigval :      359.68   375.92   377.28   391.77   395.83   401.38
eigval :      406.75   425.63   426.41   429.20   432.01   433.41
eigval :      455.01   467.84   496.33   496.45   496.66   502.85
eigval :      509.74   516.84   523.76   533.42   534.48   553.05
eigval :      572.38   585.05   595.51   596.84   602.96   612.53
eigval :      639.19   646.73   657.16   660.62   668.81   669.04
eigval :      673.36   673.69   694.61   722.48   744.44   746.46
eigval :      759.39   775.81   776.54   778.48   778.98   801.45
eigval :      821.24   822.65   829.68   855.88   855.94   867.05
eigval :      867.28   869.93   870.86   883.76   884.04   903.06
eigval :      903.53   903.96   904.39   909.74   913.21   913.95
eigval :      918.13   918.93   920.29   920.71   974.79   995.20
eigval :     1001.46  1053.72  1055.42  1080.72  1080.87  1082.28
eigval :     1083.03  1109.14  1112.50  1113.74  1114.48  1138.71
eigval :     1146.90  1148.90  1156.30  1159.07  1169.18  1170.05
eigval :     1177.79  1179.37  1186.21  1197.73  1205.29  1207.36
eigval :     1207.73  1223.79  1234.95  1235.22  1248.70  1251.14
eigval :     1267.92  1288.65  1296.29  1303.94  1307.26  1316.66
eigval :     1316.89  1336.56  1344.20  1345.11  1350.81  1354.24
eigval :     1355.50  1387.16  1413.27  1413.64  1430.94  1431.11
eigval :     1437.02  1437.29  1448.29  1469.91  1473.39  1478.18
eigval :     1483.49  1543.66  1548.09  1548.33  1552.58  1556.93
eigval :     1558.70  1558.97  1569.29  1575.21  1580.01  3075.27
eigval :     3075.88  3084.12  3089.04  3097.23  3097.34  3097.73
eigval :     3097.80  3105.04  3105.06  3105.14  3105.17  3105.93
eigval :     3106.45  3112.69  3112.98  3113.90  3114.05  3116.20
eigval :     3116.44  3116.67  3116.98

   temp. (K)  partition function   enthalpy   heat capacity  entropy
                                   cal/mol     cal/K/mol   cal/K/mol   J/K/mol
 298.15  VIB  0.254E+15            19384.678    125.390    118.277
         ROT  0.652E+08              888.752      2.981     38.738
         INT  0.166E+23            20273.431    128.371    157.015
         TR   0.135E+29             1481.254      4.968     44.930
         TOT                       21754.6845   133.3388   201.9453   844.9393

       T/K    H(0)-H(T)+PV         H(T)/Eh          T*S/Eh         G(T)/Eh
   ------------------------------------------------------------------------
    298.15    0.346683E-01    0.504943E+00    0.959507E-01    0.408993E+00
   ------------------------------------------------------------------------

         :::::::::::::::::::::::::::::::::::::::::::::::::::::
         ::                  THERMODYNAMIC                  ::
         :::::::::::::::::::::::::::::::::::::::::::::::::::::
         :: total free energy        -113.271694588176 Eh   ::
         ::.................................................::
         :: total energy             -113.680687331566 Eh   ::
         :: zero point energy           0.470275189144 Eh   ::
         :: G(RRHO) w/o ZPVE           -0.061282445754 Eh   ::
         :: G(RRHO) contrib.            0.408992743390 Eh   ::
         :::::::::::::::::::::::::::::::::::::::::::::::::::::

           -------------------------------------------------
          | TOTAL ENERGY             -113.680687331566 Eh   |
          | TOTAL ENTHALPY           -113.175743845998 Eh   |
          | TOTAL FREE ENERGY        -113.271694588176 Eh   |
          | GRADIENT NORM               0.000059791463 Eh/α |
          | HOMO-LUMO GAP               0.283364940483 eV   |
           -------------------------------------------------

 * finished run on 2025/08/24 at 07:23:33.836
