   * xtb version 6.7.1 (edcfbbe) compiled by 'albert@albert-system' on 2024-07-22

   ID    Z sym.   atoms
    1    8 O      1, 3, 15, 34
    2   16 S      2
    3    6 C      4-7, 9-14, 16-26, 28-33, 35-43
    4    7 N      8, 27
    5    1 H      44-65

          program call               : xtb data2507/toluene/DBTO-PTZ/DBTO-PTZ_toluene_T1_crest.xyz --gfn 2 --uhf 2 --gbsa toluene --ohess vtight --parallel 40 --molden --ceasefiles --namespace data2507/toluene/DBTO-PTZ/DBTO-PTZ_toluene_T1_finalOpt
      * Solvation model:               GBSA
        Solvent                        toluene
        Solvent mass                       9.2140E+01 g/mol
          :  Hamiltonian                  GFN2-xTB          :
 * total energy  :  -113.6803803 Eh     change        0.2083596E-09 Eh
 * total energy  :  -113.6805659 Eh     change       -0.1856389E-03 Eh
 * total energy  :  -113.6806775 Eh     change       -0.1115367E-03 Eh
 * total energy  :  -113.6806898 Eh     change       -0.1234362E-04 Eh
 * total energy  :  -113.6807004 Eh     change       -0.1059631E-04 Eh
 * total energy  :  -113.6807039 Eh     change       -0.3502529E-05 Eh
 * total energy  :  -113.6807065 Eh     change       -0.2568456E-05 Eh
 * total energy  :  -113.6807088 Eh     change       -0.2312481E-05 Eh
 * total energy  :  -113.6807118 Eh     change       -0.3068535E-05 Eh
 * total energy  :  -113.6807151 Eh     change       -0.3265629E-05 Eh
 * total energy  :  -113.6807205 Eh     change       -0.9029803E-06 Eh
 * total energy  :  -113.6807211 Eh     change       -0.5722806E-06 Eh
 * total energy  :  -113.6807215 Eh     change       -0.3845465E-06 Eh
 * total energy  :  -113.6807218 Eh     change       -0.2744460E-06 Eh
 * total energy  :  -113.6807220 Eh     change       -0.2003409E-06 Eh
 * total energy  :  -113.6807221 Eh     change       -0.1739103E-06 Eh
 * total energy  :  -113.6807223 Eh     change       -0.1755780E-06 Eh
 * total energy  :  -113.6807222 Eh     change        0.8723488E-07 Eh
 * total energy  :  -113.6807223 Eh     change       -0.7270287E-07 Eh
   *** GEOMETRY OPTIMIZATION CONVERGED AFTER 23 ITERATIONS ***

 final structure:
================
65
 xtb: 6.7.1 (edcfbbe)
O            0.00810735621980       -4.26024765110018        2.67995552219292
S            0.00738048595717       -3.89833903995944        1.26594135986048
O            0.00974837797777       -5.04522219966082        0.36301273832600
C           -1.28900379579995       -2.75274298551576        0.87958531647472
C           -2.64277788432449       -2.94093949495867        0.95705468081328
C           -3.49891158154066       -1.90219474181958        0.61355980559012
C           -2.94297470333877       -0.67281297618402        0.19334046303882
N           -3.83065548899906        0.38831628530990       -0.14029429701418
C           -3.92903449270014        1.50482796931258        0.67154170606442
C           -3.16746040480783        1.65361693941981        1.83136476915817
C           -3.29139494254685        2.78727987001596        2.61144548092769
C           -4.17919600306626        3.79376804417583        2.25856023777484
C           -4.95910721480800        3.65684064235012        1.12359514780067
C           -4.84348634887612        2.52230357466882        0.33516069988446
O           -5.65382494422226        2.43418488478523       -0.75977631114879
C           -5.54633701846260        1.32625270812026       -1.54940117157742
C           -6.36683138888216        1.25424493498912       -2.66460004411166
C           -6.28877412068106        0.16204245596329       -3.51126667203820
C           -5.37831903060678       -0.85178665321974       -3.24943930503638
C           -4.55525419676358       -0.78878939853526       -2.14101965238681
C           -4.63488708226426        0.29193734936001       -1.26180845784327
C           -1.58563687644664       -0.47477175814225        0.11123417375446
C           -0.70314507922849       -1.51843182907029        0.45917972917664
C            0.70819258397139       -1.51554708763018        0.45908648694892
C            1.58638557360881       -0.46838964127013        0.11066969668408
C            2.94451918095549       -0.66089762817771        0.19268637084110
N            3.82842644015045        0.40328796686956       -0.14110791307474
C            4.63538471974409        0.30769830762078       -1.26075752774248
C            4.55802193317474       -0.77264235270072       -2.14066902642026
C            5.38390986237714       -0.83512387625037       -3.24701078154600
C            6.29513080792665        0.17876069293154       -3.50594377872878
C            6.37083015424501        1.27070440887372       -2.65871978813953
C            5.54729288428683        1.34231265917337       -1.54574283546273
O            5.65237034167600        2.45006407612520       -0.75554682615632
C            4.83777174082352        2.53851911712634        0.33619788413504
C            4.94971511685801        3.67381178122231        1.12407291883697
C            4.16558614978665        3.81118066619627        2.25607407406857
C            3.27728837776423        2.80432325049028        2.60661434165702
C            3.15713269087262        1.66982181082290        1.82715439395163
C            3.92292171651490        1.52059589214779        0.67016454038101
C            3.50543084235710       -1.88799723426388        0.61314550493682
C            2.65359484355026       -2.93013825288832        0.95692195175750
C            1.29906211835699       -2.74742633163309        0.87962838125113
H           -3.03284721266916       -3.89296979713008        1.28665271097033
H           -4.56849880985839       -2.01603143682348        0.67724935208927
H           -2.48494482792796        0.86835984425883        2.11402772499720
H           -2.69196502896509        2.88194413873075        3.50319069796033
H           -4.27134005191178        4.67853454137037        2.86786442884651
H           -5.66849089266077        4.41391406120919        0.83003056279761
H           -7.05449479072554        2.06408776551718       -2.84834905034490
H           -6.93061217983577        0.10834811634530       -4.37604716044575
H           -5.30429694091660       -1.69839481560224       -3.91383604180518
H           -3.84320180424711       -1.57407193013231       -1.94429218097282
H           -1.19772798673409        0.47664268632340       -0.21970308944800
H            1.19450755850691        0.48122322858739       -0.22077040687107
H            3.84544702431083       -1.55799324352387       -1.94612798982884
H            5.31152759811067       -1.68137069859950       -3.91204872019829
H            6.93939090168729        0.12536503504619       -4.36893884020490
H            7.05903083982952        2.08057285592845       -2.84032143504827
H            5.65971713493240        4.43107832065749        0.83250813134902
H            4.25483437399822        4.69657779016593        2.86488939222682
H            2.67451185912251        2.89934639423095        3.49606345052591
H            2.47432620426577        0.88423448991757        2.10818658424294
H            4.57548354054463       -1.99749111056207        0.67667183035671
H            3.04758647545363       -3.88055823090651        1.28649246804496

          :  Hamiltonian                  GFN2-xTB          :
         :: gradient norm              0.000154534235 Eh/a0 ::
         :: HOMO-LUMO gap              0.282577363834 eV    ::
         :: SCC energy              -115.506351363793 Eh    ::
         :: -> dispersion             -0.094328876100 Eh    ::
         :: -> Gsolv                  -0.064768577310 Eh    ::
         :: repulsion energy           1.825629052214 Eh    ::

    * Orbital Energies and Occupations

         #    Occupation            Energy/Eh            Energy/eV
      -------------------------------------------------------------
         1        2.0000           -0.7553918             -20.5553
       ...           ...                  ...                  ...
        92        2.0000           -0.4306185             -11.7177
        93        2.0000           -0.4252921             -11.5728
        94        2.0000           -0.4208391             -11.4516
        95        2.0000           -0.4202141             -11.4346
        96        2.0000           -0.4130162             -11.2387
        97        2.0000           -0.4129412             -11.2367
        98        2.0000           -0.4073927             -11.0857
        99        2.0000           -0.4070099             -11.0753
       100        2.0000           -0.3863724             -10.5137
       101        2.0000           -0.3782086             -10.2916
       102        1.5026           -0.3600185              -9.7966
       103        1.4974           -0.3599986              -9.7961
       104        0.9941           -0.2693675              -7.3299 (HOMO)
       105        0.0030           -0.2589833              -7.0473 (LUMO)
       106        0.0030           -0.2589710              -7.0470
       107                         -0.2462327              -6.7003
       108                         -0.2461748              -6.6988
       109                         -0.2395777              -6.5192
       110                         -0.2358053              -6.4166
       111                         -0.2305326              -6.2731
       112                         -0.2270810              -6.1792
       113                         -0.2134198              -5.8074
       114                         -0.2128352              -5.7915
       115                         -0.1933576              -5.2615
       ...                                ...                  ...
       199                          1.1538739              31.3985
      -------------------------------------------------------------
                  HL-Gap            0.0103841 Eh            0.2826 eV

     #   Z          covCN         q      C6AA      α(0)
     1   8 O        0.860    -0.604    26.221     6.865
     2  16 S        3.948     0.890   109.854    17.640
     3   8 O        0.860    -0.604    26.223     6.866
     4   6 C        2.986    -0.101    30.536     9.065
     5   6 C        2.924    -0.023    28.588     8.768
     6   6 C        2.920    -0.072    29.795     8.951
     7   6 C        2.919     0.044    27.005     8.522
     8   7 N        2.754    -0.017    21.577     6.899
     9   6 C        2.925     0.047    26.954     8.514
    10   6 C        2.920    -0.049    29.228     8.866
    11   6 C        2.918    -0.029    28.716     8.788
    12   6 C        2.919    -0.029    28.715     8.787
    13   6 C        2.916    -0.051    29.267     8.871
    14   6 C        2.885     0.131    25.131     8.219
    15   8 O        1.709    -0.223    17.700     5.680
    16   6 C        2.885     0.131    25.131     8.219
    17   6 C        2.916    -0.052    29.280     8.873
    18   6 C        2.919    -0.028    28.710     8.787
    19   6 C        2.918    -0.029    28.720     8.788
    20   6 C        2.920    -0.049    29.212     8.863
    21   6 C        2.926     0.047    26.937     8.511
    22   6 C        2.915    -0.052    29.294     8.875
    23   6 C        3.110    -0.029    28.560     8.755
    24   6 C        3.110    -0.029    28.561     8.755
    25   6 C        2.915    -0.052    29.295     8.875
    26   6 C        2.919     0.044    27.005     8.522
    27   7 N        2.754    -0.017    21.577     6.899
    28   6 C        2.926     0.047    26.937     8.511
    29   6 C        2.920    -0.049    29.211     8.863
    30   6 C        2.918    -0.029    28.720     8.788
    31   6 C        2.919    -0.028    28.710     8.787
    32   6 C        2.916    -0.052    29.280     8.873
    33   6 C        2.885     0.131    25.131     8.219
    34   8 O        1.709    -0.223    17.700     5.680
    35   6 C        2.885     0.131    25.131     8.219
    36   6 C        2.916    -0.051    29.267     8.871
    37   6 C        2.919    -0.029    28.715     8.787
    38   6 C        2.918    -0.029    28.716     8.788
    39   6 C        2.920    -0.049    29.229     8.866
    40   6 C        2.925     0.047    26.954     8.514
    41   6 C        2.920    -0.072    29.795     8.951
    42   6 C        2.924    -0.023    28.588     8.768
    43   6 C        2.986    -0.101    30.536     9.065
    44   1 H        0.926     0.025     2.663     2.552
    45   1 H        0.926     0.035     2.511     2.478
    46   1 H        0.926     0.057     2.235     2.338
    47   1 H        0.926     0.059     2.211     2.325
    48   1 H        0.926     0.061     2.182     2.310
    49   1 H        0.926     0.067     2.118     2.276
    50   1 H        0.926     0.067     2.118     2.276
    51   1 H        0.926     0.061     2.190     2.314
    52   1 H        0.926     0.057     2.234     2.337
    53   1 H        0.926     0.056     2.244     2.342
    54   1 H        0.926     0.045     2.382     2.413
    55   1 H        0.926     0.045     2.381     2.413
    56   1 H        0.926     0.056     2.244     2.342
    57   1 H        0.926     0.057     2.234     2.337
    58   1 H        0.926     0.061     2.190     2.314
    59   1 H        0.926     0.067     2.118     2.276
    60   1 H        0.926     0.067     2.118     2.276
    61   1 H        0.926     0.061     2.182     2.310
    62   1 H        0.926     0.059     2.211     2.325
    63   1 H        0.926     0.057     2.234     2.338
    64   1 H        0.926     0.035     2.511     2.478
    65   1 H        0.926     0.025     2.663     2.552

molecular dipole:
                 x           y           z       tot (Debye)
 q only:       -0.013       6.773      -2.171
   full:       -0.012       6.260      -2.017      16.718

 projected vibrational frequencies (cm⁻¹)
eigval :       -0.00    -0.00    -0.00    -0.00     0.00     0.00
eigval :       15.61    15.97    22.34    29.98    32.72    37.30
eigval :       51.23    65.66    74.62    96.15    98.10   109.21
eigval :      112.76   114.82   141.09   155.54   155.68   177.26
eigval :      215.33   227.87   235.99   244.89   246.01   254.29
eigval :      268.79   268.92   287.40   306.92   347.62   348.65
eigval :      358.40   376.07   377.24   391.97   396.00   401.55
eigval :      405.96   425.62   426.38   429.81   432.93   433.86
eigval :      455.47   468.35   496.53   496.80   497.11   502.86
eigval :      509.80   516.88   523.65   533.36   534.30   553.43
eigval :      572.35   585.13   595.48   597.09   602.91   612.92
eigval :      639.53   647.30   657.08   660.57   669.92   670.08
eigval :      674.16   674.45   694.72   722.57   743.90   745.98
eigval :      759.28   775.82   776.29   779.47   779.97   801.32
eigval :      815.25   821.94   824.29   855.77   855.83   868.45
eigval :      868.92   870.56   871.31   878.86   879.02   903.59
eigval :      903.89   904.47   904.72   909.78   913.11   913.86
eigval :      917.99   918.20   919.74   920.19   974.61   995.19
eigval :     1001.50  1053.46  1055.20  1080.70  1080.92  1082.63
eigval :     1083.40  1109.36  1112.89  1113.84  1114.47  1138.56
eigval :     1146.68  1148.68  1156.33  1159.34  1168.78  1169.18
eigval :     1177.03  1179.00  1186.05  1197.80  1205.32  1207.85
eigval :     1208.18  1223.45  1235.44  1235.67  1249.36  1251.79
eigval :     1267.89  1288.84  1296.59  1304.21  1307.37  1316.69
eigval :     1316.90  1336.69  1344.33  1345.19  1350.92  1354.28
eigval :     1355.36  1387.00  1413.30  1413.62  1431.11  1431.29
eigval :     1436.95  1437.19  1448.17  1469.99  1473.35  1478.44
eigval :     1483.38  1543.42  1548.12  1548.38  1552.68  1556.90
eigval :     1558.78  1558.85  1569.50  1575.16  1579.94  3074.84
eigval :     3075.44  3084.08  3088.98  3096.88  3096.91  3097.87
eigval :     3097.99  3105.16  3105.21  3105.21  3105.26  3105.99
eigval :     3106.51  3113.02  3113.04  3113.75  3113.77  3116.24
eigval :     3116.42  3116.55  3116.90

   temp. (K)  partition function   enthalpy   heat capacity  entropy
                                   cal/mol     cal/K/mol   cal/K/mol   J/K/mol
 298.15  VIB  0.154E+15            19368.909    125.433    117.776
         ROT  0.653E+08              888.752      2.981     38.741
         INT  0.101E+23            20257.661    128.414    156.517
         TR   0.135E+29             1481.254      4.968     44.930
         TOT                       21738.9152   133.3819   201.4471   842.8548

       T/K    H(0)-H(T)+PV         H(T)/Eh          T*S/Eh         G(T)/Eh
   ------------------------------------------------------------------------
    298.15    0.346432E-01    0.504927E+00    0.957140E-01    0.409213E+00
   ------------------------------------------------------------------------

         :::::::::::::::::::::::::::::::::::::::::::::::::::::
         ::                  THERMODYNAMIC                  ::
         :::::::::::::::::::::::::::::::::::::::::::::::::::::
         :: total free energy        -113.271509750012 Eh   ::
         ::.................................................::
         :: total energy             -113.680722308229 Eh   ::
         :: zero point energy           0.470283421263 Eh   ::
         :: G(RRHO) w/o ZPVE           -0.061070863046 Eh   ::
         :: G(RRHO) contrib.            0.409212558217 Eh   ::
         :::::::::::::::::::::::::::::::::::::::::::::::::::::

           -------------------------------------------------
          | TOTAL ENERGY             -113.680722308229 Eh   |
          | TOTAL ENTHALPY           -113.175795720528 Eh   |
          | TOTAL FREE ENERGY        -113.271509750012 Eh   |
          | GRADIENT NORM               0.000155121141 Eh/α |
          | HOMO-LUMO GAP               0.282566878611 eV   |
           -------------------------------------------------

 * finished run on 2025/08/24 at 07:28:41.367
