   * xtb version 6.7.1 (edcfbbe) compiled by 'albert@albert-system' on 2024-07-22

   ID    Z sym.   atoms
    1    6 C      1-4, 6-19, 21, 22, 24-32
    2    7 N      5, 20, 23
    3    1 H      33-51

          program call               : xtb data2507/gas/SAIP/SAIP_gas_S0_crest.xyz --gfn 2 --ohess vtight --parallel 40 --molden --ceasefiles --namespace data2507/gas/SAIP/SAIP_gas_S0_finalOpt
          :  Hamiltonian                  GFN2-xTB          :
 * total energy  :   -80.5780954 Eh     change       -0.1317602E-08 Eh
 * total energy  :   -80.5780974 Eh     change       -0.2028922E-05 Eh
 * total energy  :   -80.5780984 Eh     change       -0.9298508E-06 Eh
 * total energy  :   -80.5781005 Eh     change       -0.2181818E-05 Eh
 * total energy  :   -80.5781011 Eh     change       -0.5989736E-06 Eh
 * total energy  :   -80.5781017 Eh     change       -0.5096818E-06 Eh
 * total energy  :   -80.5781023 Eh     change       -0.6001111E-06 Eh
 * total energy  :   -80.5781028 Eh     change       -0.5673219E-06 Eh
 * total energy  :   -80.5781033 Eh     change       -0.4833699E-06 Eh
 * total energy  :   -80.5781036 Eh     change       -0.2836850E-06 Eh
 * total energy  :   -80.5781037 Eh     change       -0.1366507E-06 Eh
 * total energy  :   -80.5781038 Eh     change       -0.4503933E-07 Eh
   *** GEOMETRY OPTIMIZATION CONVERGED AFTER 12 ITERATIONS ***

 final structure:
================
51
 xtb: 6.7.1 (edcfbbe)
C            5.94534575436653       -0.04534480317215        0.42812286240517
C            5.48332998610196        0.23627472801234       -0.84704731615663
C            4.12383680426741        0.26487179459563       -1.10289578606417
C            3.22358173875741        0.01477445655520       -0.07436265314436
N            1.82120891247905        0.03612907497995       -0.30951779559306
C            1.15343700883600        1.24669293123500       -0.37431665249709
C            1.85773518477170        2.45189206073396       -0.41325797368728
C            1.19037486347038        3.65595898181136       -0.51566943648347
C           -0.19132903922544        3.68616740952138       -0.58464746655561
C           -0.89857751335648        2.49856039096605       -0.52041440405859
C           -0.24460312312830        1.28220528967383       -0.41189528248486
C           -1.03769886137134        0.01152050318720       -0.21230988107505
C           -2.38983133040092        0.04727700011730       -0.88808188813764
C           -2.66645494650972        0.12923230757356       -2.23648591937746
C           -3.99432706551666        0.14853200684695       -2.64157283727079
C           -5.02642928091368        0.08721315831680       -1.71534921155400
C           -4.75894661550090        0.00467671753654       -0.35888512918525
C           -3.43466189921827       -0.01498393597457        0.04783630323885
C           -2.84839727953077       -0.09539801229486        1.37139388143892
N           -3.44521545676078       -0.17150182260445        2.54977863798660
C           -2.62514312870536       -0.23496455872366        3.59431484086057
C           -1.24366240324124       -0.22412770697921        3.46477950529369
N           -0.63711532944593       -0.14768246727173        2.27985524571177
C           -1.44422291136140       -0.08295674608760        1.24447550066387
C           -0.23095086155241       -1.21311961887177       -0.57335415410333
C           -0.86724424425836       -2.41352829735117       -0.84371535194834
C           -0.14162241304151       -3.56744529215025       -1.08200953196863
C            1.24092370780423       -3.52041842644624       -1.03967264291684
C            1.89021843540232       -2.33103903140265       -0.77684108942928
C            1.16572078004292       -1.16082732758474       -0.53954458429003
C            3.68587621522079       -0.26841323671227        1.20378713429437
C            5.04690543789385       -0.29881464530557        1.45128779981851
H            7.00705577541877       -0.06802089633508        0.62350289279981
H            6.18365660458930        0.43158346421809       -1.64568137748445
H            3.75287580875162        0.47930366763622       -2.09466327577322
H            2.93530698891725        2.44253275149052       -0.35567486225345
H            1.75613286569342        4.57547760830123       -0.54168017888664
H           -0.71671214010347        4.62493573311991       -0.66840453575752
H           -1.97888031962795        2.51565639765176       -0.54329561483552
H           -1.86581495333635        0.17744127004254       -2.95971773517480
H           -4.22761251391318        0.21239476697145       -3.69428441260123
H           -6.05032593121532        0.10392231370050       -2.05878283139650
H           -5.55117887195573       -0.04391886310473        0.37174419509403
H           -3.10047953883796       -0.29714595570276        4.56351236929565
H           -0.59228922677874       -0.27793087301829        4.32584962862289
H           -1.94735992260685       -2.44582849656921       -0.85815219363962
H           -0.65302404084275       -4.49513459708951       -1.28748936065831
H            1.82071727765644       -4.41444037919870       -1.21519352648366
H            2.96907981965338       -2.30288754260094       -0.75331839869085
H            2.97071711296989       -0.46260073333049        1.98907229942222
H            5.40715119839317       -0.51874519881255        2.44520544997054

          :  Hamiltonian                  GFN2-xTB          :
         :: gradient norm              0.000122377436 Eh/a0 ::
         :: HOMO-LUMO gap              1.788102700031 eV    ::
         :: SCC energy               -82.054141542411 Eh    ::
         :: -> dispersion             -0.075446224294 Eh    ::
         :: repulsion energy           1.476037774050 Eh    ::

    * Orbital Energies and Occupations

         #    Occupation            Energy/Eh            Energy/eV
      -------------------------------------------------------------
         1        2.0000           -0.6772540             -18.4290
       ...           ...                  ...                  ...
        63        2.0000           -0.4279594             -11.6454
        64        2.0000           -0.4209152             -11.4537
        65        2.0000           -0.4175578             -11.3623
        66        2.0000           -0.4162078             -11.3256
        67        2.0000           -0.4115183             -11.1980
        68        2.0000           -0.4110102             -11.1842
        69        2.0000           -0.4076805             -11.0936
        70        2.0000           -0.4034924             -10.9796
        71        2.0000           -0.3991001             -10.8601
        72        2.0000           -0.3956655             -10.7666
        73        2.0000           -0.3914953             -10.6531
        74        2.0000           -0.3559424              -9.6857
        75        2.0000           -0.3436003              -9.3498 (HOMO)
        76                         -0.2778888              -7.5617 (LUMO)
        77                         -0.2561818              -6.9711
        78                         -0.2360065              -6.4221
        79                         -0.2344519              -6.3798
        80                         -0.2295542              -6.2465
        81                         -0.2239614              -6.0943
        82                         -0.2209709              -6.0129
        83                         -0.2175497              -5.9198
        84                         -0.2051053              -5.5812
        85                         -0.1915942              -5.2135
        86                         -0.1303369              -3.5466
       ...                                ...                  ...
       147                          0.7081286              19.2692
      -------------------------------------------------------------
                  HL-Gap            0.0657115 Eh            1.7881 eV

     #   Z          covCN         q      C6AA      α(0)
     1   6 C        2.920    -0.030    28.760     8.794
     2   6 C        2.920    -0.029    28.716     8.788
     3   6 C        2.921    -0.038    28.946     8.823
     4   6 C        2.928     0.069    26.458     8.435
     5   7 N        2.754    -0.063    22.461     7.039
     6   6 C        2.927     0.064    26.567     8.453
     7   6 C        2.923    -0.057    29.411     8.894
     8   6 C        2.920    -0.032    28.790     8.799
     9   6 C        2.918    -0.043    29.068     8.841
    10   6 C        2.924    -0.037    28.911     8.818
    11   6 C        2.985    -0.008    28.199     8.711
    12   6 C        3.948     0.011    20.333     6.407
    13   6 C        3.061     0.002    27.909     8.663
    14   6 C        2.914    -0.029    28.728     8.789
    15   6 C        2.922    -0.027    28.679     8.782
    16   6 C        2.922    -0.030    28.759     8.794
    17   6 C        2.913    -0.026    28.650     8.777
    18   6 C        3.033    -0.006    28.134     8.700
    19   6 C        3.043     0.080    26.166     8.390
    20   7 N        1.836    -0.221    26.671     7.653
    21   6 C        2.925     0.047    26.938     8.511
    22   6 C        2.929     0.047    26.948     8.513
    23   7 N        1.836    -0.226    26.791     7.670
    24   6 C        3.072     0.088    25.963     8.355
    25   6 C        2.985    -0.007    28.191     8.710
    26   6 C        2.924    -0.037    28.908     8.817
    27   6 C        2.918    -0.043    29.062     8.840
    28   6 C        2.919    -0.032    28.788     8.799
    29   6 C        2.924    -0.056    29.394     8.891
    30   6 C        2.929     0.064    26.571     8.454
    31   6 C        2.923    -0.037    28.911     8.818
    32   6 C        2.920    -0.027    28.676     8.782
    33   1 H        0.926     0.037     2.490     2.468
    34   1 H        0.926     0.037     2.485     2.465
    35   1 H        0.926     0.041     2.442     2.444
    36   1 H        0.926     0.029     2.594     2.519
    37   1 H        0.926     0.031     2.576     2.510
    38   1 H        0.926     0.029     2.598     2.520
    39   1 H        0.926     0.026     2.641     2.542
    40   1 H        0.926     0.034     2.528     2.487
    41   1 H        0.926     0.036     2.498     2.472
    42   1 H        0.926     0.037     2.496     2.470
    43   1 H        0.926     0.049     2.335     2.389
    44   1 H        0.925     0.040     2.451     2.448
    45   1 H        0.926     0.038     2.473     2.459
    46   1 H        0.926     0.026     2.639     2.540
    47   1 H        0.926     0.029     2.594     2.519
    48   1 H        0.926     0.031     2.574     2.509
    49   1 H        0.926     0.028     2.613     2.528
    50   1 H        0.926     0.049     2.328     2.386
    51   1 H        0.926     0.039     2.465     2.455

molecular dipole:
                 x           y           z       tot (Debye)
 q only:        0.747       0.012      -0.413
   full:        0.734       0.010      -0.326       2.040

 projected vibrational frequencies (cm⁻¹)
eigval :       -0.00    -0.00     0.00     0.00     0.00     0.00
eigval :        5.50    18.59    37.80    45.66    47.72    66.42
eigval :       70.93    87.90   110.39   133.80   149.61   167.95
eigval :      199.96   229.71   241.01   245.30   252.94   274.64
eigval :      301.66   373.49   375.31   383.70   386.00   402.26
eigval :      410.94   416.48   419.93   450.70   454.16   462.93
eigval :      496.42   502.30   509.53   512.31   543.74   590.06
eigval :      592.81   594.20   601.38   605.76   625.07   631.53
eigval :      672.20   672.79   677.30   697.15   705.50   725.05
eigval :      760.17   765.58   770.01   777.54   781.91   784.05
eigval :      830.88   865.28   865.62   879.70   884.45   895.00
eigval :      899.39   904.50   906.57   909.43   910.52   914.83
eigval :      917.99   920.39   920.58   927.55   930.10   931.37
eigval :      933.76   946.75   997.67  1026.12  1069.89  1078.04
eigval :     1099.15  1106.37  1107.80  1109.35  1112.71  1125.07
eigval :     1140.52  1161.64  1175.19  1180.84  1183.31  1184.32
eigval :     1184.94  1191.56  1201.66  1215.04  1228.43  1241.03
eigval :     1255.87  1256.15  1268.42  1270.29  1273.84  1291.02
eigval :     1310.15  1320.04  1323.09  1328.24  1337.09  1344.19
eigval :     1368.52  1420.22  1432.96  1439.30  1441.58  1448.09
eigval :     1463.33  1470.33  1479.13  1495.12  1535.60  1572.24
eigval :     1579.47  1583.57  1586.18  1588.51  1590.64  1594.39
eigval :     1601.80  1603.68  3060.84  3070.41  3076.89  3077.18
eigval :     3077.55  3077.94  3080.36  3080.68  3081.61  3084.17
eigval :     3088.36  3092.55  3093.35  3094.52  3095.29  3099.32
eigval :     3099.77  3101.22  3103.51

   temp. (K)  partition function   enthalpy   heat capacity  entropy
                                   cal/mol     cal/K/mol   cal/K/mol   J/K/mol
 298.15  VIB  0.136E+11            13335.213     88.381     82.203
         ROT  0.156E+08              888.752      2.981     35.898
         INT  0.212E+18            14223.965     91.362    118.101
         TR   0.802E+28             1481.254      4.968     43.900
         TOT                       15705.2188    96.3302   162.0015   677.8145

       T/K    H(0)-H(T)+PV         H(T)/Eh          T*S/Eh         G(T)/Eh
   ------------------------------------------------------------------------
    298.15    0.250279E-01    0.413550E+00    0.769722E-01    0.336578E+00
   ------------------------------------------------------------------------

         :::::::::::::::::::::::::::::::::::::::::::::::::::::
         ::                  THERMODYNAMIC                  ::
         :::::::::::::::::::::::::::::::::::::::::::::::::::::
         :: total free energy         -80.241525722603 Eh   ::
         ::.................................................::
         :: total energy              -80.578103768358 Eh   ::
         :: zero point energy           0.388522348736 Eh   ::
         :: G(RRHO) w/o ZPVE           -0.051944302981 Eh   ::
         :: G(RRHO) contrib.            0.336578045755 Eh   ::
         :::::::::::::::::::::::::::::::::::::::::::::::::::::

           -------------------------------------------------
          | TOTAL ENERGY              -80.578103768358 Eh   |
          | TOTAL ENTHALPY            -80.164553560368 Eh   |
          | TOTAL FREE ENERGY         -80.241525722603 Eh   |
          | GRADIENT NORM               0.000122429154 Eh/α |
          | HOMO-LUMO GAP               1.788101035140 eV   |
           -------------------------------------------------

 * finished run on 2025/09/04 at 12:45:25.750
