   * xtb version 6.7.1 (edcfbbe) compiled by 'albert@albert-system' on 2024-07-22

   ID    Z sym.   atoms
    1    6 C      1-4, 6-19, 21, 22, 24-32
    2    7 N      5, 20, 23
    3    1 H      33-51

          program call               : xtb data2507/gas/SAIP/SAIP_gas_T1_crest.xyz --gfn 2 --spinpol --tblite --uhf 2 --ohess vtight --parallel 40 --molden --ceasefiles --namespace data2507/gas/SAIP/SAIP_gas_T1_finalOpt
 * total energy  :   -80.5117500 Eh     change        0.1053337E-08 Eh
 * total energy  :   -80.5118446 Eh     change       -0.9460595E-04 Eh
 * total energy  :   -80.5119111 Eh     change       -0.6653746E-04 Eh
 * total energy  :   -80.5119182 Eh     change       -0.7086611E-05 Eh
 * total energy  :   -80.5119211 Eh     change       -0.2825677E-05 Eh
 * total energy  :   -80.5119219 Eh     change       -0.8584456E-06 Eh
 * total energy  :   -80.5119229 Eh     change       -0.9751124E-06 Eh
 * total energy  :   -80.5119239 Eh     change       -0.9931821E-06 Eh
 * total energy  :   -80.5119249 Eh     change       -0.1059401E-05 Eh
 * total energy  :   -80.5119257 Eh     change       -0.7440756E-06 Eh
 * total energy  :   -80.5119291 Eh     change       -0.1323322E-05 Eh
 * total energy  :   -80.5119307 Eh     change       -0.1623801E-05 Eh
 * total energy  :   -80.5119323 Eh     change       -0.1613090E-05 Eh
 * total energy  :   -80.5119334 Eh     change       -0.1082486E-05 Eh
 * total energy  :   -80.5119341 Eh     change       -0.6962089E-06 Eh
 * total energy  :   -80.5119347 Eh     change       -0.6280135E-06 Eh
 * total energy  :   -80.5119355 Eh     change       -0.7814420E-06 Eh
 * total energy  :   -80.5119364 Eh     change       -0.8921407E-06 Eh
 * total energy  :   -80.5119364 Eh     change       -0.8966140E-08 Eh
   *** GEOMETRY OPTIMIZATION CONVERGED AFTER 22 ITERATIONS ***

 final structure:
================
51
 xtb: 6.7.1 (edcfbbe)
C            5.79805616462481        0.05435758958732        0.56289108971388
C            5.42705697886437       -0.17267893259737       -0.75232457909813
C            4.08813480547988       -0.21158602462249       -1.09998391001964
C            3.11961665151718       -0.02393169561954       -0.12201257509161
N            1.73379895991470       -0.05440701004070       -0.44237453765257
C            1.08837444124065        1.13131657051194       -0.73837934101508
C            1.81625261496434        2.28932162211944       -1.02313141207624
C            1.16441362190551        3.45521530618022       -1.36673520859564
C           -0.21995708743188        3.49024880510047       -1.43836456911746
C           -0.94938110845263        2.35497380049766       -1.13744284070384
C           -0.31158336686932        1.17511035204440       -0.78700669586435
C           -1.08212394552316       -0.02559578349530       -0.31840719117195
C           -2.52660378115994       -0.05472942939191       -0.74694661318163
C           -3.04545580192701       -0.16388884679612       -2.01332392075610
C           -4.43040335856341       -0.16783908055015       -2.16952048913212
C           -5.26656004464724       -0.06316039312795       -1.06483284018676
C           -4.75783396519656        0.04713231725243        0.21526412077775
C           -3.37223378117483        0.05156386981930        0.37911313307189
C           -2.56981414756113        0.15062885514968        1.55201798582557
N           -2.89341156002308        0.26875553547598        2.86102065113300
C           -1.90305188275977        0.34021948861492        3.74483394026915
C           -0.58334662012251        0.30009686218142        3.37983892869157
N           -0.23961676227250        0.18223292432602        2.06364145193876
C           -1.21123305261229        0.11082274249943        1.20105396101277
C           -0.32564341001634       -1.29943574575223       -0.56586104588209
C           -0.98013613619695       -2.51419622743694       -0.69886524606897
C           -0.26761547500248       -3.69587755740251       -0.78411416082281
C            1.11649606225963       -3.66841831249101       -0.70679229249693
C            1.78515167800290       -2.46897973656909       -0.57755887385329
C            1.07541867334440       -1.26700953817348       -0.52161561328489
C            3.48888393459942        0.20436396443916        1.19633178999242
C            4.82988435257685        0.24317831292375        1.53526106492566
H            6.84387984794987        0.08456305678619        0.82940049940040
H            6.18198572619686       -0.31836742938529       -1.51056347483016
H            3.78705197157917       -0.38425057831282       -2.12307211239528
H            2.89430916485483        2.26842603003472       -0.97281679457396
H            1.74074656048608        4.34245265754462       -1.58253619466379
H           -0.72839079282292        4.40191963228051       -1.71141667602056
H           -2.02844713709438        2.38066391233853       -1.16379880020558
H           -2.39377076368447       -0.24501760206401       -2.87169086391471
H           -4.85555569069653       -0.25290264624621       -3.15816587136995
H           -6.33734088206649       -0.06817733263776       -1.21132159047355
H           -5.40562131094205        0.12860239339505        1.07406425472393
H           -2.18497065314491        0.43299266275230        4.78262027361053
H            0.21861077260498        0.35712414120660        4.09525581183080
H           -2.05943179599286       -2.52868901221874       -0.72447724471252
H           -0.78908174243476       -4.63451645040804       -0.88998700430313
H            1.67982484036744       -4.58869236998782       -0.74813316168599
H            2.86251504162820       -2.45769235888847       -0.51533179243266
H            2.71686807696456        0.34785488853411        1.93744650242866
H            5.11979352446513        0.42023218981931        2.56009216400785

 projected vibrational frequencies (cm⁻¹)
eigval :       -0.00     0.00     0.00     0.00     0.00     0.00
eigval :        9.18    13.29    38.87    48.59    50.44    66.35
eigval :       71.46    90.27   111.25   146.47   151.97   166.24
eigval :      199.34   201.22   238.07   240.91   264.93   269.78
eigval :      279.33   372.99   373.43   374.40   380.77   401.67
eigval :      413.28   415.68   427.22   451.13   460.11   470.96
eigval :      485.00   492.37   503.90   506.25   514.10   578.96
eigval :      582.71   590.37   591.37   593.54   622.51   628.06
eigval :      628.58   671.16   672.25   687.95   691.87   696.90
eigval :      707.85   723.06   755.24   762.20   768.26   772.39
eigval :      776.07   828.58   859.46   866.57   867.69   876.29
eigval :      880.39   891.43   900.01   907.27   909.78   911.37
eigval :      912.61   916.48   916.74   921.63   921.65   931.77
eigval :      934.11   942.41   983.25   997.15  1051.31  1067.82
eigval :     1077.59  1092.95  1100.77  1101.45  1111.49  1112.63
eigval :     1125.62  1139.98  1149.97  1172.43  1180.48  1181.31
eigval :     1182.38  1183.38  1183.74  1190.74  1210.37  1227.25
eigval :     1234.11  1254.11  1257.61  1267.04  1269.02  1272.70
eigval :     1291.11  1309.64  1321.36  1327.85  1328.96  1335.37
eigval :     1338.08  1359.87  1408.16  1432.73  1434.97  1440.57
eigval :     1440.75  1453.41  1457.03  1468.34  1485.19  1508.04
eigval :     1562.35  1572.58  1574.90  1581.95  1583.49  1591.88
eigval :     1593.59  1597.34  3070.61  3073.19  3076.82  3079.88
eigval :     3082.16  3082.37  3083.68  3089.57  3089.79  3089.96
eigval :     3090.44  3095.86  3096.47  3097.87  3099.06  3100.90
eigval :     3102.17  3103.01  3109.22

   temp. (K)  partition function   enthalpy   heat capacity  entropy
                                   cal/mol     cal/K/mol   cal/K/mol   J/K/mol
 298.15  VIB  0.113E+11            13518.864     90.032     82.886
         ROT  0.152E+08              888.752      2.981     35.842
         INT  0.171E+18            14407.616     93.013    118.728
         TR   0.802E+28             1481.254      4.968     43.900
         TOT                       15888.8704    97.9811   162.6279   680.4351

       T/K    H(0)-H(T)+PV         H(T)/Eh          T*S/Eh         G(T)/Eh
   ------------------------------------------------------------------------
    298.15    0.253205E-01    0.410764E+00    0.772698E-01    0.333494E+00
   ------------------------------------------------------------------------

         :::::::::::::::::::::::::::::::::::::::::::::::::::::
         ::                  THERMODYNAMIC                  ::
         :::::::::::::::::::::::::::::::::::::::::::::::::::::
         :: total free energy         -80.178442498226 Eh   ::
         ::.................................................::
         :: total energy              -80.511936396927 Eh   ::
         :: zero point energy           0.385443126054 Eh   ::
         :: G(RRHO) w/o ZPVE           -0.051949227353 Eh   ::
         :: G(RRHO) contrib.            0.333493898701 Eh   ::
         :::::::::::::::::::::::::::::::::::::::::::::::::::::

           -------------------------------------------------
          | TOTAL ENERGY              -80.511936396927 Eh   |
          | TOTAL ENTHALPY            -80.101172744184 Eh   |
          | TOTAL FREE ENERGY         -80.178442498226 Eh   |
          | GRADIENT NORM               0.000063183486 Eh/α |
           -------------------------------------------------

 * finished run on 2025/09/04 at 12:47:47.319
