   * xtb version 6.7.1 (edcfbbe) compiled by 'albert@albert-system' on 2024-07-22

   ID    Z sym.   atoms
    1    6 C      1-4, 6-19, 21, 22, 24-32
    2    7 N      5, 20, 23
    3    1 H      33-51

          program call               : xtb data2507/gas/SAIP/SAIP_gas_S0_finalOpt.xtbopt.xyz --gfn 2 --spinpol --tblite --uhf 2 --ohess vtight --parallel 40 --molden --ceasefiles --namespace data2507/gas/SAIP/SAIP_gas_T1_preOpt
 * total energy  :   -80.5079129 Eh     change       -0.1054326E-07 Eh
 * total energy  :   -80.5110260 Eh     change       -0.3113097E-02 Eh
 * total energy  :   -80.5115788 Eh     change       -0.5527533E-03 Eh
 * total energy  :   -80.5117132 Eh     change       -0.1344383E-03 Eh
 * total energy  :   -80.5117951 Eh     change       -0.8186618E-04 Eh
 * total energy  :   -80.5118102 Eh     change       -0.1516273E-04 Eh
 * total energy  :   -80.5118212 Eh     change       -0.1096930E-04 Eh
 * total energy  :   -80.5118291 Eh     change       -0.7909559E-05 Eh
 * total energy  :   -80.5118385 Eh     change       -0.9376159E-05 Eh
 * total energy  :   -80.5118453 Eh     change       -0.6795146E-05 Eh
 * total energy  :   -80.5118800 Eh     change       -0.1621407E-05 Eh
 * total energy  :   -80.5118828 Eh     change       -0.2747550E-05 Eh
 * total energy  :   -80.5118861 Eh     change       -0.3306906E-05 Eh
 * total energy  :   -80.5118891 Eh     change       -0.2961977E-05 Eh
 * total energy  :   -80.5118917 Eh     change       -0.2664986E-05 Eh
 * total energy  :   -80.5118940 Eh     change       -0.2228957E-05 Eh
 * total energy  :   -80.5118953 Eh     change       -0.1391421E-05 Eh
 * total energy  :   -80.5118964 Eh     change       -0.1062544E-05 Eh
 * total energy  :   -80.5118965 Eh     change       -0.4448015E-07 Eh
   *** GEOMETRY OPTIMIZATION CONVERGED AFTER 44 ITERATIONS ***

 final structure:
================
51
 xtb: 6.7.1 (edcfbbe)
C            5.89796048917627       -0.02336921800927        0.55407657633186
C            5.47084226275897        0.07228521168460       -0.76034176284964
C            4.11833341718672        0.09074854346591       -1.05129456193698
C            3.19210831016297        0.01272257320432       -0.01868986477878
N            1.79484960535481        0.02823927529696       -0.29189757324278
C            1.13952225554148        1.24178031226751       -0.37827169975227
C            1.85800225197735        2.44069805891046       -0.39491878888031
C            1.20278153033647        3.64718614929918       -0.52323217833169
C           -0.17827618855772        3.68607701482423       -0.64100813180369
C           -0.89872225401999        2.50725636175601       -0.60527700347533
C           -0.25778955365536        1.28413233480882       -0.47475594903953
C           -1.04806669731648        0.01777061635184       -0.30963142816641
C           -2.42016112651008        0.06136444956428       -0.93544360778165
C           -2.75343718530689        0.16645141874616       -2.26261561974578
C           -4.10255349266035        0.18887302818436       -2.61197377878801
C           -5.08685999318083        0.10627425883147       -1.63489948591629
C           -4.76507501931665       -0.00001157307993       -0.29515328546699
C           -3.41630733010634       -0.02285558468541        0.06192151108492
C           -2.78659174960914       -0.12166850777087        1.33561249843661
N           -3.29087847314011       -0.22482684610069        2.58728869362838
C           -2.43551973453011       -0.30218082413306        3.60158526219044
C           -1.07717306896007       -0.28065388675144        3.42444313332780
N           -0.55271971663501       -0.17684318562975        2.16864648127615
C           -1.39076916482275       -0.10172883499362        1.17729553231797
C           -0.24736336540569       -1.20098967999681       -0.66913421736577
C           -0.87826559059633       -2.39438621243650       -0.98788733327284
C           -0.14832668899422       -3.54807638491841       -1.20267704671228
C            1.23216554529910       -3.51713096089400       -1.07635180486031
C            1.87753601817627       -2.33956451403527       -0.76297991394942
C            1.14952590319375       -1.16288809549782       -0.56469787300417
C            3.61760115822491       -0.08273356650645        1.29876836673467
C            4.97234043430641       -0.10049203655275        1.58140131996368
H            6.95421483533970       -0.03770356397632        0.77708417609284
H            6.19229892923681        0.13260153423788       -1.56146132459999
H            3.77241532922820        0.16481354730554       -2.07197197304091
H            2.93327602530831        2.42021632453355       -0.30370425529691
H            1.77388257676882        4.56352423778127       -0.53228934815077
H           -0.69060701030755        4.62993836144120       -0.74468012149761
H           -1.97626474151304        2.52873259653403       -0.67161685912115
H           -1.98620417881006        0.23064740173128       -3.02102510470302
H           -4.38339474654683        0.27130507750141       -3.65105113250121
H           -6.12628532866302        0.12581920590633       -1.93029915789443
H           -5.52851507265948       -0.06413036668373        0.46436004203929
H           -2.86114829231559       -0.38426828259450        4.59005108620410
H           -0.38291467446785       -0.34312625716139        4.24416819670166
H           -1.95554238987629       -2.41380222977458       -1.05903476287717
H           -0.65287393146443       -4.46876448343885       -1.45138884131130
H            1.81062161486935       -4.41687295332652       -1.22387673077215
H            2.95242878274742       -2.32531383040348       -0.66649840882012
H            2.88119834909595       -0.14219433291271        2.08607751437199
H            5.30576285507531       -0.17492366185919        2.60555606077354

 projected vibrational frequencies (cm⁻¹)
eigval :       -0.00    -0.00    -0.00     0.00     0.00     0.00
eigval :       -1.56     8.76    39.01    48.54    49.83    66.31
eigval :       70.58    88.95   110.64   145.50   149.23   168.02
eigval :      199.44   202.77   240.22   242.04   261.69   271.30
eigval :      274.79   372.91   373.56   375.00   385.55   401.65
eigval :      410.23   415.24   428.98   451.03   456.82   470.66
eigval :      485.25   492.25   504.15   506.86   513.22   579.44
eigval :      582.61   591.29   591.56   592.92   620.82   628.40
eigval :      629.60   671.12   672.19   686.30   692.92   694.85
eigval :      707.71   723.44   755.13   761.57   767.96   771.92
eigval :      776.16   828.37   858.61   865.91   867.03   876.38
eigval :      878.75   891.90   898.59   906.30   909.62   911.49
eigval :      912.57   915.19   916.13   921.46   921.56   930.70
eigval :      934.04   943.32   983.36   996.84  1050.83  1067.75
eigval :     1077.69  1092.92  1102.24  1102.88  1112.39  1112.60
eigval :     1126.55  1140.26  1149.09  1171.73  1180.40  1181.35
eigval :     1182.76  1183.33  1184.09  1189.75  1209.80  1230.50
eigval :     1233.14  1252.02  1257.72  1265.70  1270.85  1272.57
eigval :     1290.12  1309.60  1320.39  1327.14  1328.59  1338.02
eigval :     1338.31  1359.50  1408.02  1432.70  1434.82  1439.34
eigval :     1440.65  1457.02  1457.17  1468.56  1486.40  1507.57
eigval :     1562.32  1572.81  1575.58  1582.74  1583.67  1592.35
eigval :     1593.33  1597.59  3070.65  3073.19  3077.36  3080.74
eigval :     3082.30  3082.42  3084.28  3089.19  3089.24  3090.56
eigval :     3090.65  3096.26  3096.88  3097.44  3098.90  3101.34
eigval :     3102.27  3103.10  3111.22

   temp. (K)  partition function   enthalpy   heat capacity  entropy
                                   cal/mol     cal/K/mol   cal/K/mol   J/K/mol
 298.15  VIB  0.102E+12            13544.204     90.024     85.126
         ROT  0.155E+08              888.752      2.981     35.878
         INT  0.158E+19            14432.957     93.005    121.004
         TR   0.802E+28             1481.254      4.968     43.900
         TOT                       15914.2105    97.9733   164.9039   689.9580

       T/K    H(0)-H(T)+PV         H(T)/Eh          T*S/Eh         G(T)/Eh
   ------------------------------------------------------------------------
    298.15    0.253609E-01    0.410763E+00    0.783512E-01    0.332411E+00
   ------------------------------------------------------------------------

         :::::::::::::::::::::::::::::::::::::::::::::::::::::
         ::                  THERMODYNAMIC                  ::
         :::::::::::::::::::::::::::::::::::::::::::::::::::::
         :: total free energy         -80.179485050044 Eh   ::
         ::.................................................::
         :: total energy              -80.511896458557 Eh   ::
         :: zero point energy           0.385401669478 Eh   ::
         :: G(RRHO) w/o ZPVE           -0.052990260965 Eh   ::
         :: G(RRHO) contrib.            0.332411408513 Eh   ::
         :::::::::::::::::::::::::::::::::::::::::::::::::::::

           -------------------------------------------------
          | TOTAL ENERGY              -80.511896458557 Eh   |
          | TOTAL ENTHALPY            -80.101133880386 Eh   |
          | TOTAL FREE ENERGY         -80.179485050044 Eh   |
          | GRADIENT NORM               0.000084651344 Eh/α |
           -------------------------------------------------

 * finished run on 2025/09/04 at 12:45:29.994
