   * xtb version 6.7.1 (edcfbbe) compiled by 'albert@albert-system' on 2024-07-22

   ID    Z sym.   atoms
    1    6 C      1-4, 6-19, 21, 22, 24-32
    2    7 N      5, 20, 23
    3    1 H      33-51

          program call               : xtb data2507/gas/SAIP/SAIP.xyz --gfn 2 --ohess vtight --parallel 40 --molden --ceasefiles --namespace data2507/gas/SAIP/SAIP_gas_S0_preOpt
          :  Hamiltonian                  GFN2-xTB          :
 * total energy  :   -80.5581764 Eh     change       -0.1569958E-08 Eh
 * total energy  :   -80.5728987 Eh     change       -0.1472233E-01 Eh
 * total energy  :   -80.5770025 Eh     change       -0.4103779E-02 Eh
 * total energy  :   -80.5774610 Eh     change       -0.4585098E-03 Eh
 * total energy  :   -80.5776566 Eh     change       -0.1955811E-03 Eh
 * total energy  :   -80.5776893 Eh     change       -0.3272492E-04 Eh
 * total energy  :   -80.5777020 Eh     change       -0.1265478E-04 Eh
 * total energy  :   -80.5777059 Eh     change       -0.3906226E-05 Eh
 * total energy  :   -80.5777098 Eh     change       -0.3865334E-05 Eh
 * total energy  :   -80.5777137 Eh     change       -0.3947476E-05 Eh
 * total energy  :   -80.5778283 Eh     change       -0.8019448E-06 Eh
 * total energy  :   -80.5778291 Eh     change       -0.7944545E-06 Eh
 * total energy  :   -80.5778299 Eh     change       -0.7828597E-06 Eh
 * total energy  :   -80.5778307 Eh     change       -0.7733452E-06 Eh
 * total energy  :   -80.5778314 Eh     change       -0.7614654E-06 Eh
 * total energy  :   -80.5778322 Eh     change       -0.7555349E-06 Eh
 * total energy  :   -80.5778329 Eh     change       -0.7402146E-06 Eh
 * total energy  :   -80.5778336 Eh     change       -0.7352684E-06 Eh
 * total energy  :   -80.5778337 Eh     change       -0.7530730E-08 Eh
   *** GEOMETRY OPTIMIZATION CONVERGED AFTER 94 ITERATIONS ***

 final structure:
================
51
 xtb: 6.7.1 (edcfbbe)
C            5.90004861936774        0.00006992341653        0.10512895264095
C            5.22858604619893        0.00013007445789       -1.10633299852427
C            3.84527715375080        0.00011361446054       -1.13281224836875
C            3.13220269863434        0.00003686839645        0.05926655304784
N            1.70830152275814        0.00001939926557        0.03638651925793
C            1.03805318868327        1.21033314989537        0.01273320361103
C            1.75177362852645        2.41166282511989       -0.01394478671558
C            1.09426038465491        3.62431352020097       -0.04746383528841
C           -0.28915590117770        3.66903500803179       -0.05925728950832
C           -1.00256208652179        2.48484917969292       -0.03217345409226
C           -0.35830974180431        1.25779037293635        0.00460963690879
C           -1.19193972338714       -0.00001971729062        0.06114143295178
C           -2.25923337952008        0.00000547831683       -1.01661477224196
C           -2.08558211905441        0.00005469374740       -2.38358703280806
C           -3.21239174515974        0.00006766032328       -3.19474473110121
C           -4.48797852683149        0.00003434325713       -2.64771963522728
C           -4.67216560608112       -0.00001413522027       -1.27501483367552
C           -3.54910906516828       -0.00002880329095       -0.46381472703511
C           -3.41788724732965       -0.00007460940757        0.98041658451446
N           -4.36313592080031       -0.00011261706099        1.90638501547182
C           -3.92324523076109       -0.00014857251972        3.16100534254558
C           -2.57307701087928       -0.00014700146462        3.48160004080536
N           -1.61708035583850       -0.00010736826392        2.55243419197559
C           -2.04621889204803       -0.00007156303886        1.31024596411509
C           -0.35827679477207       -1.25780393234937        0.00451938903979
C           -1.00249661968060       -2.48487705563521       -0.03235259148304
C           -0.28905902429770       -3.66904190252299       -0.05952931479500
C            1.09435611815826       -3.62428423168680       -0.04774234736530
C            1.75183728082322       -2.41161866747074       -0.01413406802467
C            1.03808497830293       -1.21031006903284        0.01264205956065
C            3.80434285219999       -0.00002340394614        1.27427126921437
C            5.18802067858533       -0.00000680334607        1.29319908923328
H            6.97961577885018        0.00008173533836        0.12292707691111
H            5.78305632964669        0.00018954284366       -2.03297400775105
H            3.31007641168539        0.00016049276808       -2.07099919234496
H            2.83094926711504        2.38943034999426       -0.00588725775922
H            1.66827067514352        4.53885628444970       -0.06482716221851
H           -0.80809990960477        4.61463725178214       -0.08594807151068
H           -2.08338571846665        2.50836155733380       -0.03910411687782
H           -1.09433757871629        0.00007751656706       -2.81263759940287
H           -3.09423417555813        0.00010503714294       -4.26841962690000
H           -5.34687433117303        0.00004657653856       -3.30262891490024
H           -5.65797898073327       -0.00004038958165       -0.83669404018997
H           -4.68585260791123       -0.00017655475824        3.92757672591071
H           -2.23331085661654       -0.00017309802000        4.50774424897130
H           -2.08331957748595       -2.50841767095600       -0.03928064872281
H           -0.80797810447795       -4.61465582730075       -0.08628925407182
H            1.66839075226207       -4.53881023261180       -0.06518118658265
H            2.83101234269059       -2.38935767214854       -0.00608334347583
H            3.23613651845297       -0.00008317446955        2.19242968552041
H            5.71162260536672       -0.00005438288267        2.23753110675142

          :  Hamiltonian                  GFN2-xTB          :
         :: gradient norm              0.000068475344 Eh/a0 ::
         :: HOMO-LUMO gap              1.827968201150 eV    ::
         :: SCC energy               -82.054058216647 Eh    ::
         :: -> dispersion             -0.075161570039 Eh    ::
         :: repulsion energy           1.476224559129 Eh    ::

    * Orbital Energies and Occupations

         #    Occupation            Energy/Eh            Energy/eV
      -------------------------------------------------------------
         1        2.0000           -0.6766808             -18.4134
       ...           ...                  ...                  ...
        63        2.0000           -0.4280656             -11.6483
        64        2.0000           -0.4224504             -11.4955
        65        2.0000           -0.4191113             -11.4046
        66        2.0000           -0.4163168             -11.3286
        67        2.0000           -0.4131645             -11.2428
        68        2.0000           -0.4128296             -11.2337
        69        2.0000           -0.4075680             -11.0905
        70        2.0000           -0.4049437             -11.0191
        71        2.0000           -0.4005791             -10.9003
        72        2.0000           -0.3944783             -10.7343
        73        2.0000           -0.3907520             -10.6329
        74        2.0000           -0.3546906              -9.6516
        75        2.0000           -0.3442804              -9.3683 (HOMO)
        76                         -0.2771038              -7.5404 (LUMO)
        77                         -0.2545447              -6.9265
        78                         -0.2384383              -6.4882
        79                         -0.2372939              -6.4571
        80                         -0.2311984              -6.2912
        81                         -0.2230425              -6.0693
        82                         -0.2220804              -6.0431
        83                         -0.2191422              -5.9632
        84                         -0.2042667              -5.5584
        85                         -0.1907614              -5.1909
        86                         -0.1297166              -3.5298
       ...                                ...                  ...
       147                          0.7081527              19.2698
      -------------------------------------------------------------
                  HL-Gap            0.0671766 Eh            1.8280 eV

     #   Z          covCN         q      C6AA      α(0)
     1   6 C        2.920    -0.030    28.748     8.793
     2   6 C        2.920    -0.028    28.694     8.784
     3   6 C        2.922    -0.037    28.925     8.820
     4   6 C        2.929     0.069    26.448     8.434
     5   7 N        2.754    -0.066    22.523     7.049
     6   6 C        2.926     0.063    26.584     8.456
     7   6 C        2.924    -0.057    29.412     8.894
     8   6 C        2.920    -0.031    28.779     8.797
     9   6 C        2.918    -0.042    29.051     8.839
    10   6 C        2.926    -0.034    28.854     8.809
    11   6 C        2.984    -0.006    28.174     8.707
    12   6 C        3.947     0.010    20.336     6.408
    13   6 C        3.064     0.002    27.918     8.664
    14   6 C        2.914    -0.030    28.742     8.791
    15   6 C        2.923    -0.027    28.672     8.781
    16   6 C        2.922    -0.030    28.756     8.794
    17   6 C        2.913    -0.026    28.650     8.777
    18   6 C        3.032    -0.006    28.131     8.700
    19   6 C        3.044     0.081    26.164     8.389
    20   7 N        1.836    -0.223    26.702     7.658
    21   6 C        2.925     0.048    26.929     8.510
    22   6 C        2.929     0.047    26.945     8.513
    23   7 N        1.836    -0.224    26.726     7.661
    24   6 C        3.068     0.089    25.966     8.356
    25   6 C        2.984    -0.006    28.174     8.707
    26   6 C        2.926    -0.034    28.854     8.809
    27   6 C        2.918    -0.042    29.051     8.839
    28   6 C        2.920    -0.031    28.779     8.797
    29   6 C        2.924    -0.057    29.412     8.894
    30   6 C        2.926     0.063    26.584     8.456
    31   6 C        2.922    -0.036    28.907     8.817
    32   6 C        2.920    -0.027    28.679     8.782
    33   1 H        0.926     0.038     2.476     2.461
    34   1 H        0.926     0.039     2.468     2.457
    35   1 H        0.926     0.040     2.444     2.445
    36   1 H        0.926     0.028     2.616     2.529
    37   1 H        0.926     0.031     2.571     2.507
    38   1 H        0.926     0.030     2.590     2.517
    39   1 H        0.926     0.024     2.677     2.558
    40   1 H        0.926     0.032     2.562     2.503
    41   1 H        0.926     0.036     2.501     2.473
    42   1 H        0.926     0.037     2.494     2.469
    43   1 H        0.926     0.049     2.333     2.389
    44   1 H        0.925     0.040     2.455     2.450
    45   1 H        0.926     0.039     2.460     2.452
    46   1 H        0.926     0.024     2.677     2.558
    47   1 H        0.926     0.030     2.590     2.517
    48   1 H        0.926     0.031     2.571     2.507
    49   1 H        0.926     0.028     2.616     2.529
    50   1 H        0.926     0.046     2.370     2.407
    51   1 H        0.926     0.040     2.454     2.450

molecular dipole:
                 x           y           z       tot (Debye)
 q only:        0.978       0.000      -0.499
   full:        0.943       0.000      -0.431       2.635

 projected vibrational frequencies (cm⁻¹)
eigval :        0.00     0.00     0.00     0.00     0.00     0.00
eigval :        5.16     6.68    39.70    43.84    45.13    67.75
eigval :       67.96    85.18   110.77   131.91   146.56   169.25
eigval :      198.26   228.64   243.74   249.34   251.12   263.83
eigval :      302.16   373.32   379.60   385.88   388.02   399.33
eigval :      408.77   421.47   422.62   440.59   450.26   463.28
eigval :      497.13   501.74   507.08   513.16   543.36   591.88
eigval :      592.19   595.38   601.63   607.60   616.55   635.11
eigval :      672.13   675.55   676.48   691.50   705.58   726.05
eigval :      760.30   764.78   770.09   778.99   780.83   783.27
eigval :      831.28   864.78   864.96   876.98   883.23   895.44
eigval :      899.74   902.11   906.09   910.25   910.82   913.64
eigval :      915.65   920.36   920.59   929.38   929.56   931.36
eigval :      933.68   949.21   997.42  1024.94  1069.97  1078.03
eigval :     1099.85  1107.52  1108.80  1109.10  1112.87  1126.66
eigval :     1141.93  1162.37  1173.81  1180.70  1183.14  1184.64
eigval :     1185.25  1192.51  1199.86  1214.60  1234.74  1241.59
eigval :     1248.19  1256.63  1268.87  1272.74  1273.65  1290.10
eigval :     1309.29  1320.93  1322.58  1327.87  1337.01  1346.56
eigval :     1369.68  1420.11  1433.07  1438.05  1440.03  1446.80
eigval :     1463.21  1470.40  1484.58  1496.92  1536.87  1573.66
eigval :     1579.46  1583.62  1587.99  1590.08  1591.79  1594.84
eigval :     1601.53  1604.40  3061.16  3070.99  3073.02  3073.36
eigval :     3076.25  3079.53  3080.44  3080.51  3082.63  3082.80
eigval :     3089.76  3091.55  3093.94  3094.12  3094.97  3099.66
eigval :     3100.01  3100.69  3102.80

   temp. (K)  partition function   enthalpy   heat capacity  entropy
                                   cal/mol     cal/K/mol   cal/K/mol   J/K/mol
 298.15  VIB  0.441E+11            13374.557     88.323     83.437
         ROT  0.160E+08              888.752      2.981     35.947
         INT  0.706E+18            14263.310     91.303    119.385
         TR   0.802E+28             1481.254      4.968     43.900
         TOT                       15744.5637    96.2716   163.2847   683.1833

       T/K    H(0)-H(T)+PV         H(T)/Eh          T*S/Eh         G(T)/Eh
   ------------------------------------------------------------------------
    298.15    0.250906E-01    0.413535E+00    0.775818E-01    0.335954E+00
   ------------------------------------------------------------------------

         :::::::::::::::::::::::::::::::::::::::::::::::::::::
         ::                  THERMODYNAMIC                  ::
         :::::::::::::::::::::::::::::::::::::::::::::::::::::
         :: total free energy         -80.241880044460 Eh   ::
         ::.................................................::
         :: total energy              -80.577833657518 Eh   ::
         :: zero point energy           0.388444900263 Eh   ::
         :: G(RRHO) w/o ZPVE           -0.052491287206 Eh   ::
         :: G(RRHO) contrib.            0.335953613057 Eh   ::
         :::::::::::::::::::::::::::::::::::::::::::::::::::::

           -------------------------------------------------
          | TOTAL ENERGY              -80.577833657518 Eh   |
          | TOTAL ENTHALPY            -80.164298197926 Eh   |
          | TOTAL FREE ENERGY         -80.241880044460 Eh   |
          | GRADIENT NORM               0.000068475074 Eh/α |
          | HOMO-LUMO GAP               1.827968261558 eV   |
           -------------------------------------------------

 * finished run on 2025/09/04 at 12:43:27.357
