   * xtb version 6.7.1 (edcfbbe) compiled by 'albert@albert-system' on 2024-07-22

   ID    Z sym.   atoms
    1    6 C      1-8, 10-25, 27-40, 42-48, 50-56, 58-62
    2    7 N      9, 26, 41, 49, 57
    3    1 H      63-101

          program call               : xtb data2507/gas/CzTPA-m-Trz/CzTPA-m-Trz_gas_S0_finalOpt.xtbopt.xyz --gfn 2 --spinpol --tblite --uhf 2 --ohess vtight --parallel 40 --molden --ceasefiles --namespace data2507/gas/CzTPA-m-Trz/CzTPA-m-Trz_gas_T1_preOpt
 * total energy  :  -156.5367146 Eh     change       -0.2720532E-07 Eh
 * total energy  :  -156.5391369 Eh     change       -0.2422304E-02 Eh
 * total energy  :  -156.5406130 Eh     change       -0.1476085E-02 Eh
 * total energy  :  -156.5408152 Eh     change       -0.2022381E-03 Eh
 * total energy  :  -156.5409780 Eh     change       -0.1627535E-03 Eh
 * total energy  :  -156.5410088 Eh     change       -0.3081033E-04 Eh
 * total energy  :  -156.5410415 Eh     change       -0.3271804E-04 Eh
 * total energy  :  -156.5410520 Eh     change       -0.1050572E-04 Eh
 * total energy  :  -156.5410694 Eh     change       -0.1742056E-04 Eh
 * total energy  :  -156.5410824 Eh     change       -0.1295256E-04 Eh
 * total energy  :  -156.5413301 Eh     change        0.1840317E-07 Eh
 * total energy  :  -156.5413302 Eh     change       -0.1385941E-06 Eh
 * total energy  :  -156.5413303 Eh     change       -0.1001582E-06 Eh
 * total energy  :  -156.5413308 Eh     change       -0.4356498E-06 Eh
 * total energy  :  -156.5413309 Eh     change       -0.1441414E-06 Eh
 * total energy  :  -156.5413311 Eh     change       -0.1515652E-06 Eh
 * total energy  :  -156.5413313 Eh     change       -0.1733934E-06 Eh
 * total energy  :  -156.5413314 Eh     change       -0.1438026E-06 Eh
 * total energy  :  -156.5413315 Eh     change       -0.8743376E-07 Eh
   *** GEOMETRY OPTIMIZATION CONVERGED AFTER 76 ITERATIONS ***

 final structure:
================
101
 xtb: 6.7.1 (edcfbbe)
C           -9.18239105745726        6.93484913301177       -1.28772764419180
C           -8.82822453324714        5.96863391534223       -2.21465136716419
C           -7.88276175987004        5.01225990698412       -1.89603540507630
C           -7.26902441684045        5.00951021206926       -0.64455841565807
C           -6.26246903866260        3.99643476516765       -0.30557660196596
C           -6.42177830810796        2.66730969120544       -0.69929990384660
C           -5.48302557731251        1.71115435553444       -0.37994110214485
C           -4.34102565199596        2.05748708146686        0.34819413007004
N           -3.38759011828404        1.10602053828863        0.68446103465127
C           -2.03021552679081        1.44051245277046        0.70544706908569
C           -1.48251973614695        2.27503722543637       -0.27045821132279
C           -0.12127620293967        2.48687101266183       -0.31720603893012
C            0.73320076010285        1.89263230933862        0.61187223604499
C            2.18857521544625        2.03542254184118        0.50486103657810
C            2.97337244169117        2.21291552441988        1.65362683450507
C            4.34830850417760        2.29740571959760        1.59505703650790
C            4.95789692924354        2.17233350481921        0.35353008890990
C            4.18301711332268        2.01633004120387       -0.81985194400688
C            2.80110102917319        1.95645613643076       -0.74111256344140
C            5.11045378265667        1.94337855354780       -1.91430457189476
C            4.95998920071940        1.76221186765273       -3.28248174204724
C            6.09303540283495        1.71080472783122       -4.06966013690964
C            7.36243806747555        1.82336542361377       -3.50681950902201
C            7.53705382577334        2.00120251226204       -2.14750307400871
C            6.40153696585097        2.07477355755370       -1.35391140572860
N            6.29282096293937        2.21380604751285        0.01660853424581
C            7.36172210357231        2.36058493585256        0.91315795955204
C            7.45585165374888        1.53506145953919        2.02957486249156
C            8.50852048865752        1.68800340094911        2.91275844700915
C            9.47617177904689        2.65270950261026        2.68641599523474
C            9.38621211956494        3.47104715233253        1.57259451784950
C            8.33198303538453        3.33269070579930        0.68893114848744
C            0.17079612108221        1.11107546790933        1.62262493738853
C           -1.18613601203197        0.88376202946602        1.66962763732567
C           -3.73478435784182       -0.23682464299743        0.89491395957807
C           -4.94515959178409       -0.58541771080982        1.51088339417601
C           -5.24520741539313       -1.92896851469529        1.69940769043282
C           -4.36572613169228       -2.92116141497118        1.32869497343647
C           -3.12742895335462       -2.58343447282167        0.74407707719139
C           -2.13974239527866       -3.54934327232314        0.40876432049324
N           -2.38554770768489       -4.87503003269852        0.50033788352048
C           -1.43146583372688       -5.71426289937274        0.19685782164903
C           -1.68594192514730       -7.14297817173703        0.27319097022379
C           -0.67042102493945       -8.05609573100704       -0.01861336009551
C           -0.91526225758857       -9.41242833879422        0.05223656716099
C           -2.17081578830772       -9.87711286541441        0.41353981711582
C           -3.18462309295600       -8.97526432355360        0.70510889799897
C           -2.94812318210695       -7.61824645742860        0.63655254282652
N           -0.19749186575763       -5.30396183751333       -0.18913208993649
C            0.01908196429752       -3.97454210896864       -0.24173443813472
C            1.34776767527060       -3.49110174048208       -0.59965639904134
C            1.64881503021134       -2.13102353411533       -0.50354852895861
C            2.90931546700259       -1.67475752629125       -0.83063420828099
C            3.88294220705264       -2.56420895783209       -1.26174890960490
C            3.59052771685909       -3.91605751180010       -1.35923921473081
C            2.33289247667035       -4.38086024386515       -1.02825115243821
N           -0.91137127784573       -3.10213202586817        0.02761380399613
C           -2.85228882845793       -1.22825571131806        0.50451339852137
C           -4.17168562972850        3.38973850149294        0.73823830430181
C           -5.11874582407893        4.33687186485878        0.41800062210602
C           -7.63124040177980        5.98880970034464        0.27883887954827
C           -8.58172353577386        6.94019048884884       -0.03979691812134
H           -9.92319239137982        7.68011842226129       -1.53667702715320
H           -9.29012508239646        5.96208935201881       -3.19126630621789
H           -7.59822645725732        4.27277501986201       -2.63040199939583
H           -7.30272539478653        2.37866742695852       -1.25319137595057
H           -5.61622922467551        0.68959305644969       -0.70270496539146
H           -2.12848593435246        2.72082968356423       -1.01282769123373
H            0.29036419429455        3.11945224072990       -1.08973645686944
H            2.48108804503610        2.31113288375758        2.60972616190241
H            4.93015873672306        2.46145588119652        2.48944331361227
H            2.21057383718350        1.81476271373172       -1.63384676700118
H            3.97677390001190        1.65663235496255       -3.71539448879411
H            5.99943648077966        1.57158035732952       -5.13626196062869
H            8.23055920474725        1.76493596405208       -4.14659510376367
H            8.52554496973795        2.06751924212266       -1.71861309370471
H            6.71172710129463        0.76913033938324        2.18974576806580
H            8.57771019336900        1.04471603128888        3.77736213840940
H           10.29871297863616        2.76631896851927        3.37613494119946
H           10.13657924594159        4.22699058770031        1.39458602069669
H            8.24601895683563        3.98259092610216       -0.16916267444132
H            0.81270907494344        0.64581904176953        2.35556599381959
H           -1.60646993308265        0.25458690387318        2.43973191198352
H           -5.62238275252158        0.18354519928855        1.84935043976999
H           -6.18326891011269       -2.19294927990758        2.16649325908597
H           -4.59702405476578       -3.96173768310850        1.49074593775728
H            0.30186378388217       -7.67946502368908       -0.29710797104309
H           -0.12595078460926      -10.11479102163140       -0.17461492676083
H           -2.35979780814392      -10.93934405990272        0.46785537413576
H           -4.16279625205773       -9.33835249130452        0.98624154165319
H           -3.72605237116689       -6.90406664072595        0.85850758523885
H            0.88394856069867       -1.44863821777923       -0.16418915668198
H            3.13903107906300       -0.62247998576419       -0.74870948257092
H            4.86722941155832       -2.20115837418776       -1.52057325375529
H            4.34921608938517       -4.60875105320906       -1.69423806384065
H            2.09119205118804       -5.43037404740409       -1.09807377679806
H           -1.93266247757323       -0.97911182812557       -0.00067917387103
H           -3.29512631636792        3.66788143696406        1.30508288039372
H           -4.96578424416104        5.36224843014996        0.72052252482621
H           -7.18045990603760        5.98771056843011        1.26065990950889
H           -8.85743596677790        7.68846314334912        0.68910459695198

 projected vibrational frequencies (cm⁻¹)
eigval :       -0.00    -0.00    -0.00     0.00     0.00     0.00
eigval :       -4.68     7.28     9.61    10.37    16.17    22.25
eigval :       24.16    31.03    32.77    38.90    40.21    42.03
eigval :       56.76    58.69    60.69    62.43    68.42    76.84
eigval :       86.36    87.99    96.63   103.23   109.33   116.05
eigval :      118.89   141.94   147.60   162.84   178.39   184.68
eigval :      190.41   207.27   218.56   222.20   228.24   231.49
eigval :      243.42   245.70   258.48   267.49   280.11   289.64
eigval :      312.89   325.53   335.92   358.30   365.89   367.13
eigval :      369.28   372.12   373.84   376.12   379.28   382.46
eigval :      385.84   392.81   394.95   398.38   405.72   411.77
eigval :      418.25   427.62   433.68   456.95   464.78   480.32
eigval :      488.59   514.19   517.41   533.49   535.90   539.34
eigval :      547.64   547.95   555.89   578.65   580.86   586.98
eigval :      587.52   588.35   590.26   592.78   598.54   601.14
eigval :      604.40   611.43   614.42   616.70   633.33   639.41
eigval :      654.15   655.47   662.75   663.15   666.23   672.05
eigval :      677.44   678.66   686.05   691.89   700.12   708.59
eigval :      730.36   750.40   754.93   759.17   762.32   762.96
eigval :      768.19   773.00   800.81   807.62   809.58   822.08
eigval :      826.92   835.52   838.73   858.14   863.37   865.59
eigval :      867.59   868.15   872.72   875.89   878.21   881.77
eigval :      895.12   896.79   899.47   900.75   900.96   904.65
eigval :      910.70   910.91   915.06   916.98   920.16   921.41
eigval :      923.39   924.14   924.54   925.06   926.21   929.60
eigval :      930.12   930.71   931.59   931.79   932.85   939.80
eigval :      963.53   968.00   983.13   987.25   989.55   998.12
eigval :     1006.68  1017.05  1026.75  1070.15  1070.85  1073.12
eigval :     1073.57  1074.67  1076.95  1079.46  1086.58  1107.57
eigval :     1108.92  1114.20  1116.18  1120.33  1122.70  1133.59
eigval :     1138.62  1141.80  1153.66  1154.63  1173.25  1175.34
eigval :     1176.69  1177.08  1177.21  1178.65  1179.27  1180.73
eigval :     1180.82  1188.96  1189.49  1195.83  1199.17  1205.01
eigval :     1221.57  1237.51  1243.92  1259.60  1260.89  1266.66
eigval :     1266.89  1268.12  1272.45  1272.70  1279.60  1283.59
eigval :     1286.74  1289.13  1296.57  1314.26  1317.83  1318.62
eigval :     1319.35  1324.31  1327.14  1329.86  1332.92  1350.15
eigval :     1354.07  1360.86  1370.04  1371.42  1393.87  1407.02
eigval :     1412.10  1417.24  1420.94  1426.27  1431.47  1434.27
eigval :     1436.56  1436.77  1438.71  1458.38  1460.99  1463.93
eigval :     1471.33  1480.44  1481.82  1484.11  1494.31  1494.74
eigval :     1501.95  1542.61  1548.10  1549.71  1564.73  1568.94
eigval :     1572.15  1576.91  1580.53  1582.85  1583.48  1584.59
eigval :     1586.56  1593.40  1595.60  1598.03  1600.99  1613.40
eigval :     3068.78  3069.12  3070.85  3072.08  3073.04  3073.28
eigval :     3077.22  3077.54  3078.47  3078.75  3079.26  3079.91
eigval :     3080.42  3081.00  3082.57  3083.25  3085.01  3085.28
eigval :     3085.42  3085.88  3087.08  3089.13  3089.78  3090.55
eigval :     3091.41  3091.93  3092.45  3092.68  3093.27  3095.45
eigval :     3096.37  3096.69  3096.86  3097.40  3099.03  3099.16
eigval :     3100.24  3105.74  3108.33

   temp. (K)  partition function   enthalpy   heat capacity  entropy
                                   cal/mol     cal/K/mol   cal/K/mol   J/K/mol
 298.15  VIB  0.368E+26            29937.008    184.698    190.455
         ROT  0.256E+09              888.752      2.981     41.452
         INT  0.939E+34            30825.760    187.679    231.907
         TR   0.216E+29             1481.254      4.968     45.873
         TOT                       32307.0141   192.6467   277.7798  1162.2305

       T/K    H(0)-H(T)+PV         H(T)/Eh          T*S/Eh         G(T)/Eh
   ------------------------------------------------------------------------
    298.15    0.514845E-01    0.823033E+00    0.131982E+00    0.691051E+00
   ------------------------------------------------------------------------

         :::::::::::::::::::::::::::::::::::::::::::::::::::::
         ::                  THERMODYNAMIC                  ::
         :::::::::::::::::::::::::::::::::::::::::::::::::::::
         :: total free energy        -155.850280103300 Eh   ::
         ::.................................................::
         :: total energy             -156.541331469585 Eh   ::
         :: zero point energy           0.771548987961 Eh   ::
         :: G(RRHO) w/o ZPVE           -0.080497621677 Eh   ::
         :: G(RRHO) contrib.            0.691051366285 Eh   ::
         :::::::::::::::::::::::::::::::::::::::::::::::::::::

           -------------------------------------------------
          | TOTAL ENERGY             -156.541331469585 Eh   |
          | TOTAL ENTHALPY           -155.718297977598 Eh   |
          | TOTAL FREE ENERGY        -155.850280103300 Eh   |
          | GRADIENT NORM               0.000103652368 Eh/α |
           -------------------------------------------------

 * finished run on 2025/09/07 at 05:41:48.357
