   * xtb version 6.7.1 (edcfbbe) compiled by 'albert@albert-system' on 2024-07-22

   ID    Z sym.   atoms
    1    6 C      1-8, 10-25, 27-40, 42-48, 50-56, 58-62
    2    7 N      9, 26, 41, 49, 57
    3    1 H      63-101

          program call               : xtb data2507/gas/CzTPA-m-Trz/CzTPA-m-Trz_gas_T1_crest.xyz --gfn 2 --spinpol --tblite --uhf 2 --ohess vtight --parallel 40 --molden --ceasefiles --namespace data2507/gas/CzTPA-m-Trz/CzTPA-m-Trz_gas_T1_finalOpt
 * total energy  :  -156.5417417 Eh     change       -0.3289901E-07 Eh
 * total energy  :  -156.5418124 Eh     change       -0.7070291E-04 Eh
 * total energy  :  -156.5418385 Eh     change       -0.2612359E-04 Eh
 * total energy  :  -156.5418410 Eh     change       -0.2462488E-05 Eh
 * total energy  :  -156.5418448 Eh     change       -0.3825310E-05 Eh
 * total energy  :  -156.5418478 Eh     change       -0.3003450E-05 Eh
 * total energy  :  -156.5418513 Eh     change       -0.3482117E-05 Eh
 * total energy  :  -156.5418548 Eh     change       -0.3461973E-05 Eh
 * total energy  :  -156.5418579 Eh     change       -0.3169495E-05 Eh
 * total energy  :  -156.5418614 Eh     change       -0.3457265E-05 Eh
 * total energy  :  -156.5420225 Eh     change       -0.1070612E-05 Eh
 * total energy  :  -156.5420237 Eh     change       -0.1217218E-05 Eh
 * total energy  :  -156.5420244 Eh     change       -0.6863178E-06 Eh
 * total energy  :  -156.5420251 Eh     change       -0.7321576E-06 Eh
 * total energy  :  -156.5420257 Eh     change       -0.5992595E-06 Eh
 * total energy  :  -156.5420264 Eh     change       -0.6578434E-06 Eh
 * total energy  :  -156.5420272 Eh     change       -0.8996733E-06 Eh
 * total energy  :  -156.5420283 Eh     change       -0.1069156E-05 Eh
 * total energy  :  -156.5420283 Eh     change       -0.5845607E-08 Eh
   *** GEOMETRY OPTIMIZATION CONVERGED AFTER 94 ITERATIONS ***

 final structure:
================
101
 xtb: 6.7.1 (edcfbbe)
C           -7.99263336802953        8.15946431488850       -1.07586548791658
C           -8.57981878476681        6.94961758167997       -0.74454581360351
C           -7.79344475267280        5.84808075977459       -0.46493707147330
C           -6.40306467988647        5.93916486502395       -0.50581982286879
C           -5.56700099847066        4.77138527175515       -0.20585825410415
C           -5.92275482399838        3.49938730309099       -0.65672892764676
C           -5.13917299618008        2.40041404069013       -0.38261173233709
C           -3.96849150462496        2.53679345295886        0.36932953831378
N           -3.17494900824651        1.43687553729853        0.66450511669186
C           -1.78550856202533        1.55769229239917        0.72316172535024
C           -1.09458450789618        2.36983435661905       -0.17845593573647
C            0.28332686830759        2.37948592935442       -0.18908156593428
C            1.01966057478289        1.58583641974604        0.69262435664066
C            2.47988981433494        1.51737863075890        0.60111618790598
C            3.12602503451561        0.28732065548777        0.80437015825690
C            4.48959183411176        0.14413499592468        0.66615191984383
C            5.23155138929261        1.26570882112259        0.31993104516779
C            4.60653899883376        2.52484593537454        0.15788154376292
C            3.23278964118078        2.64418155510772        0.28742000668407
C            5.65457041123141        3.46310748376938       -0.13559376210257
C            5.66913449330339        4.82511794493048       -0.40349870793887
C            6.87850355754832        5.43189336752943       -0.67879052478334
C            8.06002213498696        4.69463141455347       -0.70506415434731
C            8.07070304808354        3.33785793131955       -0.44232291294178
C            6.86217190096838        2.72761061916880       -0.13981102591357
N            6.58971145159040        1.40146670935895        0.13681919818654
C            7.52854878445920        0.36088087760478        0.19307614227056
C            7.31276233479811       -0.81069414857812       -0.52702418653713
C            8.23612582297589       -1.83754822274529       -0.46598385720759
C            9.38188529552065       -1.70202305978090        0.30038129457471
C            9.59983986731978       -0.53491195811973        1.01341241978074
C            8.67680390857236        0.49356064107144        0.96773218811628
C            0.31990795686731        0.82320277247655        1.63118383366842
C           -1.05541785378215        0.81009150413323        1.65167435677739
C           -3.72951020585087        0.15597350554868        0.81259931314317
C           -4.97846607839352       -0.02427835600082        1.42311359773460
C           -5.48298193349871       -1.31134868800617        1.56176470169661
C           -4.76854388288023       -2.41123380613936        1.14384677142586
C           -3.49670112960139       -2.24679460740617        0.55630662467718
C           -2.67982380944157       -3.34636954156290        0.17443980443117
N           -3.13438702483562       -4.62154741158974        0.27299608112072
C           -2.32814125276095       -5.59763667300459       -0.04804952780504
C           -2.80590508046735       -6.97118746018748        0.03878077176923
C           -1.95825004124813       -8.03275695823796       -0.27993210159560
C           -2.41457427665038       -9.33317973475230       -0.19917371233565
C           -3.71734296282474       -9.59151030275973        0.19860224944710
C           -4.56531225183803       -8.54033405893171        0.51664211965013
C           -4.11615971199211       -7.23816104727732        0.43849506193418
N           -1.05990501154166       -5.38940683053770       -0.45944731247523
C           -0.63956830493070       -4.10419804355318       -0.54055126567958
C            0.73021924407202       -3.84234320018275       -0.95456078924733
C            1.59679190050025       -4.90027985482026       -1.23739908426338
C            2.89904170953112       -4.64843552729663       -1.61901114032647
C            3.35411429117045       -3.34318949362916       -1.73015227107772
C            2.49770124496645       -2.28610450720383       -1.45603654276116
C            1.19716204372644       -2.53003335060862       -1.06601862289562
N           -1.41638821668635       -3.09748241422298       -0.24905392813242
C           -3.01425636635379       -0.94232095592126        0.36932291823519
C           -3.60800646238628        3.80849405734570        0.82603754309089
C           -4.39276212467777        4.90249711921048        0.53712476511285
C           -5.82358722581415        7.16281871705943       -0.83761906214999
C           -6.61217621816903        8.26130800710673       -1.12282656027453
H           -8.60797964877611        9.01900538677530       -1.29656559864877
H           -9.65603393751540        6.86542623019486       -0.70205005363763
H           -8.25786199511410        4.91243919810269       -0.18942429070394
H           -6.81078599339585        3.37829299243758       -1.25911313787387
H           -5.41382880441659        1.42795595662585       -0.76268751954445
H           -1.64777017791378        2.95359189863365       -0.89977514379425
H            0.79989415430941        2.97209317418395       -0.92936073089144
H            2.53298344416493       -0.58202398090408        1.04410765617823
H            4.95986434586520       -0.81427804911671        0.82524193014111
H            2.75850377377557        3.60679535766215        0.17014307006122
H            4.75110501749662        5.39318316718416       -0.39870804753473
H            6.91276049261910        6.49094531545351       -0.88648060477734
H            8.98862216582799        5.19364948256791       -0.93957299398650
H            8.98922444813836        2.77226297473899       -0.48368268028038
H            6.42902672365683       -0.90284807186422       -1.14055756101170
H            8.06418573307585       -2.74484682671238       -1.02576937679828
H           10.10292500393604       -2.50420021010542        0.34220606689732
H           10.48955552529062       -0.42723720606240        1.61590523291859
H            8.83151138741530        1.39542763323458        1.54099267145964
H            0.86468970614272        0.24230304320980        2.35972039837069
H           -1.58298903111638        0.20978615468608        2.37750301657595
H           -5.52609185575250        0.82682002041306        1.79761368846122
H           -6.44872496989240       -1.44599009776588        2.02760181936816
H           -5.15681367512896       -3.40932621577603        1.26855252378893
H           -0.94718357415373       -7.81565381894023       -0.58859287388244
H           -1.75465722926184      -10.15214632195759       -0.44706038652289
H           -4.07218514835545      -10.61000009069613        0.26045033693586
H           -5.58067202110286       -8.74278135193580        0.82584417447993
H           -4.76288661652823       -6.40904162577443        0.68085043206936
H            1.22844043661150       -5.91079124294604       -1.14959413954476
H            3.56562163782559       -5.47151265682328       -1.83365576709667
H            4.37333670333884       -3.14992768853762       -2.03254439814519
H            2.84979216123335       -1.26819171770116       -1.54576343140457
H            0.52371885089552       -1.71606702944815       -0.84334737451768
H           -2.06743895019347       -0.81663955374181       -0.13130794889146
H           -2.71573627243335        3.92245582677256        1.42422451585968
H           -4.11072365249553        5.87222229112945        0.91967157735440
H           -4.74783081591482        7.24476313976827       -0.89430168799562
H           -6.14861203241081        9.20124638323922       -1.38523988531004

 projected vibrational frequencies (cm⁻¹)
eigval :       -0.00    -0.00     0.00     0.00     0.00     0.00
eigval :        5.79     9.69    10.92    12.52    14.93    24.65
eigval :       26.66    31.76    32.85    38.28    46.70    54.85
eigval :       56.27    60.13    63.83    67.57    69.33    73.39
eigval :       82.00    93.92   101.68   104.21   107.67   113.73
eigval :      124.56   138.36   154.06   168.10   178.44   185.05
eigval :      192.36   206.04   218.61   220.68   224.61   233.47
eigval :      244.79   256.32   258.91   266.03   281.45   294.30
eigval :      304.21   323.13   346.67   358.38   366.80   370.15
eigval :      371.37   371.77   377.47   380.66   381.61   384.45
eigval :      387.21   389.12   396.09   398.65   410.92   413.62
eigval :      421.13   428.51   431.10   448.04   470.20   477.96
eigval :      490.03   510.00   524.82   532.64   537.04   540.53
eigval :      547.03   548.63   554.10   578.41   584.26   586.22
eigval :      588.13   588.45   590.42   593.23   596.29   602.21
eigval :      602.57   611.69   613.67   617.66   633.91   636.96
eigval :      648.07   654.97   661.74   662.79   668.05   672.67
eigval :      677.39   679.90   687.87   694.32   699.46   709.09
eigval :      729.67   751.88   756.65   761.04   762.71   763.56
eigval :      767.97   775.61   801.18   804.78   814.03   823.17
eigval :      830.38   836.27   839.66   858.24   862.94   866.93
eigval :      869.56   871.06   873.31   875.34   877.28   883.09
eigval :      896.15   897.77   899.75   900.73   902.50   907.13
eigval :      910.62   914.42   917.93   919.96   921.19   922.55
eigval :      925.08   925.17   926.12   926.43   928.52   930.19
eigval :      931.75   932.20   932.56   933.60   935.05   940.53
eigval :      962.00   967.78   983.09   988.57   989.45   998.24
eigval :     1006.68  1017.41  1026.83  1069.61  1070.91  1072.68
eigval :     1073.91  1074.97  1077.00  1080.78  1087.67  1108.13
eigval :     1110.15  1115.03  1118.57  1122.25  1123.90  1134.48
eigval :     1141.74  1143.63  1154.35  1159.07  1173.17  1177.59
eigval :     1178.30  1180.09  1180.60  1181.16  1182.22  1182.97
eigval :     1183.79  1191.63  1192.62  1198.85  1202.60  1208.26
eigval :     1223.29  1238.40  1245.56  1259.04  1261.97  1268.49
eigval :     1268.82  1269.83  1273.76  1275.38  1281.75  1284.49
eigval :     1287.91  1288.71  1298.22  1315.02  1317.93  1318.98
eigval :     1319.64  1325.02  1327.52  1331.33  1332.49  1349.37
eigval :     1354.26  1360.58  1368.51  1370.96  1396.56  1407.67
eigval :     1411.12  1413.75  1421.67  1426.70  1431.69  1434.62
eigval :     1436.36  1437.06  1439.47  1458.77  1461.24  1464.40
eigval :     1468.85  1480.60  1481.72  1483.62  1494.91  1495.41
eigval :     1502.44  1541.56  1546.79  1549.80  1563.01  1567.36
eigval :     1572.83  1574.23  1580.46  1582.71  1583.18  1584.55
eigval :     1586.38  1593.63  1595.53  1598.11  1601.18  1613.11
eigval :     3066.77  3070.39  3072.31  3072.94  3073.06  3073.71
eigval :     3075.27  3078.09  3078.59  3080.06  3080.36  3081.81
eigval :     3082.10  3082.56  3083.08  3084.19  3086.03  3086.49
eigval :     3086.60  3087.93  3088.10  3090.33  3091.35  3091.68
eigval :     3092.52  3092.69  3093.62  3093.66  3094.77  3096.54
eigval :     3097.11  3097.84  3098.09  3099.93  3100.34  3100.58
eigval :     3100.84  3106.45  3108.48

   temp. (K)  partition function   enthalpy   heat capacity  entropy
                                   cal/mol     cal/K/mol   cal/K/mol   J/K/mol
 298.15  VIB  0.791E+25            29830.123    185.011    188.981
         ROT  0.261E+09              888.752      2.981     41.494
         INT  0.207E+34            30718.875    187.992    230.474
         TR   0.216E+29             1481.254      4.968     45.873
         TOT                       32200.1290   192.9597   276.3471  1156.2364

       T/K    H(0)-H(T)+PV         H(T)/Eh          T*S/Eh         G(T)/Eh
   ------------------------------------------------------------------------
    298.15    0.513142E-01    0.823450E+00    0.131301E+00    0.692148E+00
   ------------------------------------------------------------------------

         :::::::::::::::::::::::::::::::::::::::::::::::::::::
         ::                  THERMODYNAMIC                  ::
         :::::::::::::::::::::::::::::::::::::::::::::::::::::
         :: total free energy        -155.849879919661 Eh   ::
         ::.................................................::
         :: total energy             -156.542028324886 Eh   ::
         :: zero point energy           0.772135669592 Eh   ::
         :: G(RRHO) w/o ZPVE           -0.079987264367 Eh   ::
         :: G(RRHO) contrib.            0.692148405225 Eh   ::
         :::::::::::::::::::::::::::::::::::::::::::::::::::::

           -------------------------------------------------
          | TOTAL ENERGY             -156.542028324886 Eh   |
          | TOTAL ENTHALPY           -155.718578483427 Eh   |
          | TOTAL FREE ENERGY        -155.849879919661 Eh   |
          | GRADIENT NORM               0.000072964129 Eh/α |
           -------------------------------------------------

 * finished run on 2025/09/07 at 05:57:35.515
