   * xtb version 6.7.1 (edcfbbe) compiled by 'albert@albert-system' on 2024-07-22

   ID    Z sym.   atoms
    1    6 C      1-8, 10-25, 27-40, 42-48, 50-56, 58-62
    2    7 N      9, 26, 41, 49, 57
    3    1 H      63-101

          program call               : xtb data2507/gas/CzTPA-m-Trz/CzTPA-m-Trz.xyz --gfn 2 --ohess vtight --parallel 40 --molden --ceasefiles --namespace data2507/gas/CzTPA-m-Trz/CzTPA-m-Trz_gas_S0_preOpt
          :  Hamiltonian                  GFN2-xTB          :
 * total energy  :  -156.5852674 Eh     change       -0.1666166E-08 Eh
 * total energy  :  -156.6006625 Eh     change       -0.1539516E-01 Eh
 * total energy  :  -156.6061066 Eh     change       -0.5444018E-02 Eh
 * total energy  :  -156.6084709 Eh     change       -0.2364384E-02 Eh
 * total energy  :  -156.6100083 Eh     change       -0.1537385E-02 Eh
 * total energy  :  -156.6106728 Eh     change       -0.6644889E-03 Eh
 * total energy  :  -156.6109822 Eh     change       -0.3094330E-03 Eh
 * total energy  :  -156.6111881 Eh     change       -0.2058435E-03 Eh
 * total energy  :  -156.6113427 Eh     change       -0.1546629E-03 Eh
 * total energy  :  -156.6114887 Eh     change       -0.1459133E-03 Eh
 * total energy  :  -156.6144451 Eh     change       -0.2210453E-06 Eh
 * total energy  :  -156.6144452 Eh     change       -0.1461464E-06 Eh
 * total energy  :  -156.6144454 Eh     change       -0.1792188E-06 Eh
 * total energy  :  -156.6144456 Eh     change       -0.2557419E-06 Eh
 * total energy  :  -156.6144459 Eh     change       -0.2852369E-06 Eh
 * total energy  :  -156.6144462 Eh     change       -0.2967620E-06 Eh
 * total energy  :  -156.6144465 Eh     change       -0.2740449E-06 Eh
 * total energy  :  -156.6144467 Eh     change       -0.2414878E-06 Eh
 * total energy  :  -156.6144467 Eh     change       -0.1809013E-08 Eh
   *** GEOMETRY OPTIMIZATION CONVERGED AFTER 122 ITERATIONS ***

 final structure:
================
101
 xtb: 6.7.1 (edcfbbe)
C           -4.94089199670321        7.12172914320457        0.49781831286266
C           -4.49726594950586        6.49824687366861       -0.65661118281914
C           -3.73250450320182        5.34931842823406       -0.57646206779091
C           -3.40181890882808        4.80083926101156        0.66157410871894
C           -2.61792480732582        3.56072693204688        0.73844821221655
C           -1.53574876985104        3.33868418533908       -0.11067388308497
C           -0.84462882147170        2.14441361749601       -0.08684660969392
C           -1.22402207887345        1.13023691125194        0.79011533818860
N           -0.59452984713203       -0.12454706877438        0.75783824497351
C            0.78775124302500       -0.20159858894963        0.56309868176593
C            1.63008155857136        0.73551192903015        1.16140225858877
C            2.99403067673259        0.67072109189173        0.97167013056031
C            3.56521901798368       -0.32685973695831        0.18292942507570
C            5.01995503984483       -0.39192045845529       -0.01045521172668
C            5.54914601541516       -0.70904845795599       -1.26943343647294
C            6.90765824775981       -0.77250047392719       -1.50011069752948
C            7.76222460834249       -0.50816945215335       -0.43919175512176
C            7.24950752241385       -0.21260367387958        0.84470573235622
C            5.88074247138730       -0.14822596885458        1.05237381667984
C            8.38524723481780       -0.04597690863812        1.70818952979999
C            8.52408923498072        0.26713805224461        3.05372565315900
C            9.79578506160286        0.37763490186028        3.57926286182337
C           10.92029280193894        0.19527982190511        2.77733347306178
C           10.80770136526533       -0.11694015465476        1.43604246040635
C            9.53206332729049       -0.25343498481579        0.90763706579625
N            9.14103743796625       -0.53139216482404       -0.38746302325484
C            9.99792672020895       -0.79235839445422       -1.46570164822875
C            9.84405203226492       -0.10161563773322       -2.66434631675593
C           10.68824315305564       -0.36615042974746       -3.72667574856951
C           11.69509151750907       -1.30891948530793       -3.60147743881268
C           11.85264469015994       -1.99344982823784       -2.40780321978473
C           11.00664725603402       -1.74363753728228       -1.34332323902020
C            2.71689744545929       -1.25737629936119       -0.41477686403412
C            1.35115456225717       -1.19824008814698       -0.23294271187429
C           -1.39094161701201       -1.26857319961320        0.81027332789505
C           -0.92711655527129       -2.46795357207552        1.35625199804740
C           -1.75833444104211       -3.57301148251688        1.41767828955005
C           -3.06727663713519       -3.50833851859329        0.97404369932691
C           -3.54208617035987       -2.31186624023630        0.44266426346856
C           -4.93472861019750       -2.14031269018530        0.02961127769555
N           -5.34627413063792       -0.88762326217193       -0.14413552568651
C           -6.62279992914264       -0.72657750411579       -0.47035987713818
C           -7.10767528288856        0.64554815137785       -0.62496218804732
C           -8.40727442820747        0.89197298498391       -1.06150316250147
C           -8.85473074492228        2.19215088001596       -1.19666159780828
C           -8.01379209202537        3.25263970900286       -0.89574151494107
C           -6.71970280386237        3.01333860310535       -0.45934129304240
C           -6.26521034698895        1.71589062276403       -0.32531352365920
N           -7.47214939537276       -1.73477191522438       -0.65099234284863
C           -6.97301956428744       -2.95485236973520       -0.47124425653160
C           -7.86702788117929       -4.09666528464252       -0.66636647060664
C           -9.21147826688870       -3.89113465048672       -0.96938337194226
C          -10.05210393762110       -4.97192208334459       -1.15129618256922
C           -9.56062439138474       -6.26283971348610       -1.03359572796044
C           -8.22360214386030       -6.47242460893998       -0.73307690394830
C           -7.37757390835759       -5.39614267816708       -0.54937495913073
N           -5.71331402327001       -3.20551359745867       -0.11805241044590
C           -2.69797551718028       -1.21563337315783        0.33709896462784
C           -2.27405145406833        1.36604075829938        1.67798110784340
C           -2.96035729719153        2.56076283758290        1.64763662548153
C           -3.85419967727930        5.43657432410036        1.81577647097169
C           -4.61440906124483        6.58824943102513        1.73354222596785
H           -5.53846472591009        8.01915850842300        0.43474556776030
H           -4.75288220023211        6.90624829092645       -1.62394041288086
H           -3.40777422980673        4.85491322725549       -1.48063852682257
H           -1.23250593981999        4.11243019020778       -0.80076809709288
H           -0.01861219507755        1.98099602581803       -0.76369927714708
H            1.20323053105366        1.51535311829106        1.77535659045818
H            3.62863844098123        1.41401382843255        1.43150156680963
H            4.86967319016644       -0.89097378165724       -2.08895675969658
H            7.28982460924933       -1.02897380251898       -2.47680490027043
H            5.48985402738441        0.06231167436326        2.03645390031679
H            7.65221400916342        0.42391320350745        3.67087614794976
H            9.92625452461479        0.61785302651454        4.62398239808989
H           11.90268800698802        0.30398184460102        3.21289689663363
H           11.68544066015244       -0.23832693150562        0.81919137872996
H            9.07223306812658        0.64862738420102       -2.75058251594753
H           10.56447640757019        0.17305437723340       -4.65424762957765
H           12.35510035240513       -1.50964202409509       -4.43181739963899
H           12.63356164764921       -2.73268829695131       -2.30724559416757
H           11.11195895789450       -2.29120812853649       -0.41860941599456
H            3.13482180868741       -2.04689124467095       -1.02198676642943
H            0.70957040553510       -1.92266953519906       -0.71317183779775
H            0.08113524324602       -2.52653007316949        1.73903289713106
H           -1.38011430745181       -4.49252771406488        1.84001778421799
H           -3.72864223778723       -4.35645835209019        1.04624533330306
H           -9.04719437655871        0.05418679070050       -1.29051273392438
H           -9.86226496848902        2.38268331510149       -1.53683065467677
H           -8.36685076658738        4.26829642844137       -1.00040222905831
H           -6.06612444364990        3.84075763674555       -0.22393577013905
H           -5.26150218026985        1.51296213588171        0.01501327459987
H           -9.57570946140435       -2.87948571629595       -1.05524320973037
H          -11.09441107258506       -4.81123564167820       -1.38536703276745
H          -10.22032869441422       -7.10640880157912       -1.17631717654208
H           -7.84293995904803       -7.47936511583440       -0.64267031163128
H           -6.33384059848081       -5.53835333771264       -0.31699272180428
H           -3.08403969785084       -0.31359102958410       -0.10948195378066
H           -2.56339585441832        0.59310748269438        2.37473734241792
H           -3.79343634061536        2.71126050734719        2.31850292912322
H           -3.59159804333665        5.03372425919303        2.78319020181848
H           -4.95406884769264        7.07297035727932        2.63745052463214

          :  Hamiltonian                  GFN2-xTB          :
         :: gradient norm              0.000031975788 Eh/a0 ::
         :: HOMO-LUMO gap              1.749429216060 eV    ::
         :: SCC energy              -159.549317084937 Eh    ::
         :: -> dispersion             -0.141384097355 Eh    ::
         :: repulsion energy           2.934870351618 Eh    ::

    * Orbital Energies and Occupations

         #    Occupation            Energy/Eh            Energy/eV
      -------------------------------------------------------------
         1        2.0000           -0.6782822             -18.4570
       ...           ...                  ...                  ...
       134        2.0000           -0.4063203             -11.0565
       135        2.0000           -0.4043110             -11.0019
       136        2.0000           -0.4034201             -10.9776
       137        2.0000           -0.4027066             -10.9582
       138        2.0000           -0.4022505             -10.9458
       139        2.0000           -0.4015589             -10.9270
       140        2.0000           -0.3958274             -10.7710
       141        2.0000           -0.3882739             -10.5655
       142        2.0000           -0.3761630             -10.2359
       143        2.0000           -0.3655494              -9.9471
       144        2.0000           -0.3650149              -9.9326
       145        2.0000           -0.3607315              -9.8160
       146        2.0000           -0.3453100              -9.3964 (HOMO)
       147                         -0.2810197              -7.6469 (LUMO)
       148                         -0.2798349              -7.6147
       149                         -0.2467661              -6.7148
       150                         -0.2443224              -6.6484
       151                         -0.2405441              -6.5455
       152                         -0.2373098              -6.4575
       153                         -0.2328238              -6.3355
       154                         -0.2322985              -6.3212
       155                         -0.2250188              -6.1231
       156                         -0.2241640              -6.0998
       157                         -0.2235446              -6.0830
       ...                                ...                  ...
       287                          0.7502633              20.4157
      -------------------------------------------------------------
                  HL-Gap            0.0642904 Eh            1.7494 eV

     #   Z          covCN         q      C6AA      α(0)
     1   6 C        2.920    -0.032    28.794     8.799
     2   6 C        2.918    -0.030    28.748     8.792
     3   6 C        2.925    -0.034    28.851     8.809
     4   6 C        2.977     0.011    27.766     8.643
     5   6 C        2.976     0.003    27.958     8.673
     6   6 C        2.924    -0.034    28.842     8.807
     7   6 C        2.920    -0.046    29.151     8.854
     8   6 C        2.928     0.063    26.578     8.455
     9   7 N        2.752    -0.073    22.648     7.068
    10   6 C        2.922     0.061    26.628     8.462
    11   6 C        2.921    -0.049    29.211     8.863
    12   6 C        2.925    -0.035    28.873     8.812
    13   6 C        2.976     0.003    27.958     8.673
    14   6 C        2.976    -0.001    28.045     8.687
    15   6 C        2.929    -0.039    28.961     8.826
    16   6 C        2.908    -0.052    29.286     8.874
    17   6 C        3.077     0.045    26.911     8.505
    18   6 C        3.065    -0.018    28.385     8.736
    19   6 C        2.918    -0.039    28.958     8.824
    20   6 C        3.068    -0.017    28.366     8.733
    21   6 C        2.913    -0.033    28.818     8.803
    22   6 C        2.920    -0.041    29.018     8.834
    23   6 C        2.924    -0.034    28.835     8.806
    24   6 C        2.910    -0.051    29.265     8.871
    25   6 C        3.077     0.047    26.873     8.499
    26   7 N        2.802    -0.044    22.087     6.980
    27   6 C        2.913     0.065    26.543     8.448
    28   6 C        2.922    -0.042    29.052     8.839
    29   6 C        2.920    -0.028    28.699     8.785
    30   6 C        2.919    -0.033    28.828     8.805
    31   6 C        2.920    -0.028    28.699     8.785
    32   6 C        2.922    -0.042    29.051     8.839
    33   6 C        2.924    -0.035    28.880     8.813
    34   6 C        2.920    -0.050    29.235     8.867
    35   6 C        2.922     0.067    26.489     8.440
    36   6 C        2.921    -0.046    29.131     8.851
    37   6 C        2.919    -0.029    28.722     8.788
    38   6 C        2.920    -0.034    28.859     8.809
    39   6 C        2.985    -0.001    28.038     8.686
    40   6 C        2.986     0.203    23.693     7.985
    41   7 N        1.849    -0.297    28.535     7.917
    42   6 C        2.980     0.202    23.710     7.987
    43   6 C        2.984    -0.000    28.028     8.684
    44   6 C        2.923    -0.024    28.601     8.770
    45   6 C        2.918    -0.028    28.698     8.785
    46   6 C        2.920    -0.023    28.590     8.768
    47   6 C        2.918    -0.028    28.692     8.784
    48   6 C        2.924    -0.023    28.581     8.767
    49   7 N        1.843    -0.295    28.501     7.912
    50   6 C        2.986     0.202    23.717     7.989
    51   6 C        2.984     0.000    28.017     8.683
    52   6 C        2.924    -0.024    28.595     8.769
    53   6 C        2.918    -0.028    28.693     8.784
    54   6 C        2.920    -0.024    28.600     8.770
    55   6 C        2.918    -0.028    28.691     8.784
    56   6 C        2.924    -0.024    28.598     8.770
    57   7 N        1.842    -0.294    28.470     7.908
    58   6 C        2.934    -0.047    29.165     8.857
    59   6 C        2.921    -0.045    29.110     8.848
    60   6 C        2.924    -0.033    28.819     8.804
    61   6 C        2.925    -0.034    28.853     8.809
    62   6 C        2.918    -0.030    28.741     8.791
    63   1 H        0.926     0.028     2.613     2.528
    64   1 H        0.926     0.028     2.610     2.526
    65   1 H        0.926     0.031     2.577     2.510
    66   1 H        0.926     0.034     2.527     2.486
    67   1 H        0.926     0.033     2.544     2.494
    68   1 H        0.926     0.031     2.576     2.510
    69   1 H        0.926     0.033     2.540     2.492
    70   1 H        0.926     0.031     2.570     2.507
    71   1 H        0.926     0.027     2.623     2.532
    72   1 H        0.926     0.033     2.549     2.497
    73   1 H        0.926     0.030     2.579     2.511
    74   1 H        0.926     0.028     2.621     2.532
    75   1 H        0.926     0.029     2.607     2.525
    76   1 H        0.926     0.027     2.630     2.536
    77   1 H        0.926     0.041     2.442     2.444
    78   1 H        0.926     0.036     2.503     2.474
    79   1 H        0.926     0.035     2.517     2.481
    80   1 H        0.926     0.036     2.503     2.474
    81   1 H        0.926     0.041     2.441     2.443
    82   1 H        0.926     0.033     2.548     2.496
    83   1 H        0.926     0.031     2.569     2.506
    84   1 H        0.926     0.038     2.474     2.460
    85   1 H        0.926     0.037     2.490     2.468
    86   1 H        0.926     0.050     2.314     2.379
    87   1 H        0.926     0.054     2.271     2.356
    88   1 H        0.926     0.036     2.501     2.473
    89   1 H        0.926     0.036     2.509     2.477
    90   1 H        0.926     0.037     2.490     2.468
    91   1 H        0.926     0.054     2.268     2.355
    92   1 H        0.926     0.055     2.258     2.350
    93   1 H        0.926     0.036     2.502     2.474
    94   1 H        0.926     0.036     2.505     2.475
    95   1 H        0.926     0.036     2.500     2.472
    96   1 H        0.926     0.056     2.241     2.341
    97   1 H        0.926     0.056     2.243     2.342
    98   1 H        0.926     0.035     2.522     2.483
    99   1 H        0.926     0.035     2.510     2.478
   100   1 H        0.926     0.031     2.579     2.511
   101   1 H        0.926     0.029     2.605     2.524

molecular dipole:
                 x           y           z       tot (Debye)
 q only:        0.533       0.077      -0.355
   full:        0.581       0.062      -0.435       1.851

 projected vibrational frequencies (cm⁻¹)
eigval :       -0.00    -0.00    -0.00     0.00     0.00     0.00
eigval :        7.73     8.76    10.10    11.27    21.13    23.29
eigval :       27.02    31.19    34.55    39.72    42.78    47.46
eigval :       51.51    58.43    62.22    64.52    69.48    78.50
eigval :       84.02    85.96    91.70    94.71   109.05   111.18
eigval :      119.32   138.55   152.56   162.23   179.86   186.32
eigval :      190.07   197.50   218.48   221.73   227.67   234.24
eigval :      241.13   253.55   267.53   275.33   282.55   287.82
eigval :      310.15   335.51   352.05   357.52   364.89   366.32
eigval :      370.26   372.57   380.74   380.80   383.65   394.47
eigval :      397.58   400.85   401.94   407.37   414.18   418.60
eigval :      423.86   437.27   448.26   454.74   467.76   477.91
eigval :      492.40   513.22   517.66   534.50   535.78   550.74
eigval :      562.31   582.00   583.65   587.22   587.63   589.11
eigval :      590.99   599.34   601.09   610.09   613.82   614.03
eigval :      616.31   619.70   626.88   642.90   645.32   658.54
eigval :      663.53   667.42   672.67   675.58   675.74   685.54
eigval :      688.35   692.19   705.67   710.06   731.09   752.58
eigval :      756.57   760.07   763.55   775.69   776.67   793.24
eigval :      802.62   808.38   816.09   823.47   832.35   847.14
eigval :      854.09   869.37   869.93   870.90   877.39   877.73
eigval :      878.93   880.75   883.46   884.88   896.54   898.46
eigval :      900.82   902.62   906.43   910.86   912.70   912.96
eigval :      916.74   918.89   921.14   922.18   924.82   927.01
eigval :      928.37   930.49   932.00   932.22   932.42   932.65
eigval :      933.47   933.72   934.58   938.87   958.93   968.85
eigval :      989.91   991.21   992.50   998.24  1014.75  1017.90
eigval :     1030.74  1049.83  1071.70  1075.16  1076.02  1076.29
eigval :     1076.78  1080.59  1088.15  1096.98  1108.36  1112.03
eigval :     1116.54  1118.22  1121.73  1123.74  1142.12  1142.89
eigval :     1158.03  1160.26  1167.25  1178.75  1179.95  1181.10
eigval :     1181.27  1182.61  1183.05  1184.11  1188.04  1193.60
eigval :     1197.55  1202.06  1203.84  1204.37  1207.71  1218.95
eigval :     1224.40  1246.10  1254.90  1262.61  1269.24  1270.28
eigval :     1271.05  1273.27  1275.22  1281.88  1287.14  1292.87
eigval :     1310.02  1314.96  1318.17  1318.33  1319.30  1326.02
eigval :     1327.36  1328.80  1333.27  1337.98  1350.15  1362.34
eigval :     1368.85  1372.26  1373.99  1374.97  1403.28  1412.00
eigval :     1422.24  1431.70  1432.97  1433.29  1434.21  1437.09
eigval :     1438.16  1464.31  1467.96  1468.41  1472.40  1478.58
eigval :     1483.80  1485.39  1500.54  1502.42  1516.58  1518.56
eigval :     1555.12  1560.98  1568.06  1572.44  1581.96  1582.81
eigval :     1583.40  1585.03  1585.87  1587.83  1592.88  1594.56
eigval :     1595.64  1596.24  1596.46  1601.87  1603.76  1615.95
eigval :     3070.88  3072.46  3073.36  3073.94  3075.75  3075.97
eigval :     3076.94  3077.77  3078.50  3078.72  3079.28  3079.77
eigval :     3079.81  3080.89  3081.43  3081.47  3081.73  3085.22
eigval :     3086.61  3088.28  3088.99  3089.19  3089.47  3089.86
eigval :     3090.26  3090.77  3091.36  3091.43  3092.02  3092.66
eigval :     3094.10  3095.74  3099.17  3103.87  3105.36  3107.46
eigval :     3108.15  3113.29  3116.42

   temp. (K)  partition function   enthalpy   heat capacity  entropy
                                   cal/mol     cal/K/mol   cal/K/mol   J/K/mol
 298.15  VIB  0.750E+25            29535.762    181.916    187.664
         ROT  0.290E+09              888.752      2.981     41.702
         INT  0.217E+34            30424.515    184.897    229.366
         TR   0.216E+29             1481.254      4.968     45.873
         TOT                       31905.7685   189.8652   275.2387  1151.5988

       T/K    H(0)-H(T)+PV         H(T)/Eh          T*S/Eh         G(T)/Eh
   ------------------------------------------------------------------------
    298.15    0.508451E-01    0.828323E+00    0.130775E+00    0.697548E+00
   ------------------------------------------------------------------------

         :::::::::::::::::::::::::::::::::::::::::::::::::::::
         ::                  THERMODYNAMIC                  ::
         :::::::::::::::::::::::::::::::::::::::::::::::::::::
         :: total free energy        -155.916898615694 Eh   ::
         ::.................................................::
         :: total energy             -156.614446733320 Eh   ::
         :: zero point energy           0.777477830470 Eh   ::
         :: G(RRHO) w/o ZPVE           -0.079929712844 Eh   ::
         :: G(RRHO) contrib.            0.697548117626 Eh   ::
         :::::::::::::::::::::::::::::::::::::::::::::::::::::

           -------------------------------------------------
          | TOTAL ENERGY             -156.614446733320 Eh   |
          | TOTAL ENTHALPY           -155.786123824371 Eh   |
          | TOTAL FREE ENERGY        -155.916898615694 Eh   |
          | GRADIENT NORM               0.000031980238 Eh/α |
          | HOMO-LUMO GAP               1.749429855510 eV   |
           -------------------------------------------------

 * finished run on 2025/09/07 at 05:32:55.410
