   * xtb version 6.7.1 (edcfbbe) compiled by 'albert@albert-system' on 2024-07-22

   ID    Z sym.   atoms
    1    6 C      1-8, 10-25, 27-40, 42-48, 50-56, 58-62
    2    7 N      9, 26, 41, 49, 57
    3    1 H      63-101

          program call               : xtb data2507/gas/CzTPA-m-Trz/CzTPA-m-Trz_gas_S0_crest.xyz --gfn 2 --ohess vtight --parallel 40 --molden --ceasefiles --namespace data2507/gas/CzTPA-m-Trz/CzTPA-m-Trz_gas_S0_finalOpt
          :  Hamiltonian                  GFN2-xTB          :
 * total energy  :  -156.6153546 Eh     change       -0.1678558E-08 Eh
 * total energy  :  -156.6153559 Eh     change       -0.1256459E-05 Eh
 * total energy  :  -156.6153581 Eh     change       -0.2246797E-05 Eh
 * total energy  :  -156.6153630 Eh     change       -0.4869072E-05 Eh
 * total energy  :  -156.6153693 Eh     change       -0.6371406E-05 Eh
 * total energy  :  -156.6153746 Eh     change       -0.5230569E-05 Eh
 * total energy  :  -156.6153788 Eh     change       -0.4187128E-05 Eh
 * total energy  :  -156.6153829 Eh     change       -0.4095744E-05 Eh
 * total energy  :  -156.6153868 Eh     change       -0.3912747E-05 Eh
 * total energy  :  -156.6153897 Eh     change       -0.2908026E-05 Eh
 * total energy  :  -156.6154183 Eh     change       -0.4853330E-06 Eh
 * total energy  :  -156.6154187 Eh     change       -0.4184488E-06 Eh
 * total energy  :  -156.6154191 Eh     change       -0.4165315E-06 Eh
 * total energy  :  -156.6154195 Eh     change       -0.4169810E-06 Eh
 * total energy  :  -156.6154199 Eh     change       -0.3923494E-06 Eh
 * total energy  :  -156.6154202 Eh     change       -0.3089937E-06 Eh
 * total energy  :  -156.6154205 Eh     change       -0.2579104E-06 Eh
 * total energy  :  -156.6154208 Eh     change       -0.3015784E-06 Eh
 * total energy  :  -156.6154208 Eh     change       -0.5030216E-08 Eh
   *** GEOMETRY OPTIMIZATION CONVERGED AFTER 44 ITERATIONS ***

 final structure:
================
101
 xtb: 6.7.1 (edcfbbe)
C           -9.12140511599546        7.03401375779484       -1.10562462763114
C           -8.79238169155352        6.08325119164873       -2.05723042212131
C           -7.86024041432393        5.10413421597285       -1.76931631056857
C           -7.23621436415860        5.06090379497766       -0.52419132899239
C           -6.24368489370643        4.02243294748729       -0.21714940422313
C           -6.43183614721030        2.70545854745085       -0.63292507625402
C           -5.50466145583383        1.72642597074967       -0.34454874835556
C           -4.35168825061784        2.03592413633378        0.37763151371655
N           -3.39990369289160        1.06235315430788        0.67901809164364
C           -2.03276212930787        1.39601562539813        0.67584139827434
C           -1.48847418988273        2.18047317004150       -0.33778492418858
C           -0.12787802217182        2.40829548711073       -0.38419969143334
C            0.72297436927297        1.87139507537762        0.57921607751465
C            2.18043028553022        2.03145297284082        0.48405644117321
C            2.93705244668120        2.33046967600725        1.62508158432329
C            4.31216995698364        2.43401352078073        1.58549362737172
C            4.94855161434095        2.20474964263266        0.37343672068248
C            4.20147597458822        1.92573690638605       -0.79409409493330
C            2.81824798268304        1.84732951974804       -0.73604601769072
C            5.15203246283745        1.76679197520772       -1.85863825648987
C            5.03222878946482        1.45341399930870       -3.20595577909662
C            6.18115034166421        1.34672759738235       -3.96357893317607
C            7.43723114574340        1.53395053240731       -3.39040988272250
C            7.58163629322077        1.84329699318023       -2.05146948457661
C            6.42956317026625        1.97326526345528       -1.28923647963763
N            6.29156469641702        2.23816920677394        0.05922167363308
C            7.33806152780391        2.49094066832052        0.95745781679420
C            7.42024634679309        1.78247260193567        2.15268273438541
C            8.45047204421672        2.04020409662510        3.03783382250004
C            9.40902053583526        2.99331631697828        2.73634902845422
C            9.33182911237829        3.69466421214340        1.54450512152304
C            8.29936165385454        3.45176554760260        0.65780878015544
C            0.16390224629703        1.13078511177686        1.61934038902916
C           -1.19316374867700        0.89545468493221        1.66981383689912
C           -3.74095264537770       -0.27606457097336        0.87594538159087
C           -4.94112404900178       -0.65304215247925        1.48307544060283
C           -5.22887056693533       -1.99174992840414        1.68527290412596
C           -4.33092690802122       -2.97829908539158        1.31880733765050
C           -3.12469864856345       -2.61009555006276        0.72772769898225
C           -2.10471058631115       -3.59526626014031        0.36825687760799
N           -2.42151467161732       -4.88480069654044        0.35237754584972
C           -1.43617192582015       -5.71763217802446        0.02212410781314
C           -1.73868066464690       -7.14845615394486       -0.02652489740323
C           -0.72551444674119       -8.07117269298170       -0.27881998468091
C           -1.01553682849006       -9.42087832823222       -0.32419212674963
C           -2.31438954459237       -9.86041033573906       -0.12007116863073
C           -3.32588641767379       -8.94613060793007        0.13057608450790
C           -3.04264569208942       -7.59505383217303        0.17833744091064
N           -0.19535620863272       -5.33296621788699       -0.26406398059806
C            0.03505149168050       -4.02362790057048       -0.20994575945963
C            1.38362447598404       -3.53280156392618       -0.49614000807925
C            1.69336788518314       -2.18942670683817       -0.28689501655719
C            2.96547102542849       -1.72316268233997       -0.55605627971808
C            3.93434119667608       -2.58755426970135       -1.04179991693791
C            3.63132689814993       -3.92432036167801       -1.25090613206367
C            2.36291644089712       -4.39905050761555       -0.97733041699316
N           -0.89231334788625       -3.12289970898788        0.09305945409578
C           -2.84815506146194       -1.27125340022892        0.49024738869098
C           -4.15349542814923        3.35481675247929        0.78929244526287
C           -5.08541295845582        4.32716546797644        0.49600083937300
C           -7.57382648530343        6.02429139893101        0.42428640980070
C           -8.50942590748879        7.00002373211503        0.13619143286102
H           -9.85114202904813        7.79778661511776       -1.33072341588497
H           -9.26322354716384        6.10702692188927       -3.02954090383083
H           -7.59563641328613        4.37623551269681       -2.52266946087266
H           -7.32504285718302        2.44218397632985       -1.18040443043329
H           -5.66427854605117        0.71419506051402       -0.68612446290757
H           -2.13628427358307        2.58934489067559       -1.09969520291867
H            0.28406832142357        3.00854592949774       -1.18225956739761
H            2.42237661093499        2.50526445198048        2.55840716758325
H            4.87226535350415        2.69130050483456        2.47187000114718
H            2.24698530480673        1.61528085005246       -1.62251206729848
H            4.05932195954105        1.29073441274064       -3.64463930820661
H            6.11126872142457        1.10563439791192       -5.01383025687350
H            8.31893744433750        1.42982152601765       -4.00551294100000
H            8.56037489712799        1.96666584619119       -1.61272580587700
H            6.68394070869682        1.02414253315829        2.37369587890785
H            8.50955004081190        1.48767102391660        3.96389830513638
H           10.21420686411942        3.18892414798319        3.42823627603197
H           10.07498282881564        4.44150571009278        1.30729219738120
H            8.22300266918465        4.01179159029456       -0.26230657650309
H            0.80646879806017        0.70904608289146        2.37830571466462
H           -1.61244463238860        0.29752814195046        2.46575645961528
H           -5.63984061703095        0.10587677429847        1.80314505396571
H           -6.16321974950088       -2.26404128638487        2.15408536877245
H           -4.53874946526428       -4.02139246113410        1.49390236201408
H            0.27910480871069       -7.71001478243552       -0.43323140007855
H           -0.22902916978037      -10.13540038965388       -0.51886515841940
H           -2.53855020793035      -10.91663650036185       -0.15653725746673
H           -4.33735365347458       -9.29118295612585        0.28832133335564
H           -3.81604262663009       -6.86780911249361        0.36964305902902
H            0.92887594347977       -1.52739367948826        0.08994611225301
H            3.20357893101180       -0.68313250359494       -0.38996855831564
H            4.92580564795887       -2.21633347943837       -1.25828528524083
H            4.38821182919284       -4.59620447462792       -1.62887976756165
H            2.10862165597184       -5.43560941692087       -1.13485923186764
H           -1.91911287799060       -1.01766691867316        0.00554578799590
H           -3.26072864050734        3.60821574444274        1.34232954722368
H           -4.90639799861206        5.34440228428543        0.81213524179478
H           -7.11302686442856        5.99338503357200        1.40109303803467
H           -8.76489554445140        7.73660420277679        0.88441700442676

          :  Hamiltonian                  GFN2-xTB          :
         :: gradient norm              0.000050533254 Eh/a0 ::
         :: HOMO-LUMO gap              1.773364553921 eV    ::
         :: SCC energy              -159.550605423485 Eh    ::
         :: -> dispersion             -0.142515331207 Eh    ::
         :: repulsion energy           2.935184645913 Eh    ::

    * Orbital Energies and Occupations

         #    Occupation            Energy/Eh            Energy/eV
      -------------------------------------------------------------
         1        2.0000           -0.6779312             -18.4474
       ...           ...                  ...                  ...
       134        2.0000           -0.4060238             -11.0485
       135        2.0000           -0.4039915             -10.9932
       136        2.0000           -0.4029616             -10.9651
       137        2.0000           -0.4017637             -10.9325
       138        2.0000           -0.4016259             -10.9288
       139        2.0000           -0.4006519             -10.9023
       140        2.0000           -0.3963003             -10.7839
       141        2.0000           -0.3871168             -10.5340
       142        2.0000           -0.3781618             -10.2903
       143        2.0000           -0.3651834              -9.9371
       144        2.0000           -0.3646735              -9.9233
       145        2.0000           -0.3619778              -9.8499
       146        2.0000           -0.3457558              -9.4085 (HOMO)
       147                         -0.2805859              -7.6351 (LUMO)
       148                         -0.2794953              -7.6055
       149                         -0.2466569              -6.7119
       150                         -0.2443557              -6.6493
       151                         -0.2408586              -6.5541
       152                         -0.2371967              -6.4544
       153                         -0.2341412              -6.3713
       154                         -0.2338253              -6.3627
       155                         -0.2248518              -6.1185
       156                         -0.2233236              -6.0769
       157                         -0.2229641              -6.0672
       ...                                ...                  ...
       287                          0.7475679              20.3424
      -------------------------------------------------------------
                  HL-Gap            0.0651699 Eh            1.7734 eV

     #   Z          covCN         q      C6AA      α(0)
     1   6 C        2.920    -0.032    28.798     8.800
     2   6 C        2.918    -0.030    28.748     8.792
     3   6 C        2.925    -0.035    28.864     8.810
     4   6 C        2.976     0.011    27.776     8.645
     5   6 C        2.976     0.000    28.015     8.682
     6   6 C        2.924    -0.034    28.855     8.809
     7   6 C        2.920    -0.051    29.257     8.870
     8   6 C        2.921     0.063    26.591     8.456
     9   7 N        2.753    -0.073    22.658     7.070
    10   6 C        2.930     0.062    26.609     8.460
    11   6 C        2.920    -0.045    29.126     8.850
    12   6 C        2.924    -0.035    28.859     8.810
    13   6 C        2.977     0.005    27.899     8.664
    14   6 C        2.977    -0.001    28.037     8.686
    15   6 C        2.928    -0.038    28.950     8.824
    16   6 C        2.908    -0.052    29.279     8.873
    17   6 C        3.076     0.045    26.910     8.505
    18   6 C        3.066    -0.018    28.389     8.737
    19   6 C        2.918    -0.038    28.942     8.822
    20   6 C        3.068    -0.017    28.372     8.734
    21   6 C        2.912    -0.033    28.811     8.802
    22   6 C        2.920    -0.041    29.012     8.833
    23   6 C        2.924    -0.033    28.830     8.805
    24   6 C        2.910    -0.051    29.266     8.871
    25   6 C        3.077     0.047    26.873     8.499
    26   7 N        2.803    -0.044    22.091     6.981
    27   6 C        2.913     0.065    26.547     8.449
    28   6 C        2.922    -0.042    29.050     8.839
    29   6 C        2.920    -0.028    28.696     8.785
    30   6 C        2.919    -0.033    28.821     8.804
    31   6 C        2.920    -0.028    28.696     8.785
    32   6 C        2.922    -0.042    29.048     8.838
    33   6 C        2.925    -0.034    28.840     8.807
    34   6 C        2.921    -0.044    29.095     8.845
    35   6 C        2.923     0.068    26.489     8.440
    36   6 C        2.921    -0.046    29.130     8.851
    37   6 C        2.919    -0.029    28.724     8.789
    38   6 C        2.920    -0.034    28.858     8.809
    39   6 C        2.984    -0.001    28.036     8.686
    40   6 C        2.986     0.203    23.695     7.985
    41   7 N        1.843    -0.294    28.474     7.908
    42   6 C        2.985     0.202    23.718     7.989
    43   6 C        2.984     0.000    28.017     8.683
    44   6 C        2.924    -0.024    28.596     8.770
    45   6 C        2.918    -0.028    28.693     8.784
    46   6 C        2.920    -0.024    28.602     8.770
    47   6 C        2.918    -0.028    28.691     8.784
    48   6 C        2.924    -0.024    28.598     8.770
    49   7 N        1.843    -0.295    28.503     7.912
    50   6 C        2.981     0.202    23.709     7.987
    51   6 C        2.984    -0.000    28.031     8.685
    52   6 C        2.924    -0.023    28.577     8.766
    53   6 C        2.918    -0.028    28.712     8.787
    54   6 C        2.920    -0.023    28.578     8.767
    55   6 C        2.918    -0.028    28.698     8.785
    56   6 C        2.923    -0.024    28.604     8.771
    57   7 N        1.848    -0.296    28.527     7.916
    58   6 C        2.933    -0.047    29.157     8.856
    59   6 C        2.921    -0.050    29.233     8.866
    60   6 C        2.924    -0.034    28.850     8.808
    61   6 C        2.925    -0.035    28.865     8.811
    62   6 C        2.918    -0.030    28.749     8.792
    63   1 H        0.926     0.028     2.618     2.530
    64   1 H        0.926     0.028     2.614     2.528
    65   1 H        0.926     0.030     2.588     2.516
    66   1 H        0.926     0.033     2.545     2.495
    67   1 H        0.926     0.032     2.560     2.502
    68   1 H        0.926     0.033     2.548     2.496
    69   1 H        0.926     0.034     2.525     2.485
    70   1 H        0.926     0.031     2.567     2.506
    71   1 H        0.926     0.028     2.616     2.529
    72   1 H        0.926     0.034     2.536     2.491
    73   1 H        0.926     0.031     2.571     2.507
    74   1 H        0.926     0.028     2.615     2.529
    75   1 H        0.926     0.029     2.602     2.523
    76   1 H        0.926     0.027     2.628     2.535
    77   1 H        0.926     0.041     2.440     2.443
    78   1 H        0.926     0.036     2.498     2.472
    79   1 H        0.926     0.035     2.512     2.479
    80   1 H        0.926     0.036     2.499     2.472
    81   1 H        0.926     0.041     2.440     2.443
    82   1 H        0.926     0.034     2.523     2.484
    83   1 H        0.926     0.033     2.538     2.491
    84   1 H        0.926     0.038     2.474     2.460
    85   1 H        0.926     0.037     2.491     2.468
    86   1 H        0.926     0.051     2.308     2.376
    87   1 H        0.926     0.055     2.258     2.350
    88   1 H        0.926     0.036     2.503     2.474
    89   1 H        0.926     0.036     2.507     2.476
    90   1 H        0.926     0.036     2.500     2.473
    91   1 H        0.926     0.056     2.244     2.342
    92   1 H        0.926     0.054     2.276     2.359
    93   1 H        0.926     0.039     2.463     2.454
    94   1 H        0.926     0.035     2.520     2.483
    95   1 H        0.926     0.036     2.507     2.476
    96   1 H        0.926     0.054     2.275     2.359
    97   1 H        0.926     0.056     2.243     2.342
    98   1 H        0.926     0.031     2.573     2.508
    99   1 H        0.926     0.033     2.545     2.495
   100   1 H        0.926     0.030     2.590     2.517
   101   1 H        0.926     0.028     2.616     2.529

molecular dipole:
                 x           y           z       tot (Debye)
 q only:        0.811       0.251       0.344
   full:        0.871       0.259       0.379       2.503

 projected vibrational frequencies (cm⁻¹)
eigval :       -0.00    -0.00    -0.00    -0.00     0.00     0.00
eigval :        5.76     9.14     9.45    11.52    16.96    23.07
eigval :       24.76    31.82    34.10    41.63    42.84    44.48
eigval :       57.05    59.01    63.24    63.99    68.75    76.54
eigval :       85.15    87.20    91.68    96.82   107.68   113.60
eigval :      119.04   142.51   148.55   163.57   180.56   184.57
eigval :      189.90   192.22   210.97   220.87   230.35   234.35
eigval :      243.83   250.23   269.04   275.17   282.40   294.10
eigval :      314.17   327.50   353.41   356.94   365.06   366.65
eigval :      370.76   377.69   380.03   380.89   384.53   386.87
eigval :      396.02   397.45   405.44   408.75   414.92   419.00
eigval :      421.77   434.17   449.95   455.01   465.04   481.15
eigval :      490.21   512.99   521.42   532.90   535.73   550.23
eigval :      562.27   581.59   582.50   587.26   587.86   588.24
eigval :      592.88   598.25   599.90   609.67   613.50   615.09
eigval :      616.05   620.15   627.09   642.11   646.31   658.61
eigval :      664.99   667.36   674.98   676.01   677.68   685.26
eigval :      686.34   692.46   704.37   708.60   731.00   753.15
eigval :      756.38   760.37   763.72   775.64   776.78   793.40
eigval :      803.46   808.58   817.19   822.93   831.99   847.24
eigval :      853.76   869.58   869.92   870.50   877.51   878.54
eigval :      878.74   881.89   883.84   884.87   896.97   897.95
eigval :      900.42   902.37   906.29   911.00   913.00   913.71
eigval :      917.07   917.90   921.81   922.51   924.84   926.72
eigval :      929.64   930.64   931.49   931.93   932.43   933.37
eigval :      933.64   933.73   934.56   939.34   956.44   969.11
eigval :      990.06   992.10   992.82   998.26  1010.68  1022.70
eigval :     1028.29  1049.69  1071.56  1075.28  1076.37  1076.56
eigval :     1077.06  1080.59  1088.58  1096.68  1108.42  1112.08
eigval :     1116.79  1118.29  1122.10  1123.59  1139.04  1144.71
eigval :     1156.20  1159.52  1167.48  1178.81  1180.03  1181.14
eigval :     1181.27  1182.83  1183.02  1184.01  1187.79  1193.81
eigval :     1195.51  1201.78  1204.09  1204.55  1207.08  1217.37
eigval :     1224.34  1245.48  1253.75  1263.17  1269.23  1270.24
eigval :     1270.52  1272.82  1275.15  1282.56  1287.79  1292.91
eigval :     1305.96  1313.95  1318.17  1319.32  1322.01  1326.23
eigval :     1327.65  1328.78  1335.81  1338.44  1350.50  1362.01
eigval :     1369.18  1371.58  1373.95  1374.99  1404.76  1410.87
eigval :     1421.13  1432.57  1432.80  1434.24  1434.94  1435.74
eigval :     1437.45  1465.62  1467.61  1468.30  1472.16  1478.47
eigval :     1483.79  1485.22  1500.83  1503.21  1516.33  1518.00
eigval :     1555.22  1561.07  1568.26  1572.53  1582.54  1582.98
eigval :     1583.38  1584.90  1585.83  1587.61  1593.88  1594.43
eigval :     1595.60  1595.88  1596.49  1601.02  1605.53  1615.48
eigval :     3069.44  3070.80  3073.00  3073.31  3076.04  3076.58
eigval :     3076.80  3077.54  3078.19  3078.58  3079.15  3079.69
eigval :     3080.33  3080.46  3081.36  3082.19  3083.13  3083.65
eigval :     3086.62  3088.52  3088.96  3089.25  3089.79  3090.00
eigval :     3090.19  3090.76  3091.03  3091.63  3092.19  3092.96
eigval :     3094.09  3096.46  3099.47  3103.30  3104.86  3107.22
eigval :     3107.73  3113.70  3115.76

   temp. (K)  partition function   enthalpy   heat capacity  entropy
                                   cal/mol     cal/K/mol   cal/K/mol   J/K/mol
 298.15  VIB  0.124E+26            29546.118    181.976    188.175
         ROT  0.256E+09              888.752      2.981     41.454
         INT  0.318E+34            30434.870    184.957    229.629
         TR   0.216E+29             1481.254      4.968     45.873
         TOT                       31916.1241   189.9255   275.5018  1152.6994

       T/K    H(0)-H(T)+PV         H(T)/Eh          T*S/Eh         G(T)/Eh
   ------------------------------------------------------------------------
    298.15    0.508616E-01    0.828306E+00    0.130900E+00    0.697407E+00
   ------------------------------------------------------------------------

         :::::::::::::::::::::::::::::::::::::::::::::::::::::
         ::                  THERMODYNAMIC                  ::
         :::::::::::::::::::::::::::::::::::::::::::::::::::::
         :: total free energy        -155.918014075493 Eh   ::
         ::.................................................::
         :: total energy             -156.615420777572 Eh   ::
         :: zero point energy           0.777444902201 Eh   ::
         :: G(RRHO) w/o ZPVE           -0.080038200122 Eh   ::
         :: G(RRHO) contrib.            0.697406702079 Eh   ::
         :::::::::::::::::::::::::::::::::::::::::::::::::::::

           -------------------------------------------------
          | TOTAL ENERGY             -156.615420777572 Eh   |
          | TOTAL ENTHALPY           -155.787114294150 Eh   |
          | TOTAL FREE ENERGY        -155.918014075493 Eh   |
          | GRADIENT NORM               0.000050537746 Eh/α |
          | HOMO-LUMO GAP               1.773363871248 eV   |
           -------------------------------------------------

 * finished run on 2025/09/07 at 05:41:17.693
