   * xtb version 6.7.1 (edcfbbe) compiled by 'albert@albert-system' on 2024-07-22

   ID    Z sym.   atoms
    1    6 C      1-20, 22-25, 27-29, 31-34, 36-56
    2    7 N      21, 30, 35
    3    8 O      26
    4    1 H      57-111

          program call               : xtb data2507/toluene/4BPy-mDTC/4BPy-mDTC_toluene_T1_crest.xyz --gfn 2 --uhf 2 --gbsa toluene --ohess vtight --parallel 40 --molden --ceasefiles --namespace data2507/toluene/4BPy-mDTC/4BPy-mDTC_toluene_T1_finalOpt
      * Solvation model:               GBSA
        Solvent                        toluene
        Solvent mass                       9.2140E+01 g/mol
          :  Hamiltonian                  GFN2-xTB          :
 * total energy  :  -152.3543581 Eh     change       -0.5167826E-07 Eh
 * total energy  :  -152.3545662 Eh     change       -0.2081249E-03 Eh
 * total energy  :  -152.3546485 Eh     change       -0.8231651E-04 Eh
 * total energy  :  -152.3546742 Eh     change       -0.2569384E-04 Eh
 * total energy  :  -152.3546930 Eh     change       -0.1877537E-04 Eh
 * total energy  :  -152.3547121 Eh     change       -0.1909143E-04 Eh
 * total energy  :  -152.3547199 Eh     change       -0.7825519E-05 Eh
 * total energy  :  -152.3547244 Eh     change       -0.4470769E-05 Eh
 * total energy  :  -152.3547279 Eh     change       -0.3547721E-05 Eh
 * total energy  :  -152.3547308 Eh     change       -0.2853167E-05 Eh
 * total energy  :  -152.3547655 Eh     change       -0.5169998E-06 Eh
 * total energy  :  -152.3547660 Eh     change       -0.5294438E-06 Eh
 * total energy  :  -152.3547665 Eh     change       -0.4749608E-06 Eh
 * total energy  :  -152.3547669 Eh     change       -0.4207059E-06 Eh
 * total energy  :  -152.3547673 Eh     change       -0.3986055E-06 Eh
 * total energy  :  -152.3547677 Eh     change       -0.3952421E-06 Eh
 * total energy  :  -152.3547681 Eh     change       -0.3946587E-06 Eh
 * total energy  :  -152.3547684 Eh     change       -0.3414590E-06 Eh
 * total energy  :  -152.3547684 Eh     change       -0.1397609E-08 Eh
   *** GEOMETRY OPTIMIZATION CONVERGED AFTER 44 ITERATIONS ***

 final structure:
================
111
 xtb: 6.7.1 (edcfbbe)
C            7.93241295511379       -2.62176496925149       -2.28277389796205
C            7.55056697336641       -1.13423069383669       -2.33027082695422
C            7.43374083422348       -0.67423402237002       -3.79155557185563
C            8.67495684258593       -0.33285101198590       -1.66678779357256
C            6.20914836541916       -0.94544873187369       -1.63907296285889
C            5.08655873511923       -1.61900390918091       -2.13970849399337
C            3.83222302540486       -1.51369163936539       -1.57272393733121
C            3.69246313238880       -0.70977500549138       -0.44937299661888
C            4.80198399626452       -0.00064954127451        0.06090642869928
C            6.04924575940375       -0.12224464346380       -0.52978810273552
C            4.31467516564088        0.76595281227603        1.18045617051631
C            4.92825316393211        1.63073376577049        2.07204782035976
C            4.18127411781920        2.22009136169557        3.08619445230413
C            4.78826059437374        3.18384144753774        4.09389813143783
C            4.63387619148125        2.59797361009321        5.50582133929046
C            4.05317890600102        4.53028855746410        4.00626664100075
C            6.27791956742300        3.43801944057884        3.84356149143804
C            2.81995806325444        1.90234596846355        3.18484587432592
C            2.18362779833650        1.04496894503186        2.30953577994604
C            2.93431784140700        0.48559827271667        1.28435538013419
N            2.56963540581701       -0.40114564162341        0.29175388099159
C            1.28734366621426       -0.92021018396296        0.08145362748456
C            1.11702696310922       -2.28578779130790       -0.07762661840721
C           -0.15759718243598       -2.83594194891020       -0.27866576821752
C           -0.25709362049466       -4.27403166780359       -0.53049909960905
O            0.73014460105237       -4.89969467697968       -1.01274213272671
C           -1.49366729228096       -4.96164583057200       -0.21778897375203
C           -2.41553013815706       -4.51348903879759        0.74990205864466
C           -3.54280561182684       -5.25904747180911        1.00408252303555
N           -3.81890369979044       -6.40143517049196        0.38528500056571
C           -2.94325017894874       -6.86004534847341       -0.50230202680399
C           -1.78099646156756       -6.20270731153583       -0.82719279102823
C           -1.25679579159149       -1.96703172793206       -0.34816232288407
C           -1.08241536773366       -0.60060841568796       -0.17343279827733
N           -2.18162793117374        0.25971386865448       -0.29617354535339
C           -3.40139937228021        0.11337136923675        0.33059406331305
C           -3.81218014963881       -0.80526324510121        1.28589264611001
C           -5.10089084473595       -0.70668009590104        1.76974219467407
C           -5.99839643032675        0.28330157214367        1.34658878982041
C           -7.40470048152867        0.29860573010287        1.92524052499661
C           -8.09329790719719       -1.03579978255826        1.59925855585974
C           -7.32230304472606        0.48278064885688        3.44832370896910
C           -8.26536336785083        1.42969442589473        1.35398362971533
C           -5.56272445135619        1.22030895219039        0.41627868799832
C           -4.27436387971645        1.14155617402672       -0.08745169454983
C           -3.53238115670826        1.94646912456218       -1.02491101440420
C           -3.85551314725172        3.07146317407434       -1.76640170540396
C           -2.91135150668123        3.62847017813922       -2.62141754636615
C           -3.19444451702767        4.86830879158802       -3.45551003964976
C           -4.60501334561725        5.42123223280567       -3.22994015205560
C           -2.18625374326025        5.96555626187816       -3.08062300490980
C           -3.05125640452097        4.51678128915739       -4.94429994043828
C           -1.65549475882915        3.01466812877722       -2.72095176812094
C           -1.30795657083601        1.89305535388995       -1.99466374042655
C           -2.24971695142497        1.36384610964927       -1.12301945107963
C            0.18534693188436       -0.06510671181183        0.05247794511985
H            7.19736986034151       -3.23888959585372       -2.79206334323307
H            8.00322817117230       -2.95972694160800       -1.25060787319789
H            8.89657595876895       -2.77470535985592       -2.76301667071014
H            7.13818893060495        0.37226797072340       -3.83480307843552
H            6.69733406892455       -1.25939531360288       -4.33520486617434
H            8.39252957373920       -0.78377337331292       -4.29375636832407
H            9.60710821768458       -0.51196290780352       -2.19874071455266
H            8.46925956466759        0.73450312890950       -1.70190714279052
H            8.81587195122753       -0.63854593085215       -0.63259267175863
H            5.19090981174861       -2.25095565974191       -3.00795378604000
H            2.99205338544118       -2.04363164361231       -1.99554063018483
H            6.87575308451172        0.43029810605457       -0.11655048196530
H            5.98125269251301        1.82648827282902        1.96287551281242
H            5.08170207122926        3.26712921074242        6.23745211685404
H            5.13301044979416        1.63296808661725        5.56981900802042
H            3.58877009835562        2.45867833656292        5.76791513574541
H            4.13639997968686        4.93963441474687        3.00134813031885
H            2.99880744252745        4.42543358584619        4.24585082427334
H            4.49144062681551        5.23953414935875        4.70513397402137
H            6.65412144854809        4.13910139599473        4.58586859843215
H            6.44139211033368        3.87201271319722        2.85974672383448
H            6.85289397534691        2.51897118326765        3.93102428396014
H            2.23195252109113        2.33620087075884        3.97849128949547
H            1.13758403997067        0.81028649356814        2.43339486265136
H            1.96094164916190       -2.95635927146827       -0.02358429821032
H           -2.21872791474879       -3.62327657498647        1.32561568553853
H           -4.26448765013155       -4.94433535118352        1.74649597564324
H           -3.19887743324391       -7.80213551619592       -0.97002140970072
H           -1.09249128422027       -6.61143286131394       -1.55053876108775
H           -2.23228518926550       -2.34388185405128       -0.61395552523974
H           -3.14470525807418       -1.57051765366117        1.64950650365699
H           -5.41699501982461       -1.42725810167816        2.50773592887614
H           -9.11101279646866       -1.03394920382522        1.98378242904972
H           -7.56555673387766       -1.87629036364649        2.04131588553271
H           -8.13167114327558       -1.18704390876123        0.52211739230681
H           -6.78060621709200       -0.33264219684238        3.91947928080771
H           -6.81371691270523        1.41454775266411        3.68821496532625
H           -8.32299544500755        0.51613513743655        3.87379921954797
H           -9.25945992281406        1.38375516496108        1.79404759078155
H           -8.37206676883375        1.33396903542370        0.27582582533432
H           -7.84062042349341        2.40305319872231        1.58853697951690
H           -6.20519861837923        2.01444856205619        0.07603603003947
H           -4.84163428731006        3.49187499778606       -1.66682256020445
H           -4.75260860062740        5.70576318288295       -2.19063941150994
H           -5.36179992871817        4.69367532466924       -3.51432331175204
H           -4.74721352515333        6.30849697307863       -3.84362272000337
H           -2.26620311558811        6.20445405442693       -2.02186826571793
H           -1.16524440031835        5.65506388050118       -3.28400830538585
H           -2.38765013339929        6.86784934965521       -3.65402318809859
H           -3.27638933614349        5.38774707570912       -5.55616308857199
H           -2.04355108760312        4.18689333501797       -5.18103560250607
H           -3.74231453873911        3.71949167858942       -5.21138032885107
H           -0.91865695621904        3.42393384864899       -3.39439071436462
H           -0.33628851905300        1.43934210792068       -2.11671223164765
H            0.31325912449251        0.99783519313929        0.17679374739133

          :  Hamiltonian                  GFN2-xTB          :
         :: gradient norm              0.000034938671 Eh/a0 ::
         :: HOMO-LUMO gap              1.012280346131 eV    ::
         :: SCC energy              -154.937985937400 Eh    ::
         :: -> dispersion             -0.139255220245 Eh    ::
         :: -> Gsolv                  -0.071268570403 Eh    ::
         :: repulsion energy           2.583217522549 Eh    ::

    * Orbital Energies and Occupations

         #    Occupation            Energy/Eh            Energy/eV
      -------------------------------------------------------------
         1        2.0000           -0.6873132             -18.7027
       ...           ...                  ...                  ...
       131        2.0000           -0.4142768             -11.2730
       132        2.0000           -0.4137405             -11.2585
       133        2.0000           -0.4134640             -11.2509
       134        2.0000           -0.4120474             -11.2124
       135        2.0000           -0.4062781             -11.0554
       136        2.0000           -0.4061575             -11.0521
       137        2.0000           -0.3842619             -10.4563
       138        2.0000           -0.3841645             -10.4536
       139        2.0000           -0.3836039             -10.4384
       140        1.9689           -0.3703380             -10.0774
       141        1.8893           -0.3690518             -10.0424
       142        1.1418           -0.3653615              -9.9420
       143        1.0000           -0.2901658              -7.8958 (HOMO)
       144                         -0.2529657              -6.8835 (LUMO)
       145                         -0.2516754              -6.8484
       146                         -0.2449407              -6.6652
       147                         -0.2412875              -6.5658
       148                         -0.2292385              -6.2379
       149                         -0.2291685              -6.2360
       150                         -0.2290158              -6.2318
       151                         -0.2069557              -5.6316
       152                         -0.1965311              -5.3479
       153                         -0.1939949              -5.2789
       154                         -0.1938269              -5.2743
       ...                                ...                  ...
       279                          0.7314915              19.9049
      -------------------------------------------------------------
                  HL-Gap            0.0372001 Eh            1.0123 eV

     #   Z          covCN         q      C6AA      α(0)
     1   6 C        3.761    -0.106    22.568     6.772
     2   6 C        3.902     0.027    20.070     6.368
     3   6 C        3.761    -0.106    22.580     6.774
     4   6 C        3.761    -0.110    22.647     6.784
     5   6 C        2.973     0.009    27.804     8.649
     6   6 C        2.930    -0.036    28.898     8.816
     7   6 C        2.908    -0.044    29.088     8.844
     8   6 C        3.076     0.045    26.906     8.504
     9   6 C        3.064    -0.014    28.308     8.725
    10   6 C        2.917    -0.040    28.989     8.829
    11   6 C        3.064    -0.014    28.290     8.722
    12   6 C        2.917    -0.039    28.976     8.827
    13   6 C        2.973     0.009    27.802     8.649
    14   6 C        3.903     0.027    20.070     6.368
    15   6 C        3.761    -0.106    22.581     6.774
    16   6 C        3.761    -0.107    22.590     6.775
    17   6 C        3.761    -0.110    22.642     6.783
    18   6 C        2.929    -0.037    28.920     8.819
    19   6 C        2.908    -0.046    29.150     8.853
    20   6 C        3.075     0.044    26.926     8.508
    21   7 N        2.804    -0.020    21.629     6.907
    22   6 C        2.909     0.063    26.586     8.455
    23   6 C        2.928    -0.040    29.003     8.832
    24   6 C        2.967    -0.011    28.292     8.725
    25   6 C        2.832     0.168    24.372     8.090
    26   8 O        0.857    -0.518    24.187     6.594
    27   6 C        2.975    -0.007    28.191     8.709
    28   6 C        2.915    -0.053    29.314     8.878
    29   6 C        2.900     0.053    26.813     8.490
    30   7 N        1.837    -0.233    26.946     7.693
    31   6 C        2.900     0.053    26.816     8.491
    32   6 C        2.918    -0.040    28.994     8.830
    33   6 C        2.921    -0.051    29.275     8.873
    34   6 C        2.909     0.063    26.583     8.454
    35   7 N        2.803    -0.022    21.664     6.913
    36   6 C        3.078     0.044    26.931     8.508
    37   6 C        2.908    -0.046    29.137     8.851
    38   6 C        2.929    -0.037    28.912     8.818
    39   6 C        2.973     0.009    27.814     8.651
    40   6 C        3.903     0.027    20.070     6.368
    41   6 C        3.761    -0.106    22.571     6.772
    42   6 C        3.761    -0.106    22.579     6.774
    43   6 C        3.761    -0.110    22.641     6.783
    44   6 C        2.917    -0.040    28.986     8.829
    45   6 C        3.064    -0.014    28.308     8.725
    46   6 C        3.065    -0.014    28.301     8.723
    47   6 C        2.917    -0.040    28.983     8.828
    48   6 C        2.973     0.009    27.817     8.651
    49   6 C        3.902     0.027    20.072     6.368
    50   6 C        3.761    -0.109    22.640     6.783
    51   6 C        3.761    -0.107    22.586     6.775
    52   6 C        3.761    -0.106    22.577     6.773
    53   6 C        2.930    -0.037    28.919     8.819
    54   6 C        2.908    -0.047    29.155     8.854
    55   6 C        3.077     0.044    26.934     8.509
    56   6 C        2.923    -0.072    29.785     8.950
    57   1 H        0.925     0.036     2.498     2.472
    58   1 H        0.925     0.034     2.530     2.488
    59   1 H        0.925     0.042     2.425     2.435
    60   1 H        0.925     0.036     2.508     2.476
    61   1 H        0.925     0.037     2.488     2.467
    62   1 H        0.925     0.042     2.423     2.434
    63   1 H        0.925     0.040     2.445     2.445
    64   1 H        0.925     0.040     2.453     2.449
    65   1 H        0.925     0.039     2.466     2.456
    66   1 H        0.926     0.039     2.468     2.457
    67   1 H        0.926     0.034     2.537     2.491
    68   1 H        0.926     0.053     2.283     2.363
    69   1 H        0.926     0.052     2.296     2.369
    70   1 H        0.925     0.042     2.426     2.436
    71   1 H        0.925     0.034     2.528     2.487
    72   1 H        0.925     0.038     2.475     2.460
    73   1 H        0.925     0.035     2.511     2.478
    74   1 H        0.925     0.039     2.467     2.456
    75   1 H        0.925     0.042     2.427     2.436
    76   1 H        0.925     0.040     2.451     2.448
    77   1 H        0.925     0.039     2.465     2.455
    78   1 H        0.925     0.038     2.476     2.461
    79   1 H        0.926     0.042     2.422     2.434
    80   1 H        0.926     0.037     2.488     2.466
    81   1 H        0.926     0.048     2.348     2.396
    82   1 H        0.926     0.036     2.497     2.471
    83   1 H        0.925     0.039     2.459     2.452
    84   1 H        0.925     0.036     2.498     2.472
    85   1 H        0.926     0.034     2.534     2.490
    86   1 H        0.926     0.045     2.380     2.413
    87   1 H        0.926     0.031     2.572     2.508
    88   1 H        0.926     0.039     2.457     2.451
    89   1 H        0.925     0.041     2.429     2.437
    90   1 H        0.925     0.037     2.489     2.467
    91   1 H        0.925     0.034     2.532     2.488
    92   1 H        0.925     0.037     2.482     2.464
    93   1 H        0.925     0.035     2.511     2.478
    94   1 H        0.925     0.042     2.427     2.436
    95   1 H        0.925     0.040     2.451     2.448
    96   1 H        0.925     0.038     2.472     2.459
    97   1 H        0.925     0.039     2.460     2.453
    98   1 H        0.926     0.052     2.297     2.370
    99   1 H        0.926     0.051     2.302     2.373
   100   1 H        0.925     0.039     2.464     2.455
   101   1 H        0.925     0.038     2.476     2.461
   102   1 H        0.925     0.040     2.454     2.450
   103   1 H        0.925     0.035     2.511     2.478
   104   1 H        0.925     0.038     2.472     2.459
   105   1 H        0.925     0.041     2.430     2.438
   106   1 H        0.925     0.041     2.430     2.438
   107   1 H        0.925     0.038     2.480     2.463
   108   1 H        0.925     0.034     2.532     2.488
   109   1 H        0.926     0.041     2.438     2.441
   110   1 H        0.926     0.035     2.514     2.480
   111   1 H        0.926     0.055     2.264     2.353

molecular dipole:
                 x           y           z       tot (Debye)
 q only:        0.323       5.496       0.805
   full:        0.454       5.300       0.714      13.643

 projected vibrational frequencies (cm⁻¹)
eigval :       -0.00    -0.00    -0.00     0.00     0.00     0.00
eigval :        9.84    10.49    13.70    16.23    24.14    26.71
eigval :       31.24    33.03    34.76    36.94    43.31    49.10
eigval :       61.12    63.58    67.76    71.81    80.71    85.90
eigval :       88.33   107.53   113.87   129.99   146.67   153.71
eigval :      158.90   160.74   174.37   176.07   183.73   186.06
eigval :      194.20   200.02   203.46   211.81   215.18   220.32
eigval :      223.84   227.33   229.54   231.37   236.24   246.41
eigval :      251.87   257.40   257.88   273.12   282.85   286.56
eigval :      294.79   315.64   316.66   316.97   324.39   327.56
eigval :      331.88   337.05   338.90   345.54   349.66   356.53
eigval :      356.63   359.99   363.14   367.42   374.31   383.41
eigval :      394.12   397.21   404.28   404.71   407.66   429.09
eigval :      439.45   441.23   441.89   442.33   454.67   460.95
eigval :      461.64   463.27   465.03   465.11   499.48   510.04
eigval :      516.58   534.06   541.49   572.05   574.74   581.66
eigval :      585.66   591.70   596.78   607.22   613.69   621.42
eigval :      632.74   635.81   642.74   642.97   653.88   667.11
eigval :      671.72   691.26   692.46   700.77   708.81   709.46
eigval :      715.74   718.48   764.39   776.72   778.27   811.62
eigval :      820.86   825.17   826.26   829.05   830.57   831.59
eigval :      839.52   858.33   866.76   867.86   870.24   871.18
eigval :      872.05   873.84   881.23   887.57   896.68   902.68
eigval :      917.06   918.98   920.20   920.48   923.53   925.64
eigval :      929.74   931.55   958.31   958.90   958.99   959.15
eigval :      961.05   961.31   962.30   962.46   963.34   963.36
eigval :      963.86   963.91   969.22   985.81  1025.24  1028.53
eigval :     1031.73  1033.07  1033.19  1033.36  1034.14  1034.64
eigval :     1035.72  1037.83  1041.40  1044.79  1077.11  1108.49
eigval :     1110.68  1115.24  1126.15  1126.29  1133.95  1135.22
eigval :     1156.26  1160.47  1161.89  1168.08  1187.47  1213.39
eigval :     1222.59  1222.62  1222.67  1222.94  1224.90  1225.91
eigval :     1227.04  1227.60  1227.98  1228.19  1229.95  1230.06
eigval :     1230.91  1241.81  1249.46  1250.67  1258.06  1278.25
eigval :     1279.49  1288.14  1288.91  1293.49  1301.17  1313.95
eigval :     1330.46  1331.86  1333.10  1340.10  1347.59  1347.97
eigval :     1370.17  1382.63  1398.18  1398.74  1400.88  1401.18
eigval :     1401.97  1402.04  1402.46  1402.55  1404.82  1406.52
eigval :     1410.10  1417.12  1421.68  1425.75  1425.92  1426.17
eigval :     1426.31  1437.14  1441.71  1448.16  1458.92  1460.14
eigval :     1466.76  1473.96  1474.81  1487.42  1487.55  1488.13
eigval :     1489.03  1489.55  1490.37  1490.81  1491.16  1496.32
eigval :     1496.40  1496.99  1497.67  1500.74  1500.85  1501.26
eigval :     1501.88  1502.13  1510.19  1510.70  1510.87  1511.75
eigval :     1512.10  1515.13  1515.21  1516.28  1516.97  1553.08
eigval :     1557.59  1559.40  1570.23  1573.45  1573.84  1575.87
eigval :     1591.62  1604.74  3021.63  3022.06  3022.17  3022.36
eigval :     3022.48  3022.52  3022.63  3023.02  3025.50  3025.61
eigval :     3025.85  3025.89  3026.72  3027.10  3027.15  3027.28
eigval :     3029.36  3029.48  3029.73  3030.09  3032.20  3032.65
eigval :     3032.81  3032.82  3037.13  3037.57  3037.67  3037.91
eigval :     3045.26  3046.10  3046.30  3046.42  3047.60  3048.80
eigval :     3049.27  3049.48  3049.50  3052.23  3083.74  3085.46
eigval :     3086.62  3090.03  3091.35  3094.31  3097.23  3097.77
eigval :     3098.10  3099.05  3101.64  3101.89  3112.60  3123.13
eigval :     3123.14  3125.66  3125.81

   temp. (K)  partition function   enthalpy   heat capacity  entropy
                                   cal/mol     cal/K/mol   cal/K/mol   J/K/mol
 298.15  VIB  0.109E+26            32302.708    197.507    200.332
         ROT  0.160E+09              888.752      2.981     40.525
         INT  0.175E+34            33191.460    200.488    240.857
         TR   0.194E+29             1481.254      4.968     45.655
         TOT                       34672.7141   205.4565   286.5126  1198.7689

       T/K    H(0)-H(T)+PV         H(T)/Eh          T*S/Eh         G(T)/Eh
   ------------------------------------------------------------------------
    298.15    0.552545E-01    0.972921E+00    0.136131E+00    0.836790E+00
   ------------------------------------------------------------------------

         :::::::::::::::::::::::::::::::::::::::::::::::::::::
         ::                  THERMODYNAMIC                  ::
         :::::::::::::::::::::::::::::::::::::::::::::::::::::
         :: total free energy        -151.517978849457 Eh   ::
         ::.................................................::
         :: total energy             -152.354768414613 Eh   ::
         :: zero point energy           0.917666477325 Eh   ::
         :: G(RRHO) w/o ZPVE           -0.080876912169 Eh   ::
         :: G(RRHO) contrib.            0.836789565156 Eh   ::
         :::::::::::::::::::::::::::::::::::::::::::::::::::::

           -------------------------------------------------
          | TOTAL ENERGY             -152.354768414613 Eh   |
          | TOTAL ENTHALPY           -151.381847450193 Eh   |
          | TOTAL FREE ENERGY        -151.517978849457 Eh   |
          | GRADIENT NORM               0.000033760263 Eh/α |
          | HOMO-LUMO GAP               1.012266745657 eV   |
           -------------------------------------------------

 * finished run on 2025/09/13 at 21:10:27.298
