   * xtb version 6.7.1 (edcfbbe) compiled by 'albert@albert-system' on 2024-07-22

   ID    Z sym.   atoms
    1    6 C      1-20, 22-25, 27-29, 31-34, 36-56
    2    7 N      21, 30, 35
    3    8 O      26
    4    1 H      57-111

          program call               : xtb data2507/toluene/4BPy-mDTC/4BPy-mDTC_toluene_S0_crest.xyz --gfn 2 --gbsa toluene --ohess vtight --parallel 40 --molden --ceasefiles --namespace data2507/toluene/4BPy-mDTC/4BPy-mDTC_toluene_S0_finalOpt
      * Solvation model:               GBSA
        Solvent                        toluene
        Solvent mass                       9.2140E+01 g/mol
          :  Hamiltonian                  GFN2-xTB          :
 * total energy  :  -152.4226870 Eh     change       -0.8068525E-08 Eh
 * total energy  :  -152.4227685 Eh     change       -0.8153537E-04 Eh
 * total energy  :  -152.4228156 Eh     change       -0.4708137E-04 Eh
 * total energy  :  -152.4228414 Eh     change       -0.2587155E-04 Eh
 * total energy  :  -152.4228637 Eh     change       -0.2229283E-04 Eh
 * total energy  :  -152.4228998 Eh     change       -0.3607784E-04 Eh
 * total energy  :  -152.4228787 Eh     change        0.2113684E-04 Eh
 * total energy  :  -152.4229093 Eh     change       -0.3058003E-04 Eh
 * total energy  :  -152.4229217 Eh     change       -0.1241534E-04 Eh
 * total energy  :  -152.4229284 Eh     change       -0.6769321E-05 Eh
 * total energy  :  -152.4230730 Eh     change       -0.4008201E-06 Eh
 * total energy  :  -152.4230734 Eh     change       -0.3124728E-06 Eh
 * total energy  :  -152.4230736 Eh     change       -0.2416442E-06 Eh
 * total energy  :  -152.4230738 Eh     change       -0.2113711E-06 Eh
 * total energy  :  -152.4230740 Eh     change       -0.2141980E-06 Eh
 * total energy  :  -152.4230742 Eh     change       -0.2257700E-06 Eh
 * total energy  :  -152.4230745 Eh     change       -0.2365281E-06 Eh
 * total energy  :  -152.4230747 Eh     change       -0.2051226E-06 Eh
 * total energy  :  -152.4230747 Eh     change       -0.1451582E-08 Eh
   *** GEOMETRY OPTIMIZATION CONVERGED AFTER 68 ITERATIONS ***

 final structure:
================
111
 xtb: 6.7.1 (edcfbbe)
C            8.01350523640634       -2.77003937857000       -2.13814589770881
C            7.63022178539500       -1.28559300211306       -2.23409870791076
C            7.55160575418355       -0.86291065315753       -3.70876315073551
C            8.73681723608128       -0.46593456057937       -1.56297285565853
C            6.27044890839646       -1.07812579908068       -1.58112661816153
C            5.16302139757402       -1.77162125607001       -2.08750026973353
C            3.89430216267696       -1.65423684905777       -1.55558382017365
C            3.72069563061298       -0.81662453346217       -0.46489774446051
C            4.81162426916899       -0.08412167435950        0.04541446134452
C            6.07764322088324       -0.22168130304820       -0.50925175377052
C            4.29761472269895        0.72316504699569        1.11897938673300
C            4.89616309893214        1.61922637342897        1.99533276724458
C            4.13371581320973        2.24432628437380        2.96882726701741
C            4.72018821377322        3.24386827175783        3.95639561298170
C            4.53042809555158        2.71292850236320        5.38517745743249
C            3.99575857163621        4.58945517289232        3.80059708993240
C            6.21689147825051        3.48224710169727        3.73335317827611
C            2.77028136780430        1.93150220054301        3.04973138574019
C            2.14984506473119        1.04495882547801        2.19194137302496
C            2.91700718463057        0.45001332455501        1.20252860728325
N            2.57368606470480       -0.48560781095812        0.23952987048192
C            1.29969491146802       -1.00299609616823        0.01064032168222
C            1.11716816979599       -2.37214514285503       -0.16026256359824
C           -0.15780690287499       -2.88346318774420       -0.38199872643535
C           -0.30915741248866       -4.34316359598023       -0.58409027652030
O            0.56928321965692       -5.02641733848231       -1.07751381031085
C           -1.59907059366089       -4.94223508599864       -0.13969254182393
C           -2.19032261102161       -4.57748974413084        1.06834089858430
C           -3.36835220403212       -5.20753215888416        1.43803890336339
N           -3.96597272003058       -6.12832216903153        0.70035302983160
C           -3.39993375574617       -6.47894773899109       -0.44226878864748
C           -2.21464907937907       -5.92892923634331       -0.90563457996194
C           -1.25499971648175       -2.03003813252666       -0.45626575749607
C           -1.07535678592261       -0.65794491377990       -0.29528015103608
N           -2.16321922177791        0.20930942465686       -0.39221037019875
C           -3.40427707964052        0.03140496816648        0.19841145979116
C           -3.85654731717628       -0.95677002564664        1.05851286501605
C           -5.15311345719298       -0.87010259672016        1.52480169748256
C           -6.02019565232148        0.17396966558051        1.17638837698209
C           -7.43730404755459        0.17083171094215        1.73313650591733
C           -8.15271906788797       -1.11098190178560        1.28033036044105
C           -7.37785633538408        0.21938269167818        3.26725778540719
C           -8.26111475810651        1.36910196969511        1.25121853984843
C           -5.54538499598544        1.17414271933490        0.34322229204856
C           -4.24541487822403        1.11034697258458       -0.14181080757960
C           -3.47467759490245        1.97930168964133       -0.98978766029983
C           -3.77328188416190        3.16938831335723       -1.64085276027252
C           -2.81520798718011        3.78025321575185       -2.43362838421238
C           -3.06884970730382        5.08909035147774       -3.16905116598703
C           -4.47094220782897        5.64831970301915       -2.90825650620785
C           -2.04569749610429        6.13602608874219       -2.70350619143494
C           -2.92238129959323        4.85477629554897       -4.68008303714630
C           -1.56856594499915        3.15564291631913       -2.57166022681890
C           -1.24501424212264        1.97355807278196       -1.93560076487791
C           -2.20035684917811        1.39008431637866       -1.11808992088147
C            0.19913730250656       -0.15146668168994       -0.05157529967014
H            7.29486587154892       -3.40078058329113       -2.65429823104488
H            8.05275340885402       -3.08156114472989       -1.09593856248386
H            8.99226766365490       -2.93387555111995       -2.58462297717014
H            7.25651031009545        0.18198435892994       -3.78525608853701
H            6.82809515976627       -1.46156765003184       -4.25540494244251
H            8.52237745958096       -0.98383125733628       -4.18525277397906
H            9.68394427400836       -0.65921236326496       -2.06303319881782
H            8.53217246182294        0.60001462507792       -1.63314517399365
H            8.84732876398211       -0.74133580886179       -0.51649414960466
H            5.29141160628036       -2.42944754382120       -2.93360553226870
H            3.06915682535678       -2.19830608827666       -1.99058227900920
H            6.88833659130104        0.35128012581615       -0.09146673337257
H            5.95283479640788        1.80447274202938        1.90002265264187
H            4.96615697767889        3.40528446310538        6.10270986222652
H            5.02052199616489        1.74731972261919        5.49538004277657
H            3.47837367817888        2.59008903077741        5.62750177027108
H            4.10883764373777        4.96163714630658        2.78404425661935
H            2.93421456453583        4.49648855692656        4.01281235254683
H            4.41660155815814        5.32284114552307        4.48552253466895
H            6.57977775080978        4.20854126029431        4.45814142665693
H            6.40598218015697        3.87804631091766        2.73795834909541
H            6.78390393175771        2.56370073427359        3.86702024492618
H            2.16569929304921        2.39378623310583        3.81510172259350
H            1.10012924782756        0.81997450331972        2.30760292942084
H            1.95226218779004       -3.05212595669367       -0.09442129246447
H           -1.72821647897722       -3.84225861839521        1.70890109239191
H           -3.86265622463143       -4.96430751419720        2.36952386268901
H           -3.92050632639545       -7.24075745680494       -1.00764119738040
H           -1.77330873339482       -6.24338167720489       -1.83876881913212
H           -2.23504315422149       -2.41806039159654       -0.68531828302937
H           -3.21952240195966       -1.77050650251566        1.36877380392132
H           -5.50045426232330       -1.64655172794380        2.18891170636235
H           -9.17604523194486       -1.11927725558465        1.65023538509300
H           -7.65073094962111       -2.00031328225060        1.65147995677030
H           -8.17830374509608       -1.16347046969397        0.19343014146610
H           -6.86623452739776       -0.64907685737138        3.67292375381956
H           -6.84772322705294        1.11172912147682        3.59496073705900
H           -8.38428519030878        0.24453506207995        3.68014665416011
H           -9.26427596841874        1.31006059034673        1.66909763001055
H           -8.34903505525003        1.37257512681322        0.16702012700170
H           -7.81711330533869        2.30692837237648        1.57763799862183
H           -6.16078174764792        2.01112913052220        0.05914764743064
H           -4.75633749771824        3.59157479466276       -1.51720912939620
H           -4.62191792816291        5.84721454866342       -1.84954417400427
H           -5.23837597159215        4.96062038596612       -3.25649760596720
H           -4.59223877682490        6.58622192475697       -3.44683410712196
H           -2.13313505928851        6.29651335721766       -1.63051637945720
H           -1.02817760750924        5.82120601707119       -2.91836145759271
H           -2.22253357087091        7.08290101439345       -3.20968929768538
H           -3.12917166047023        5.77453723900650       -5.22355846619051
H           -1.91838550637015        4.52735810352689       -4.93611477976003
H           -3.62429700918981        4.09193810881404       -5.01198428363662
H           -0.81812955318947        3.60539019951925       -3.20377998234425
H           -0.27811827964882        1.51916660378958       -2.09224433297505
H            0.33638129914922        0.91019517864833        0.08007773114528

          :  Hamiltonian                  GFN2-xTB          :
         :: gradient norm              0.000030300608 Eh/a0 ::
         :: HOMO-LUMO gap              1.441873316622 eV    ::
         :: SCC energy              -155.018636526544 Eh    ::
         :: -> dispersion             -0.139680278573 Eh    ::
         :: -> Gsolv                  -0.060620037015 Eh    ::
         :: repulsion energy           2.595561835701 Eh    ::

    * Orbital Energies and Occupations

         #    Occupation            Energy/Eh            Energy/eV
      -------------------------------------------------------------
         1        2.0000           -0.7270606             -19.7843
       ...           ...                  ...                  ...
       130        2.0000           -0.4157336             -11.3127
       131        2.0000           -0.4152716             -11.3001
       132        2.0000           -0.4102175             -11.1626
       133        2.0000           -0.4095946             -11.1456
       134        2.0000           -0.4076973             -11.0940
       135        2.0000           -0.4071909             -11.0802
       136        2.0000           -0.3980535             -10.8316
       137        2.0000           -0.3974565             -10.8153
       138        2.0000           -0.3824880             -10.4080
       139        2.0000           -0.3752852             -10.2120
       140        2.0000           -0.3746006             -10.1934
       141        2.0000           -0.3616433              -9.8408
       142        2.0000           -0.3609752              -9.8226 (HOMO)
       143                         -0.3079873              -8.3808 (LUMO)
       144                         -0.2618529              -7.1254
       145                         -0.2548397              -6.9345
       146                         -0.2519503              -6.8559
       147                         -0.2425353              -6.5997
       148                         -0.2391977              -6.5089
       149                         -0.2194793              -5.9723
       150                         -0.2187917              -5.9536
       151                         -0.2163893              -5.8883
       152                         -0.1900946              -5.1727
       153                         -0.1879705              -5.1149
       ...                                ...                  ...
       279                          0.7400170              20.1369
      -------------------------------------------------------------
                  HL-Gap            0.0529879 Eh            1.4419 eV

     #   Z          covCN         q      C6AA      α(0)
     1   6 C        3.761    -0.105    22.544     6.768
     2   6 C        3.902     0.025    20.099     6.373
     3   6 C        3.761    -0.105    22.546     6.769
     4   6 C        3.761    -0.107    22.591     6.776
     5   6 C        2.972    -0.001    28.053     8.688
     6   6 C        2.931    -0.040    28.982     8.829
     7   6 C        2.908    -0.054    29.339     8.882
     8   6 C        3.073     0.042    26.973     8.516
     9   6 C        3.065    -0.020    28.427     8.743
    10   6 C        2.918    -0.045    29.115     8.848
    11   6 C        3.066    -0.019    28.419     8.742
    12   6 C        2.918    -0.045    29.107     8.847
    13   6 C        2.972    -0.001    28.050     8.687
    14   6 C        3.902     0.025    20.099     6.373
    15   6 C        3.761    -0.105    22.549     6.769
    16   6 C        3.761    -0.105    22.552     6.770
    17   6 C        3.761    -0.107    22.589     6.775
    18   6 C        2.931    -0.040    28.992     8.830
    19   6 C        2.908    -0.055    29.363     8.885
    20   6 C        3.072     0.042    26.982     8.517
    21   7 N        2.801    -0.046    22.136     6.988
    22   6 C        2.908     0.072    26.386     8.423
    23   6 C        2.926    -0.040    28.989     8.830
    24   6 C        2.971    -0.012    28.315     8.728
    25   6 C        2.828     0.232    23.144     7.883
    26   8 O        0.858    -0.395    21.579     6.228
    27   6 C        2.982     0.007    27.857     8.658
    28   6 C        2.915    -0.035    28.863     8.810
    29   6 C        2.911     0.063    26.599     8.457
    30   7 N        1.836    -0.218    26.588     7.641
    31   6 C        2.910     0.062    26.603     8.458
    32   6 C        2.916    -0.028    28.696     8.784
    33   6 C        2.923    -0.049    29.210     8.863
    34   6 C        2.908     0.072    26.391     8.424
    35   7 N        2.801    -0.046    22.129     6.987
    36   6 C        3.073     0.041    26.999     8.519
    37   6 C        2.909    -0.056    29.388     8.889
    38   6 C        2.931    -0.040    28.994     8.831
    39   6 C        2.972    -0.001    28.043     8.686
    40   6 C        3.902     0.025    20.098     6.372
    41   6 C        3.761    -0.105    22.553     6.770
    42   6 C        3.761    -0.105    22.552     6.770
    43   6 C        3.761    -0.107    22.590     6.775
    44   6 C        2.918    -0.044    29.104     8.847
    45   6 C        3.065    -0.019    28.419     8.742
    46   6 C        3.066    -0.019    28.418     8.741
    47   6 C        2.918    -0.045    29.106     8.847
    48   6 C        2.972    -0.001    28.046     8.687
    49   6 C        3.902     0.025    20.098     6.373
    50   6 C        3.761    -0.107    22.591     6.776
    51   6 C        3.761    -0.105    22.551     6.770
    52   6 C        3.761    -0.105    22.547     6.769
    53   6 C        2.931    -0.040    28.986     8.829
    54   6 C        2.909    -0.055    29.357     8.884
    55   6 C        3.072     0.042    26.986     8.518
    56   6 C        2.926    -0.055    29.369     8.887
    57   1 H        0.925     0.035     2.516     2.480
    58   1 H        0.925     0.032     2.557     2.501
    59   1 H        0.925     0.038     2.475     2.460
    60   1 H        0.925     0.033     2.550     2.497
    61   1 H        0.925     0.035     2.514     2.480
    62   1 H        0.925     0.038     2.473     2.459
    63   1 H        0.925     0.037     2.489     2.467
    64   1 H        0.925     0.036     2.499     2.472
    65   1 H        0.925     0.036     2.503     2.474
    66   1 H        0.926     0.030     2.581     2.512
    67   1 H        0.926     0.025     2.653     2.547
    68   1 H        0.926     0.041     2.440     2.443
    69   1 H        0.926     0.040     2.445     2.445
    70   1 H        0.925     0.038     2.474     2.460
    71   1 H        0.925     0.032     2.557     2.501
    72   1 H        0.925     0.036     2.507     2.476
    73   1 H        0.925     0.033     2.549     2.497
    74   1 H        0.925     0.036     2.503     2.474
    75   1 H        0.925     0.038     2.476     2.461
    76   1 H        0.925     0.037     2.492     2.468
    77   1 H        0.925     0.036     2.503     2.474
    78   1 H        0.925     0.036     2.507     2.476
    79   1 H        0.926     0.032     2.560     2.502
    80   1 H        0.926     0.026     2.642     2.542
    81   1 H        0.926     0.058     2.222     2.331
    82   1 H        0.926     0.050     2.325     2.384
    83   1 H        0.925     0.052     2.291     2.367
    84   1 H        0.925     0.052     2.298     2.371
    85   1 H        0.926     0.053     2.278     2.360
    86   1 H        0.926     0.051     2.312     2.378
    87   1 H        0.926     0.024     2.674     2.557
    88   1 H        0.926     0.032     2.557     2.501
    89   1 H        0.925     0.038     2.472     2.458
    90   1 H        0.925     0.036     2.499     2.472
    91   1 H        0.925     0.032     2.559     2.501
    92   1 H        0.925     0.036     2.503     2.474
    93   1 H        0.925     0.033     2.551     2.498
    94   1 H        0.925     0.038     2.471     2.458
    95   1 H        0.925     0.037     2.490     2.468
    96   1 H        0.925     0.036     2.506     2.476
    97   1 H        0.925     0.036     2.503     2.474
    98   1 H        0.926     0.041     2.440     2.442
    99   1 H        0.926     0.041     2.439     2.442
   100   1 H        0.925     0.036     2.500     2.472
   101   1 H        0.925     0.036     2.505     2.475
   102   1 H        0.925     0.037     2.491     2.468
   103   1 H        0.925     0.033     2.547     2.496
   104   1 H        0.925     0.036     2.507     2.476
   105   1 H        0.925     0.038     2.476     2.461
   106   1 H        0.925     0.038     2.474     2.460
   107   1 H        0.925     0.035     2.511     2.478
   108   1 H        0.925     0.032     2.557     2.501
   109   1 H        0.926     0.031     2.566     2.505
   110   1 H        0.926     0.026     2.650     2.546
   111   1 H        0.926     0.063     2.165     2.301

molecular dipole:
                 x           y           z       tot (Debye)
 q only:       -0.491       1.554       0.474
   full:       -0.246       1.538       0.342       4.054

 projected vibrational frequencies (cm⁻¹)
eigval :       -0.00    -0.00     0.00     0.00     0.00     0.00
eigval :       10.26    10.33    12.34    13.41    23.47    26.23
eigval :       29.92    32.57    33.98    36.81    45.07    46.87
eigval :       61.44    63.30    66.20    68.38    75.71    84.40
eigval :       87.42   107.13   108.78   126.82   142.10   154.11
eigval :      157.76   161.85   171.61   176.97   179.85   185.00
eigval :      192.76   199.49   201.50   203.07   215.15   219.26
eigval :      220.90   223.70   225.94   230.78   236.66   239.67
eigval :      243.85   258.43   259.27   272.04   282.91   285.26
eigval :      291.57   313.27   314.75   317.14   319.91   323.75
eigval :      328.45   331.29   337.20   339.42   344.63   349.45
eigval :      359.33   359.88   363.12   366.90   373.91   381.47
eigval :      397.15   398.71   407.59   410.36   411.53   437.75
eigval :      440.32   440.66   442.44   443.90   458.80   461.34
eigval :      462.71   463.57   465.45   466.24   488.72   512.52
eigval :      520.46   540.12   556.35   575.05   579.55   584.28
eigval :      584.78   595.29   600.88   623.86   625.37   640.32
eigval :      640.60   640.65   644.04   664.93   669.02   687.55
eigval :      688.03   692.64   703.92   706.70   708.83   718.82
eigval :      721.78   726.65   766.62   785.06   805.73   816.15
eigval :      819.23   821.81   823.32   830.72   832.42   846.25
eigval :      864.17   869.82   871.41   872.81   873.54   876.21
eigval :      886.91   888.82   898.60   901.95   913.83   914.86
eigval :      915.53   918.08   922.79   923.43   924.14   926.43
eigval :      933.95   934.47   958.47   958.93   959.13   959.59
eigval :      961.01   961.29   962.05   962.22   962.68   962.78
eigval :      964.19   964.35   989.81  1001.54  1028.11  1030.21
eigval :     1033.33  1034.53  1034.61  1034.80  1035.29  1035.81
eigval :     1037.60  1039.59  1044.08  1051.78  1092.84  1109.98
eigval :     1113.82  1117.55  1129.48  1129.76  1141.02  1142.96
eigval :     1164.05  1175.83  1177.27  1191.63  1197.60  1215.79
eigval :     1225.43  1225.50  1225.61  1225.81  1227.01  1229.37
eigval :     1229.53  1230.69  1232.60  1235.02  1235.68  1236.09
eigval :     1239.07  1248.23  1254.88  1257.77  1267.06  1272.03
eigval :     1282.69  1283.82  1296.08  1304.75  1305.66  1308.20
eigval :     1323.66  1340.50  1344.23  1344.92  1354.53  1358.03
eigval :     1369.03  1389.96  1399.30  1399.85  1401.25  1401.99
eigval :     1402.32  1402.59  1403.83  1404.78  1409.87  1410.54
eigval :     1426.24  1426.70  1427.48  1428.63  1430.88  1432.03
eigval :     1450.20  1451.82  1459.65  1480.50  1480.94  1482.45
eigval :     1482.55  1489.03  1489.37  1489.59  1489.71  1491.29
eigval :     1491.37  1492.02  1492.61  1498.32  1498.69  1498.82
eigval :     1499.05  1502.07  1502.47  1502.69  1502.98  1510.87
eigval :     1511.49  1511.51  1511.71  1517.01  1517.30  1517.87
eigval :     1518.22  1549.67  1555.89  1560.13  1569.73  1570.43
eigval :     1571.09  1580.65  1581.16  1603.35  1603.65  1614.43
eigval :     1614.85  1674.09  3018.66  3018.77  3019.15  3019.30
eigval :     3019.67  3019.71  3020.01  3020.14  3022.92  3023.01
eigval :     3023.17  3023.35  3024.55  3024.66  3024.70  3024.80
eigval :     3026.49  3026.85  3026.94  3027.11  3030.31  3030.31
eigval :     3030.44  3030.52  3035.09  3035.17  3035.27  3035.45
eigval :     3043.22  3043.58  3043.93  3044.48  3046.63  3046.96
eigval :     3047.10  3047.42  3059.37  3059.87  3076.55  3076.79
eigval :     3077.14  3084.79  3090.31  3090.81  3091.31  3091.36
eigval :     3096.53  3096.89  3104.65  3106.11  3111.52  3116.44
eigval :     3116.87  3119.54  3119.55

   temp. (K)  partition function   enthalpy   heat capacity  entropy
                                   cal/mol     cal/K/mol   cal/K/mol   J/K/mol
 298.15  VIB  0.214E+26            32280.575    196.289    200.981
         ROT  0.158E+09              888.752      2.981     40.502
         INT  0.339E+34            33169.327    199.270    241.483
         TR   0.194E+29             1481.254      4.968     45.655
         TOT                       34650.5810   204.2379   287.1383  1201.3866

       T/K    H(0)-H(T)+PV         H(T)/Eh          T*S/Eh         G(T)/Eh
   ------------------------------------------------------------------------
    298.15    0.552192E-01    0.975790E+00    0.136429E+00    0.839362E+00
   ------------------------------------------------------------------------

         :::::::::::::::::::::::::::::::::::::::::::::::::::::
         ::                  THERMODYNAMIC                  ::
         :::::::::::::::::::::::::::::::::::::::::::::::::::::
         :: total free energy        -151.583712931822 Eh   ::
         ::.................................................::
         :: total energy             -152.423074690372 Eh   ::
         :: zero point energy           0.920571204831 Eh   ::
         :: G(RRHO) w/o ZPVE           -0.081209446280 Eh   ::
         :: G(RRHO) contrib.            0.839361758551 Eh   ::
         :::::::::::::::::::::::::::::::::::::::::::::::::::::

           -------------------------------------------------
          | TOTAL ENERGY             -152.423074690372 Eh   |
          | TOTAL ENTHALPY           -151.447284269931 Eh   |
          | TOTAL FREE ENERGY        -151.583712931822 Eh   |
          | GRADIENT NORM               0.000030300000 Eh/α |
          | HOMO-LUMO GAP               1.441873235898 eV   |
           -------------------------------------------------

 * finished run on 2025/09/13 at 20:43:39.447
