   * xtb version 6.7.1 (edcfbbe) compiled by 'albert@albert-system' on 2024-07-22

   ID    Z sym.   atoms
    1    6 C      1-20, 22-25, 27-29, 31-34, 36-56
    2    7 N      21, 30, 35
    3    8 O      26
    4    1 H      57-111

          program call               : xtb data2507/toluene/4BPy-mDTC/4BPy-mDTC.xyz --gfn 2 --gbsa toluene --ohess vtight --parallel 40 --molden --ceasefiles --namespace data2507/toluene/4BPy-mDTC/4BPy-mDTC_toluene_S0_preOpt
      * Solvation model:               GBSA
        Solvent                        toluene
        Solvent mass                       9.2140E+01 g/mol
          :  Hamiltonian                  GFN2-xTB          :
 * total energy  :  -152.3972051 Eh     change       -0.1987274E-08 Eh
 * total energy  :  -152.4136944 Eh     change       -0.1648931E-01 Eh
 * total energy  :  -152.4183944 Eh     change       -0.4699933E-02 Eh
 * total energy  :  -152.4197480 Eh     change       -0.1353597E-02 Eh
 * total energy  :  -152.4205079 Eh     change       -0.7599395E-03 Eh
 * total energy  :  -152.4207410 Eh     change       -0.2330989E-03 Eh
 * total energy  :  -152.4208789 Eh     change       -0.1379177E-03 Eh
 * total energy  :  -152.4209917 Eh     change       -0.1127503E-03 Eh
 * total energy  :  -152.4210809 Eh     change       -0.8918545E-04 Eh
 * total energy  :  -152.4211375 Eh     change       -0.5661821E-04 Eh
 * total energy  :  -152.4214768 Eh     change       -0.5196382E-06 Eh
 * total energy  :  -152.4214774 Eh     change       -0.5772879E-06 Eh
 * total energy  :  -152.4214779 Eh     change       -0.4944498E-06 Eh
 * total energy  :  -152.4214783 Eh     change       -0.4525859E-06 Eh
 * total energy  :  -152.4214788 Eh     change       -0.4660212E-06 Eh
 * total energy  :  -152.4214793 Eh     change       -0.5201587E-06 Eh
 * total energy  :  -152.4214799 Eh     change       -0.6151322E-06 Eh
 * total energy  :  -152.4214806 Eh     change       -0.7168076E-06 Eh
 * total energy  :  -152.4214806 Eh     change       -0.5518359E-08 Eh
   *** GEOMETRY OPTIMIZATION CONVERGED AFTER 68 ITERATIONS ***

 final structure:
================
111
 xtb: 6.7.1 (edcfbbe)
C            8.71114728798316       -0.64926926451090       -1.19244250943292
C            7.68892640650463       -1.72703325628964       -1.56693996216056
C            8.18724147236700       -3.06980171504814       -1.01164275653283
C            7.60933080252548       -1.79527702811114       -3.09949253362715
C            6.30378571783881       -1.44015791514710       -1.00362416360389
C            5.26288589332908       -2.33832125120342       -1.27362875800957
C            3.97867685240872       -2.16644965608970       -0.79630896237338
C            3.71996053699686       -1.05849215256416       -0.00479231725130
C            4.74213396943884       -0.12437112810336        0.25841461711992
C            6.02461324453329       -0.32016988159623       -0.23690531637940
C            4.14734543871765        0.92301058573155        1.04482591788829
C            4.65252932368119        2.08124901556450        1.61360620701672
C            3.82456211596875        2.91005639708109        2.36021931921028
C            4.40147099322578        4.18367061810471        2.96457796800296
C            5.53471665636571        3.81073282780123        3.93218754108293
C            3.36267857511761        4.99922867609506        3.74056967359488
C            4.95261575619872        5.06893858189141        1.83642197709684
C            2.49108822411919        2.53113392623508        2.53651377891877
C            1.96096854758219        1.37963498370761        1.98103249719917
C            2.78864504712665        0.57955045240942        1.21209912372570
N            2.53703686677891       -0.62399644203858        0.57197606626985
C            1.31348164179538       -1.29010821369936        0.51752374849009
C            1.24574024863746       -2.65554010548147        0.77610033964446
C            0.02808193693972       -3.32492022785936        0.68886103247645
C            0.00738072343285       -4.77758722720172        0.97716880388191
O            0.84334886237094       -5.30870703260038        1.68628071240246
C           -1.08571367747199       -5.57765563341068        0.35507560591917
C           -1.68219291821595       -6.60701546430659        1.08011766315565
C           -2.67561742659229       -7.35566995328348        0.46885192709920
N           -3.07397042901033       -7.15492144758362       -0.77631081347126
C           -2.49224665704769       -6.19163119237322       -1.47123838657898
C           -1.49895125274665       -5.37035738799414       -0.95971621406712
C           -1.13522175199334       -2.62496024103644        0.38060449526228
C           -1.07806051638635       -1.25066043763907        0.16070124963846
N           -2.24364152723220       -0.54011860018580       -0.12666392618330
C           -3.44586340838352       -0.64449363698322        0.55590837795589
C           -3.78455101158037       -1.39210768154106        1.67075789767318
C           -5.06986495976401       -1.28017962565065        2.17195226309221
C           -6.02996531090603       -0.43706361233942        1.60659294899462
C           -7.44491023736468       -0.32063501103426        2.15814804396318
C           -7.69021215971948        1.12815362425685        2.60632971063670
C           -8.44558049030069       -0.69954961497117        1.05588612867972
C           -7.69391190820274       -1.23786007445185        3.35944693918613
C           -5.66735679814148        0.33125104625239        0.50729752184973
C           -4.38783917663749        0.23721629488163       -0.01572259221864
C           -3.71990151660344        0.90286178911036       -1.10242226431827
C           -4.13143236138909        1.84913313635575       -2.02710679446927
C           -3.24927487421617        2.30414607489094       -2.99918160799124
C           -3.72041390566094        3.35818342682212       -3.99256339024198
C           -2.63165325307330        3.76829589617818       -4.98899038779585
C           -4.91074350930162        2.80239419361441       -4.78858533581341
C           -4.15313070666170        4.61341769246906       -3.21965074903513
C           -1.96057589275340        1.76516394700574       -3.02946428974576
C           -1.52412195842410        0.81819199881667       -2.11921295653145
C           -2.40200385830948        0.39931984169150       -1.13411791241161
C            0.14725943177478       -0.59077401537085        0.21574917749350
H            9.68034111778707       -0.90721045501554       -1.61503241058064
H            8.82497446968939       -0.57577277876192       -0.11317182806845
H            8.41972815731913        0.32084270436877       -1.58885141165945
H            7.53021911007618       -3.88660838548680       -1.29794911111144
H            8.23156000570331       -3.03420466744485        0.07535170980728
H            9.18396512841860       -3.28560154301524       -1.39114360744110
H            8.59857449181022       -1.96927601874184       -3.51794982376892
H            6.95602277022944       -2.59877039648509       -3.42843802243768
H            7.22513810578161       -0.85820701186298       -3.49810552598829
H            5.45836827863794       -3.20751779913473       -1.88310491051076
H            3.20481863527796       -2.87697063662292       -1.04633315267867
H            6.78060656359317        0.41399469982931       -0.01441276224325
H            5.69481129857407        2.32034746892384        1.47026596836736
H            5.94969114641225        4.70794222145810        4.38703561967526
H            6.33703517349555        3.28671164712802        3.42002741293494
H            5.15722795589997        3.16547526981676        4.72333082592501
H            2.54145606059412        5.30304319651900        3.09518780971763
H            2.96716215198815        4.43331877280074        4.58105229874717
H            3.83089804208287        5.89953109684557        4.13408490061450
H            5.35738288658671        5.99140784292096        2.24786312339432
H            4.15911668185215        5.32234100698444        1.13585284877861
H            5.74378940894315        4.56618047108744        1.28713918617905
H            1.83138107363068        3.14311037266211        3.12911252960016
H            0.92987454993244        1.11674424152933        2.16442226210432
H            2.12917514376730       -3.20904764996139        1.05443985399701
H           -1.37253679276064       -6.80148480651878        2.09545175558049
H           -3.17409326592364       -8.15883746054265        0.99554765571991
H           -2.84437068534555       -6.07207513315090       -2.48756204453956
H           -1.04644885407773       -4.60459796698325       -1.57028695257312
H           -2.08353362136593       -3.13451229204778        0.31901950076841
H           -3.07044452445817       -2.04077617798464        2.15623557092747
H           -5.31659166983133       -1.87299265915042        3.03718047656646
H           -8.69167352984630        1.22797415240948        3.02001818093956
H           -7.59470028282942        1.82203775742454        1.77564875645512
H           -6.97039799625776        1.41225895661887        3.37174538797840
H           -8.36095322963182       -0.03822270300024        0.19798301550999
H           -8.26638888491295       -1.71898361880861        0.71909770608591
H           -9.46330062950572       -0.63533868289714        1.43558792128374
H           -8.72056241459765       -1.11653977943822        3.69974921301665
H           -7.03507562556274       -0.98725082984659        4.18792161450842
H           -7.55083594404876       -2.28241063988624        3.09153897636161
H           -6.36844918977481        1.01245763794235        0.05069001722571
H           -5.14378414327067        2.21912705714695       -1.97880617219693
H           -3.02541332359994        4.52852703322408       -5.66097278837129
H           -2.31188815910345        2.92187563258624       -5.59274912715387
H           -1.76925037920643        4.18856396854413       -4.47619075270311
H           -4.61771272969337        1.90124247097597       -5.32408687791502
H           -5.74297725780657        2.55423711053462       -4.13562731095984
H           -5.25382194091080        3.53829591369065       -5.51302403429139
H           -3.32057199113443        5.00022721097663       -2.63487187238940
H           -4.47765956460608        5.38734653793057       -3.91231655933783
H           -4.97408854364387        4.39874274610128       -2.54110508349167
H           -1.26207214224442        2.08325144278639       -3.78557682607027
H           -0.52498701802122        0.41630346724100       -2.19640020009649
H            0.19253580617477        0.47066508451183        0.03041369547211

          :  Hamiltonian                  GFN2-xTB          :
         :: gradient norm              0.000057692523 Eh/a0 ::
         :: HOMO-LUMO gap              1.421199361721 eV    ::
         :: SCC energy              -155.016213511753 Eh    ::
         :: -> dispersion             -0.138224835084 Eh    ::
         :: -> Gsolv                  -0.061226734509 Eh    ::
         :: repulsion energy           2.594732869886 Eh    ::

    * Orbital Energies and Occupations

         #    Occupation            Energy/Eh            Energy/eV
      -------------------------------------------------------------
         1        2.0000           -0.7261909             -19.7607
       ...           ...                  ...                  ...
       130        2.0000           -0.4166641             -11.3380
       131        2.0000           -0.4147991             -11.2873
       132        2.0000           -0.4096757             -11.1478
       133        2.0000           -0.4093872             -11.1400
       134        2.0000           -0.4087951             -11.1239
       135        2.0000           -0.4076699             -11.0933
       136        2.0000           -0.3970239             -10.8036
       137        2.0000           -0.3969966             -10.8028
       138        2.0000           -0.3818906             -10.3918
       139        2.0000           -0.3770647             -10.2605
       140        2.0000           -0.3756379             -10.2216
       141        2.0000           -0.3611561              -9.8276
       142        2.0000           -0.3608050              -9.8180 (HOMO)
       143                         -0.3085768              -8.3968 (LUMO)
       144                         -0.2615092              -7.1160
       145                         -0.2541678              -6.9163
       146                         -0.2515700              -6.8456
       147                         -0.2429905              -6.6121
       148                         -0.2400116              -6.5310
       149                         -0.2209546              -6.0125
       150                         -0.2196327              -5.9765
       151                         -0.2147953              -5.8449
       152                         -0.1909639              -5.1964
       153                         -0.1885324              -5.1302
       ...                                ...                  ...
       279                          0.7435879              20.2341
      -------------------------------------------------------------
                  HL-Gap            0.0522281 Eh            1.4212 eV

     #   Z          covCN         q      C6AA      α(0)
     1   6 C        3.761    -0.107    22.588     6.775
     2   6 C        3.902     0.025    20.098     6.373
     3   6 C        3.761    -0.105    22.544     6.768
     4   6 C        3.761    -0.105    22.550     6.769
     5   6 C        2.972    -0.001    28.051     8.688
     6   6 C        2.931    -0.040    28.986     8.829
     7   6 C        2.909    -0.054    29.343     8.882
     8   6 C        3.073     0.043    26.964     8.514
     9   6 C        3.064    -0.019    28.419     8.742
    10   6 C        2.918    -0.044    29.102     8.846
    11   6 C        3.065    -0.019    28.406     8.740
    12   6 C        2.920    -0.040    29.000     8.831
    13   6 C        2.972    -0.001    28.048     8.687
    14   6 C        3.902     0.025    20.098     6.373
    15   6 C        3.761    -0.105    22.546     6.769
    16   6 C        3.761    -0.107    22.589     6.775
    17   6 C        3.761    -0.105    22.552     6.770
    18   6 C        2.928    -0.044    29.098     8.846
    19   6 C        2.909    -0.055    29.370     8.886
    20   6 C        3.070     0.043    26.974     8.516
    21   7 N        2.801    -0.046    22.133     6.987
    22   6 C        2.908     0.072    26.388     8.423
    23   6 C        2.927    -0.039    28.974     8.827
    24   6 C        2.970    -0.012    28.321     8.729
    25   6 C        2.828     0.231    23.163     7.886
    26   8 O        0.858    -0.397    21.611     6.233
    27   6 C        2.981     0.007    27.855     8.657
    28   6 C        2.917    -0.028    28.693     8.784
    29   6 C        2.910     0.062    26.610     8.459
    30   7 N        1.836    -0.218    26.598     7.643
    31   6 C        2.911     0.062    26.618     8.460
    32   6 C        2.915    -0.036    28.896     8.815
    33   6 C        2.923    -0.049    29.223     8.865
    34   6 C        2.908     0.072    26.397     8.425
    35   7 N        2.800    -0.047    22.139     6.988
    36   6 C        3.070     0.042    26.985     8.518
    37   6 C        2.909    -0.056    29.379     8.888
    38   6 C        2.928    -0.044    29.099     8.846
    39   6 C        2.972    -0.001    28.047     8.687
    40   6 C        3.902     0.025    20.098     6.372
    41   6 C        3.761    -0.105    22.547     6.769
    42   6 C        3.761    -0.105    22.550     6.769
    43   6 C        3.761    -0.107    22.586     6.775
    44   6 C        2.920    -0.040    28.991     8.830
    45   6 C        3.063    -0.018    28.403     8.739
    46   6 C        3.063    -0.018    28.403     8.739
    47   6 C        2.920    -0.040    28.988     8.829
    48   6 C        2.972    -0.001    28.044     8.686
    49   6 C        3.902     0.025    20.097     6.372
    50   6 C        3.761    -0.107    22.590     6.775
    51   6 C        3.761    -0.105    22.548     6.769
    52   6 C        3.761    -0.105    22.548     6.769
    53   6 C        2.928    -0.044    29.092     8.845
    54   6 C        2.909    -0.055    29.373     8.887
    55   6 C        3.069     0.042    26.978     8.517
    56   6 C        2.926    -0.055    29.379     8.889
    57   1 H        0.925     0.037     2.488     2.467
    58   1 H        0.925     0.036     2.506     2.476
    59   1 H        0.925     0.036     2.501     2.473
    60   1 H        0.925     0.035     2.517     2.481
    61   1 H        0.925     0.032     2.557     2.501
    62   1 H        0.925     0.038     2.473     2.459
    63   1 H        0.925     0.038     2.472     2.459
    64   1 H        0.925     0.035     2.511     2.478
    65   1 H        0.925     0.033     2.547     2.496
    66   1 H        0.926     0.031     2.577     2.510
    67   1 H        0.926     0.023     2.686     2.563
    68   1 H        0.926     0.040     2.449     2.447
    69   1 H        0.926     0.033     2.540     2.492
    70   1 H        0.925     0.038     2.474     2.460
    71   1 H        0.925     0.036     2.498     2.472
    72   1 H        0.925     0.032     2.562     2.503
    73   1 H        0.925     0.036     2.509     2.477
    74   1 H        0.925     0.035     2.516     2.481
    75   1 H        0.925     0.037     2.487     2.466
    76   1 H        0.925     0.038     2.477     2.461
    77   1 H        0.925     0.032     2.552     2.498
    78   1 H        0.925     0.037     2.494     2.470
    79   1 H        0.926     0.039     2.464     2.455
    80   1 H        0.926     0.026     2.647     2.544
    81   1 H        0.926     0.060     2.202     2.320
    82   1 H        0.926     0.054     2.274     2.358
    83   1 H        0.925     0.051     2.302     2.373
    84   1 H        0.925     0.052     2.293     2.368
    85   1 H        0.926     0.053     2.287     2.365
    86   1 H        0.926     0.053     2.285     2.364
    87   1 H        0.926     0.022     2.696     2.568
    88   1 H        0.926     0.038     2.478     2.461
    89   1 H        0.925     0.038     2.472     2.459
    90   1 H        0.925     0.037     2.496     2.470
    91   1 H        0.925     0.032     2.558     2.501
    92   1 H        0.925     0.037     2.494     2.470
    93   1 H        0.925     0.032     2.555     2.500
    94   1 H        0.925     0.038     2.473     2.459
    95   1 H        0.925     0.037     2.484     2.465
    96   1 H        0.925     0.035     2.517     2.481
    97   1 H        0.925     0.035     2.516     2.481
    98   1 H        0.926     0.033     2.543     2.494
    99   1 H        0.926     0.033     2.551     2.498
   100   1 H        0.925     0.037     2.488     2.466
   101   1 H        0.925     0.035     2.512     2.479
   102   1 H        0.925     0.035     2.510     2.478
   103   1 H        0.925     0.032     2.555     2.500
   104   1 H        0.925     0.036     2.500     2.472
   105   1 H        0.925     0.038     2.475     2.460
   106   1 H        0.925     0.032     2.555     2.500
   107   1 H        0.925     0.038     2.477     2.461
   108   1 H        0.925     0.036     2.499     2.472
   109   1 H        0.926     0.039     2.459     2.452
   110   1 H        0.926     0.027     2.635     2.538
   111   1 H        0.926     0.063     2.166     2.302

molecular dipole:
                 x           y           z       tot (Debye)
 q only:       -0.525       1.480      -0.707
   full:       -0.325       1.527      -0.552       4.208

 projected vibrational frequencies (cm⁻¹)
eigval :       -0.00    -0.00    -0.00     0.00     0.00     0.00
eigval :        9.01    10.80    12.71    13.61    20.92    26.45
eigval :       30.58    31.49    32.28    34.42    43.17    44.90
eigval :       56.77    64.05    66.89    70.47    73.63    83.78
eigval :       86.54   106.20   112.07   124.65   146.66   153.06
eigval :      155.62   161.34   173.22   178.89   180.76   182.10
eigval :      189.79   194.34   197.82   200.24   216.95   221.58
eigval :      222.05   226.38   232.18   236.72   240.26   250.40
eigval :      260.78   264.37   268.07   275.02   286.20   303.49
eigval :      305.83   309.68   309.70   317.24   318.67   324.39
eigval :      327.36   327.87   328.07   334.71   340.88   348.23
eigval :      355.19   357.55   366.10   369.17   373.67   381.62
eigval :      396.61   400.20   408.05   411.31   412.24   437.61
eigval :      440.98   442.17   444.11   445.82   460.27   461.17
eigval :      461.65   462.62   467.89   471.16   481.61   512.32
eigval :      521.36   539.72   570.60   574.21   577.88   582.07
eigval :      583.58   590.03   601.13   621.54   625.40   638.79
eigval :      638.95   639.65   640.46   666.84   670.54   686.96
eigval :      688.55   691.93   703.35   706.46   709.29   718.39
eigval :      720.40   728.24   765.90   784.53   807.03   815.37
eigval :      818.49   819.58   820.91   831.84   833.89   851.48
eigval :      870.71   872.17   873.03   878.06   882.29   884.47
eigval :      887.42   894.44   896.98   901.28   909.26   912.83
eigval :      914.74   917.26   922.49   923.71   924.77   925.95
eigval :      932.31   933.93   958.16   959.16   959.17   959.61
eigval :      961.05   961.50   962.02   962.20   962.60   963.31
eigval :      963.57   964.63   990.50  1001.58  1029.49  1032.07
eigval :     1034.23  1034.52  1034.76  1035.44  1035.73  1035.92
eigval :     1036.79  1037.27  1044.46  1051.93  1092.39  1110.33
eigval :     1114.34  1118.80  1129.47  1130.90  1139.55  1143.50
eigval :     1164.27  1177.67  1180.76  1194.81  1197.51  1216.04
eigval :     1224.91  1225.10  1225.51  1225.73  1225.78  1226.70
eigval :     1227.47  1229.94  1231.28  1233.55  1235.75  1239.21
eigval :     1244.92  1252.10  1254.42  1257.54  1268.08  1271.53
eigval :     1283.38  1284.39  1294.28  1300.43  1301.03  1305.49
eigval :     1324.73  1336.96  1345.80  1348.69  1358.16  1362.89
eigval :     1368.76  1389.59  1399.45  1399.66  1401.64  1402.11
eigval :     1402.48  1402.62  1403.09  1404.66  1410.10  1410.94
eigval :     1426.43  1426.75  1427.42  1427.45  1430.47  1431.57
eigval :     1449.62  1451.33  1460.16  1472.84  1473.09  1473.41
eigval :     1481.47  1488.62  1489.12  1489.37  1489.86  1491.11
eigval :     1492.40  1492.76  1493.16  1499.06  1499.60  1500.44
eigval :     1500.93  1502.18  1502.65  1502.73  1503.12  1511.53
eigval :     1511.66  1511.99  1513.12  1517.55  1517.74  1517.78
eigval :     1518.32  1548.87  1556.96  1561.25  1570.19  1571.16
eigval :     1572.51  1582.94  1584.51  1603.85  1604.42  1616.30
eigval :     1617.81  1669.05  3018.35  3018.48  3019.05  3019.08
eigval :     3019.19  3019.86  3020.05  3020.21  3022.80  3022.96
eigval :     3022.97  3023.11  3024.29  3024.47  3024.73  3025.10
eigval :     3026.54  3026.88  3027.00  3027.08  3029.66  3029.99
eigval :     3030.39  3030.46  3034.93  3035.27  3035.30  3035.76
eigval :     3043.22  3043.88  3044.07  3044.62  3046.66  3047.47
eigval :     3047.57  3048.15  3059.08  3060.53  3075.03  3076.00
eigval :     3079.11  3080.59  3088.52  3089.89  3090.49  3091.31
eigval :     3094.71  3095.72  3105.49  3109.79  3113.00  3116.73
eigval :     3117.26  3117.74  3118.71

   temp. (K)  partition function   enthalpy   heat capacity  entropy
                                   cal/mol     cal/K/mol   cal/K/mol   J/K/mol
 298.15  VIB  0.278E+26            32239.001    195.912    200.709
         ROT  0.160E+09              888.752      2.981     40.516
         INT  0.443E+34            33127.753    198.893    241.225
         TR   0.194E+29             1481.254      4.968     45.655
         TOT                       34609.0070   203.8611   286.8799  1200.3056

       T/K    H(0)-H(T)+PV         H(T)/Eh          T*S/Eh         G(T)/Eh
   ------------------------------------------------------------------------
    298.15    0.551530E-01    0.975901E+00    0.136306E+00    0.839595E+00
   ------------------------------------------------------------------------

         :::::::::::::::::::::::::::::::::::::::::::::::::::::
         ::                  THERMODYNAMIC                  ::
         :::::::::::::::::::::::::::::::::::::::::::::::::::::
         :: total free energy        -151.581885462153 Eh   ::
         ::.................................................::
         :: total energy             -152.421480637749 Eh   ::
         :: zero point energy           0.920748122307 Eh   ::
         :: G(RRHO) w/o ZPVE           -0.081152946711 Eh   ::
         :: G(RRHO) contrib.            0.839595175596 Eh   ::
         :::::::::::::::::::::::::::::::::::::::::::::::::::::

           -------------------------------------------------
          | TOTAL ENERGY             -152.421480637749 Eh   |
          | TOTAL ENTHALPY           -151.445579552128 Eh   |
          | TOTAL FREE ENERGY        -151.581885462153 Eh   |
          | GRADIENT NORM               0.000057698285 Eh/α |
          | HOMO-LUMO GAP               1.421199795322 eV   |
           -------------------------------------------------

 * finished run on 2025/09/13 at 20:20:31.937
