   * xtb version 6.7.1 (edcfbbe) compiled by 'albert@albert-system' on 2024-07-22

   ID    Z sym.   atoms
    1    6 C      1-20, 22-25, 27-29, 31-34, 36-56
    2    7 N      21, 30, 35
    3    8 O      26
    4    1 H      57-111

          program call               : xtb data2507/toluene/4BPy-mDTC/4BPy-mDTC_toluene_S0_finalOpt.xtbopt.xyz --gfn 2 --uhf 2 --gbsa toluene --ohess vtight --parallel 40 --molden --ceasefiles --namespace data2507/toluene/4BPy-mDTC/4BPy-mDTC_toluene_T1_preOpt
      * Solvation model:               GBSA
        Solvent                        toluene
        Solvent mass                       9.2140E+01 g/mol
          :  Hamiltonian                  GFN2-xTB          :
 * total energy  :  -152.3474275 Eh     change       -0.4168351E-07 Eh
 * total energy  :  -152.3512700 Eh     change       -0.3842498E-02 Eh
 * total energy  :  -152.3523127 Eh     change       -0.1042718E-02 Eh
 * total energy  :  -152.3526276 Eh     change       -0.3149001E-03 Eh
 * total energy  :  -152.3529501 Eh     change       -0.3224560E-03 Eh
 * total energy  :  -152.3532624 Eh     change       -0.3122841E-03 Eh
 * total energy  :  -152.3535789 Eh     change       -0.3165857E-03 Eh
 * total energy  :  -152.3537974 Eh     change       -0.2185047E-03 Eh
 * total energy  :  -152.3539219 Eh     change       -0.1244371E-03 Eh
 * total energy  :  -152.3540259 Eh     change       -0.1040077E-03 Eh
 * total energy  :  -152.3547392 Eh     change       -0.7871160E-06 Eh
 * total energy  :  -152.3547399 Eh     change       -0.7454231E-06 Eh
 * total energy  :  -152.3547406 Eh     change       -0.7109875E-06 Eh
 * total energy  :  -152.3547412 Eh     change       -0.6023386E-06 Eh
 * total energy  :  -152.3547418 Eh     change       -0.5943109E-06 Eh
 * total energy  :  -152.3547424 Eh     change       -0.6028352E-06 Eh
 * total energy  :  -152.3547431 Eh     change       -0.7244329E-06 Eh
 * total energy  :  -152.3547441 Eh     change       -0.9750822E-06 Eh
 * total energy  :  -152.3547441 Eh     change       -0.4364637E-08 Eh
   *** GEOMETRY OPTIMIZATION CONVERGED AFTER 68 ITERATIONS ***

 final structure:
================
111
 xtb: 6.7.1 (edcfbbe)
C            7.93238001072999       -2.68931496098490       -2.21801236673758
C            7.56196534432082       -1.19918963601303       -2.27482335342198
C            7.46204384069456       -0.74420338971895       -3.73891313622784
C            8.68602224041414       -0.40337855801692       -1.60411213638554
C            6.21577456162907       -0.99860323430302       -1.59632983414707
C            5.09256191282095       -1.66400791810474       -2.10626540673930
C            3.83428533859820       -1.54953723981906       -1.54984636407103
C            3.69080513364767       -0.74501744112446       -0.42736390307928
C            4.80089566982267       -0.04275951375437        0.09111458293615
C            6.05215632654716       -0.17323873610833       -0.48920387425823
C            4.30990418828074        0.72800229662053        1.20619235285423
C            4.92198277853206        1.59115010883688        2.10043550602377
C            4.17111358992734        2.18678194203818        3.10800434759551
C            4.77547712613851        3.15110285142150        4.11672298640401
C            4.60450327967684        2.57362218742365        5.53015435873878
C            4.04992817424063        4.50178927406779        4.01543285934868
C            6.26901219902468        3.39419739267210        3.87886259803358
C            2.80764658534768        1.87593849704944        3.19816760952226
C            2.17287876385117        1.02009801614126        2.32024107870404
C            2.92724720291297        0.45569536743208        1.30050134870576
N            2.56432559919830       -0.42948817420082        0.30569452692401
C            1.28022571236247       -0.93882280920273        0.08400892471119
C            1.10215550854830       -2.30208690593510       -0.08713308250371
C           -0.17419729988802       -2.84195650021817       -0.30363724160260
C           -0.28066665708667       -4.27693599052483       -0.57128911163100
O            0.70499138079028       -4.90249764389712       -1.05688843798613
C           -1.52174842293632       -4.96107874562666       -0.26996481259673
C           -2.44450430911178       -4.51778500935485        0.69920381817754
C           -3.57539782036269       -5.26103052822336        0.94365448783158
N           -3.85473279374980       -6.39644487995854        0.31345584647441
C           -2.97892528984031       -6.85028002072593       -0.57648147446047
C           -1.81307022045492       -6.19493336397860       -0.89214660804818
C           -1.26744824263405       -1.96578272069883       -0.37397922932822
C           -1.08601449756928       -0.60187956391378       -0.18570880248762
N           -2.17806027622426        0.26696724253693       -0.30927451314932
C           -3.40685477182861        0.12033674310040        0.30006164731666
C           -3.83880698478994       -0.81265232514259        1.23184454139363
C           -5.13298414810690       -0.71163860420179        1.70043756694361
C           -6.01582279999263        0.29470492239967        1.28525353516014
C           -7.42987814367038        0.31124526716455        1.84462118621649
C           -8.12598533636063       -1.00977437133921        1.48204894034437
C           -7.36706891006816        0.46389211477662        3.37209668059907
C           -8.27221441547696        1.46162267168241        1.28461919261469
C           -5.55877265028704        1.24628102672478        0.38037449915302
C           -4.26467784217296        1.16514742025634       -0.10797682826337
C           -3.50357701714014        1.98152823144694       -1.01977774378876
C           -3.80619955605728        3.12599468473403       -1.73978396424844
C           -2.84641950134913        3.69133139211783       -2.57162772331681
C           -3.10571364821313        4.95409583841643       -3.37865022237438
C           -4.51165560325765        5.51904453399319       -3.15386067703056
C           -2.08831130133648        6.02962609876895       -2.96745874503422
C           -2.95139059547040        4.63697541685505       -4.87403340647385
C           -1.59727016206526        3.06427330334706       -2.67283649687353
C           -1.27012135896902        1.92321281316999       -1.96760912323117
C           -2.22601434705441        1.38749073084309       -1.11548647353323
C            0.18364823796073       -0.07681282559490        0.05419354423130
H            7.19753095591861       -3.30291087031451       -2.73183506102609
H            7.99093912551067       -3.02377465420756       -1.18393527196590
H            8.89983848122181       -2.85124167308483       -2.68858459697147
H            7.17240056651724        0.30363570587817       -3.78911004984696
H            6.72814533260864       -1.32766230649951       -4.28775498031267
H            8.42519182484708       -0.86070104029668       -4.23111121005137
H            9.62144921137332       -0.59031382345112       -2.12757368419428
H            8.48776841418498        0.66520793319033       -1.64411949375633
H            8.81612726206726       -0.70690898814528       -0.56786656063584
H            5.19948930580194       -2.29696010329490       -2.97347041884741
H            2.99415028499099       -2.07320387140688       -1.98040686608409
H            6.87894732761478        0.37399949887967       -0.06950711066676
H            5.97676822825070        1.78100879802086        1.99823544059343
H            5.05116081983079        3.24316414185625        6.26213514827549
H            5.09571453334627        1.60521271762124        5.60332857958248
H            3.55620990195820        2.44367130637506        5.78413799850929
H            4.14542249433611        4.90557964906325        3.00936004955609
H            2.99262222963480        4.40466800005496        4.24524932622251
H            4.48593852935520        5.21172749290774        4.71499689851408
H            6.64336040545693        4.09536473275832        4.62203348226234
H            6.44434316030443        3.82353649088738        2.89505852856088
H            6.83677234610344        2.47151040842335        3.97471817200657
H            2.21647564489086        2.31427490663677        3.98697999939018
H            1.12501267147028        0.79070925656506        2.43821217498228
H            1.94099764873501       -2.97880524506209       -0.03118674553640
H           -2.24528082972568       -3.63375189306088        1.28363959735827
H           -4.29750829969261       -4.95055868140667        1.68742887972255
H           -3.23755393583217       -7.78668503177759       -1.05387325868874
H           -1.12442148124367       -6.59972086739539       -1.61755552961833
H           -2.24283449915669       -2.33459639358094       -0.65114259233728
H           -3.18359072531004       -1.59111816622335        1.58941513741789
H           -5.46545428716066       -1.44381435547529        2.41957479545029
H           -9.14831349047184       -1.00691669629370        1.85415405196106
H           -7.61117999644206       -1.86431290452198        1.91231774044835
H           -8.15245068029418       -1.13775148260089        0.40153202134856
H           -6.84027594649734       -0.36635791241141        3.83420681073043
H           -6.85265682327988        1.38538476889480        3.63781208852926
H           -8.37326528665694        0.49898007806448        3.78423220580920
H           -9.27302986463073        1.41552897394284        1.70915842115019
H           -8.36390822453428        1.38921254460721        0.20326568821537
H           -7.84249979709698        2.42604695981260        1.54556681312206
H           -6.18912150784376        2.05328655326236        0.04785602609894
H           -4.78858445337243        3.55532256126470       -1.64148701557721
H           -4.66652818527211        5.77998169715832       -2.10941215410967
H           -5.27444501176442        4.80834754388010       -3.46370435317667
H           -4.63639478445247        6.42275932102892       -3.74697991038740
H           -2.17837465769737        6.24656847165472       -1.90480923310692
H           -1.06888019163739        5.71038972050432       -3.16514095314408
H           -2.27116210928620        6.94664344642290       -3.52345452513247
H           -3.16287831822433        5.52443169167795       -5.46677942198126
H           -1.94446157453616        4.30370050747920       -5.10937579734507
H           -3.64698901340146        3.85272038272736       -5.16663967302656
H           -0.84924900675831        3.47870714988009       -3.33060002381822
H           -0.30316143873785        1.46001326680989       -2.09123098309799
H            0.31738210540423        0.98413819667213        0.18849622104802

          :  Hamiltonian                  GFN2-xTB          :
         :: gradient norm              0.000056804705 Eh/a0 ::
         :: HOMO-LUMO gap              1.008801177123 eV    ::
         :: SCC energy              -154.937865284596 Eh    ::
         :: -> dispersion             -0.139281445921 Eh    ::
         :: -> Gsolv                  -0.071275273979 Eh    ::
         :: repulsion energy           2.583121163884 Eh    ::

    * Orbital Energies and Occupations

         #    Occupation            Energy/Eh            Energy/eV
      -------------------------------------------------------------
         1        2.0000           -0.6873215             -18.7030
       ...           ...                  ...                  ...
       131        2.0000           -0.4142810             -11.2732
       132        2.0000           -0.4137375             -11.2584
       133        2.0000           -0.4134393             -11.2503
       134        2.0000           -0.4120193             -11.2116
       135        2.0000           -0.4062754             -11.0553
       136        2.0000           -0.4061479             -11.0518
       137        2.0000           -0.3842704             -10.4565
       138        2.0000           -0.3841622             -10.4536
       139        2.0000           -0.3835584             -10.4372
       140        1.9679           -0.3703065             -10.0766
       141        1.8912           -0.3690669             -10.0428
       142        1.1409           -0.3653510              -9.9417
       143        1.0000           -0.2901008              -7.8940 (HOMO)
       144                         -0.2530274              -6.8852 (LUMO)
       145                         -0.2516937              -6.8489
       146                         -0.2448909              -6.6638
       147                         -0.2412897              -6.5658
       148                         -0.2292544              -6.2383
       149                         -0.2291726              -6.2361
       150                         -0.2289708              -6.2306
       151                         -0.2070272              -5.6335
       152                         -0.1963831              -5.3439
       153                         -0.1939977              -5.2789
       154                         -0.1938210              -5.2741
       ...                                ...                  ...
       279                          0.7314647              19.9042
      -------------------------------------------------------------
                  HL-Gap            0.0370734 Eh            1.0088 eV

     #   Z          covCN         q      C6AA      α(0)
     1   6 C        3.761    -0.106    22.568     6.772
     2   6 C        3.902     0.027    20.070     6.368
     3   6 C        3.761    -0.106    22.580     6.774
     4   6 C        3.761    -0.110    22.647     6.784
     5   6 C        2.973     0.009    27.804     8.649
     6   6 C        2.930    -0.036    28.898     8.816
     7   6 C        2.908    -0.044    29.088     8.844
     8   6 C        3.076     0.045    26.907     8.505
     9   6 C        3.064    -0.014    28.307     8.725
    10   6 C        2.917    -0.040    28.990     8.829
    11   6 C        3.064    -0.014    28.290     8.722
    12   6 C        2.917    -0.039    28.976     8.827
    13   6 C        2.973     0.009    27.802     8.649
    14   6 C        3.903     0.027    20.070     6.368
    15   6 C        3.761    -0.106    22.581     6.774
    16   6 C        3.761    -0.107    22.589     6.775
    17   6 C        3.761    -0.110    22.642     6.783
    18   6 C        2.929    -0.037    28.921     8.819
    19   6 C        2.908    -0.046    29.151     8.853
    20   6 C        3.075     0.044    26.927     8.508
    21   7 N        2.803    -0.020    21.627     6.907
    22   6 C        2.909     0.063    26.584     8.455
    23   6 C        2.928    -0.040    29.003     8.832
    24   6 C        2.967    -0.011    28.291     8.725
    25   6 C        2.832     0.168    24.373     8.090
    26   8 O        0.857    -0.518    24.190     6.594
    27   6 C        2.975    -0.007    28.194     8.710
    28   6 C        2.915    -0.053    29.314     8.878
    29   6 C        2.900     0.053    26.814     8.490
    30   7 N        1.837    -0.233    26.949     7.693
    31   6 C        2.900     0.053    26.816     8.491
    32   6 C        2.918    -0.040    28.995     8.830
    33   6 C        2.921    -0.051    29.274     8.873
    34   6 C        2.909     0.063    26.582     8.454
    35   7 N        2.803    -0.021    21.660     6.912
    36   6 C        3.077     0.044    26.932     8.508
    37   6 C        2.908    -0.046    29.138     8.851
    38   6 C        2.929    -0.037    28.912     8.818
    39   6 C        2.973     0.009    27.814     8.651
    40   6 C        3.903     0.027    20.070     6.368
    41   6 C        3.761    -0.106    22.571     6.772
    42   6 C        3.761    -0.106    22.579     6.774
    43   6 C        3.761    -0.110    22.641     6.783
    44   6 C        2.917    -0.040    28.987     8.829
    45   6 C        3.064    -0.014    28.307     8.725
    46   6 C        3.065    -0.014    28.300     8.723
    47   6 C        2.917    -0.040    28.983     8.828
    48   6 C        2.972     0.009    27.817     8.651
    49   6 C        3.902     0.027    20.072     6.368
    50   6 C        3.761    -0.109    22.640     6.783
    51   6 C        3.761    -0.107    22.586     6.775
    52   6 C        3.761    -0.106    22.577     6.773
    53   6 C        2.929    -0.037    28.920     8.819
    54   6 C        2.908    -0.047    29.155     8.854
    55   6 C        3.077     0.044    26.935     8.509
    56   6 C        2.923    -0.072    29.790     8.951
    57   1 H        0.925     0.036     2.498     2.472
    58   1 H        0.925     0.034     2.530     2.488
    59   1 H        0.925     0.042     2.425     2.435
    60   1 H        0.925     0.036     2.508     2.476
    61   1 H        0.925     0.037     2.488     2.467
    62   1 H        0.925     0.042     2.423     2.434
    63   1 H        0.925     0.040     2.445     2.445
    64   1 H        0.925     0.040     2.453     2.449
    65   1 H        0.925     0.039     2.466     2.456
    66   1 H        0.926     0.039     2.468     2.457
    67   1 H        0.926     0.034     2.535     2.490
    68   1 H        0.926     0.053     2.283     2.363
    69   1 H        0.926     0.052     2.296     2.370
    70   1 H        0.925     0.042     2.427     2.436
    71   1 H        0.925     0.034     2.528     2.487
    72   1 H        0.925     0.038     2.475     2.460
    73   1 H        0.925     0.035     2.511     2.478
    74   1 H        0.925     0.039     2.467     2.456
    75   1 H        0.925     0.042     2.427     2.436
    76   1 H        0.925     0.040     2.451     2.448
    77   1 H        0.925     0.039     2.465     2.455
    78   1 H        0.925     0.038     2.476     2.461
    79   1 H        0.926     0.042     2.422     2.433
    80   1 H        0.926     0.037     2.486     2.466
    81   1 H        0.926     0.048     2.348     2.396
    82   1 H        0.926     0.036     2.500     2.473
    83   1 H        0.925     0.039     2.460     2.453
    84   1 H        0.925     0.036     2.499     2.472
    85   1 H        0.926     0.034     2.535     2.490
    86   1 H        0.926     0.045     2.380     2.412
    87   1 H        0.926     0.031     2.569     2.507
    88   1 H        0.926     0.039     2.457     2.451
    89   1 H        0.925     0.041     2.429     2.437
    90   1 H        0.925     0.037     2.489     2.467
    91   1 H        0.925     0.034     2.532     2.488
    92   1 H        0.925     0.037     2.483     2.464
    93   1 H        0.925     0.035     2.511     2.478
    94   1 H        0.925     0.042     2.427     2.436
    95   1 H        0.925     0.040     2.451     2.448
    96   1 H        0.925     0.038     2.472     2.459
    97   1 H        0.925     0.039     2.460     2.453
    98   1 H        0.926     0.052     2.297     2.370
    99   1 H        0.926     0.051     2.302     2.373
   100   1 H        0.925     0.039     2.465     2.455
   101   1 H        0.925     0.038     2.476     2.461
   102   1 H        0.925     0.040     2.454     2.450
   103   1 H        0.925     0.035     2.511     2.478
   104   1 H        0.925     0.038     2.472     2.459
   105   1 H        0.925     0.041     2.430     2.438
   106   1 H        0.925     0.041     2.430     2.438
   107   1 H        0.925     0.038     2.480     2.463
   108   1 H        0.925     0.034     2.532     2.488
   109   1 H        0.926     0.041     2.437     2.441
   110   1 H        0.926     0.035     2.512     2.479
   111   1 H        0.926     0.055     2.261     2.352

molecular dipole:
                 x           y           z       tot (Debye)
 q only:        0.357       5.503       0.859
   full:        0.485       5.306       0.765      13.681

 projected vibrational frequencies (cm⁻¹)
eigval :       -0.00    -0.00     0.00     0.00     0.00     0.00
eigval :        9.31    10.62    13.32    16.36    23.43    26.00
eigval :       28.18    31.08    34.27    36.12    44.06    48.98
eigval :       61.11    63.42    68.35    72.83    81.37    85.92
eigval :       87.32   107.40   114.07   130.42   146.37   153.17
eigval :      157.90   160.52   172.33   176.84   181.42   185.93
eigval :      193.98   199.15   200.72   211.80   213.99   220.47
eigval :      224.09   226.22   228.16   231.19   234.10   246.29
eigval :      252.45   256.87   257.22   273.33   283.00   287.20
eigval :      295.00   315.33   316.83   317.24   322.98   324.68
eigval :      331.69   337.05   339.00   345.40   349.77   356.17
eigval :      356.88   359.86   363.51   367.55   374.16   383.02
eigval :      393.82   396.91   403.57   404.56   407.32   428.99
eigval :      439.33   441.11   441.56   442.18   454.80   460.73
eigval :      461.73   463.41   465.01   465.01   499.28   510.52
eigval :      516.79   534.70   541.64   572.16   574.92   581.64
eigval :      585.32   591.52   597.23   607.57   613.75   621.54
eigval :      632.77   635.89   642.45   642.88   654.65   667.09
eigval :      671.94   691.00   692.28   700.65   708.33   709.18
eigval :      715.85   718.71   764.27   776.50   778.49   811.97
eigval :      821.02   824.50   825.81   829.22   831.11   831.57
eigval :      840.01   858.62   865.91   868.10   869.94   871.17
eigval :      871.84   873.52   882.26   887.47   896.63   903.76
eigval :      917.11   919.42   919.78   920.27   923.64   926.05
eigval :      929.73   931.65   958.23   958.82   958.89   958.98
eigval :      960.70   960.95   962.18   962.62   962.71   962.76
eigval :      963.70   964.36   969.24   985.88  1025.08  1028.39
eigval :     1031.67  1032.47  1032.93  1033.50  1034.07  1034.26
eigval :     1035.80  1038.29  1041.59  1044.90  1077.09  1108.21
eigval :     1110.62  1114.81  1126.07  1126.24  1133.70  1135.42
eigval :     1156.05  1160.47  1161.94  1168.12  1187.10  1213.14
eigval :     1222.56  1222.60  1222.60  1222.89  1224.88  1225.60
eigval :     1226.71  1227.51  1227.78  1228.05  1230.04  1230.10
eigval :     1230.88  1241.26  1249.05  1249.67  1257.68  1278.02
eigval :     1279.35  1288.06  1288.77  1293.41  1301.11  1313.96
eigval :     1330.48  1331.95  1333.09  1340.12  1347.51  1347.93
eigval :     1369.73  1382.83  1398.08  1398.83  1400.77  1401.34
eigval :     1401.76  1402.05  1402.31  1402.97  1404.71  1406.42
eigval :     1410.16  1417.00  1421.66  1425.61  1425.96  1426.06
eigval :     1427.03  1436.96  1441.35  1447.87  1458.87  1460.11
eigval :     1466.87  1473.88  1474.76  1487.23  1487.70  1488.02
eigval :     1488.50  1489.51  1490.10  1490.41  1490.90  1496.05
eigval :     1496.35  1496.94  1497.14  1500.45  1500.89  1501.39
eigval :     1501.61  1501.69  1510.15  1510.67  1510.84  1511.43
eigval :     1511.52  1515.07  1515.18  1516.07  1516.63  1553.57
eigval :     1557.49  1559.28  1570.06  1573.37  1573.79  1575.85
eigval :     1591.67  1604.65  3021.64  3022.07  3022.14  3022.44
eigval :     3022.60  3022.67  3022.83  3022.94  3025.50  3025.89
eigval :     3025.96  3026.25  3026.70  3026.95  3027.24  3027.31
eigval :     3029.35  3029.65  3029.80  3029.94  3032.30  3032.50
eigval :     3032.73  3032.86  3037.10  3037.46  3037.52  3037.61
eigval :     3044.18  3046.10  3046.12  3046.15  3047.64  3048.22
eigval :     3049.17  3049.29  3049.32  3052.35  3083.92  3085.62
eigval :     3086.82  3089.82  3091.35  3094.36  3097.26  3097.44
eigval :     3098.16  3099.10  3101.72  3102.42  3112.99  3123.00
eigval :     3123.22  3125.55  3125.73

   temp. (K)  partition function   enthalpy   heat capacity  entropy
                                   cal/mol     cal/K/mol   cal/K/mol   J/K/mol
 298.15  VIB  0.151E+26            32330.421    197.461    200.635
         ROT  0.160E+09              888.752      2.981     40.524
         INT  0.242E+34            33219.173    200.442    241.159
         TR   0.194E+29             1481.254      4.968     45.655
         TOT                       34700.4273   205.4100   286.8145  1200.0319

       T/K    H(0)-H(T)+PV         H(T)/Eh          T*S/Eh         G(T)/Eh
   ------------------------------------------------------------------------
    298.15    0.552987E-01    0.972874E+00    0.136275E+00    0.836599E+00
   ------------------------------------------------------------------------

         :::::::::::::::::::::::::::::::::::::::::::::::::::::
         ::                  THERMODYNAMIC                  ::
         :::::::::::::::::::::::::::::::::::::::::::::::::::::
         :: total free energy        -151.518144959620 Eh   ::
         ::.................................................::
         :: total energy             -152.354744122056 Eh   ::
         :: zero point energy           0.917575338600 Eh   ::
         :: G(RRHO) w/o ZPVE           -0.080976176164 Eh   ::
         :: G(RRHO) contrib.            0.836599162436 Eh   ::
         :::::::::::::::::::::::::::::::::::::::::::::::::::::

           -------------------------------------------------
          | TOTAL ENERGY             -152.354744122056 Eh   |
          | TOTAL ENTHALPY           -151.381870132636 Eh   |
          | TOTAL FREE ENERGY        -151.518144959620 Eh   |
          | GRADIENT NORM               0.000055877872 Eh/α |
          | HOMO-LUMO GAP               1.008819717722 eV   |
           -------------------------------------------------

 * finished run on 2025/09/13 at 20:43:58.175
