   * xtb version 6.7.1 (edcfbbe) compiled by 'albert@albert-system' on 2024-07-22

   ID    Z sym.   atoms
    1    6 C      1-4, 6-19, 21, 22, 24-39
    2    7 N      5, 20, 23
    3    1 H      40-62

          program call               : xtb data2507/toluene/TPA-AP/TPA-AP_toluene_T1_crest.xyz --gfn 2 --uhf 2 --gbsa toluene --ohess vtight --parallel 40 --molden --ceasefiles --namespace data2507/toluene/TPA-AP/TPA-AP_toluene_T1_finalOpt
      * Solvation model:               GBSA
        Solvent                        toluene
        Solvent mass                       9.2140E+01 g/mol
          :  Hamiltonian                  GFN2-xTB          :
 * total energy  :   -97.5882293 Eh     change       -0.1877625E-07 Eh
 * total energy  :   -97.5883108 Eh     change       -0.8151453E-04 Eh
 * total energy  :   -97.5883601 Eh     change       -0.4930954E-04 Eh
 * total energy  :   -97.5883689 Eh     change       -0.8821754E-05 Eh
 * total energy  :   -97.5883737 Eh     change       -0.4763929E-05 Eh
 * total energy  :   -97.5883750 Eh     change       -0.1343857E-05 Eh
 * total energy  :   -97.5883756 Eh     change       -0.5785527E-06 Eh
 * total energy  :   -97.5883759 Eh     change       -0.3315079E-06 Eh
 * total energy  :   -97.5883763 Eh     change       -0.3504898E-06 Eh
 * total energy  :   -97.5883768 Eh     change       -0.5424864E-06 Eh
 * total energy  :   -97.5883775 Eh     change       -0.6748308E-06 Eh
 * total energy  :   -97.5883779 Eh     change       -0.3932066E-06 Eh
 * total energy  :   -97.5883781 Eh     change       -0.1667289E-06 Eh
 * total energy  :   -97.5883782 Eh     change       -0.1329015E-06 Eh
 * total energy  :   -97.5883769 Eh     change        0.1302458E-05 Eh
 * total energy  :   -97.5883784 Eh     change       -0.1489521E-05 Eh
 * total energy  :   -97.5883784 Eh     change       -0.4615261E-07 Eh
   *** GEOMETRY OPTIMIZATION CONVERGED AFTER 17 ITERATIONS ***

 final structure:
================
62
 xtb: 6.7.1 (edcfbbe)
C           -8.14048717554372        2.90782518539055       -0.02642432196722
C           -8.38502212285743        1.74854471352392        0.69325162422705
C           -7.45710232433992        0.72543172529961        0.70880627679591
C           -6.26530218473966        0.84740033912895       -0.00803608380003
N           -5.32334290142667       -0.18679535124092        0.00004174800684
C           -5.74692041794477       -1.52035587454128        0.00901841824818
C           -5.04526515053486       -2.47904654668971        0.74237989178019
C           -5.46591528977207       -3.79469892582806        0.74738079267840
C           -6.59057314152436       -4.17531951979555        0.03184125430172
C           -7.29213687069988       -3.22683688920880       -0.69609596387119
C           -6.87613403710566       -1.90973317792455       -0.71364321608665
C           -3.95903457131061        0.11110814403968        0.00060605166969
C           -3.05554269759479       -0.68443903599175       -0.70921149082944
C           -1.71023142187236       -0.39076681453760       -0.70251094979087
C           -1.21086339030687        0.70974449337406        0.00131669116391
C            0.21752795455788        1.02069488969692        0.00201986090983
C            0.66518849102098        2.34679889694488        0.02305540010802
C            2.00795677537349        2.65059627488785        0.01686032363302
C            2.98212881050161        1.64510065082878        0.00229278000226
N            4.28486663165825        1.91702775031378        0.00630005440107
C            5.17239120067022        0.94202943234388       -0.00327047713619
C            4.72135861203633       -0.43649032039315       -0.02113047350121
N            3.44718624403162       -0.71909441540104       -0.02791714118134
C            2.53193417157388        0.26728171177143       -0.01722741548639
C            1.17021182671241       -0.00035676103474       -0.02187942488765
C            5.88920574750983       -1.28575403441510       -0.02403687156710
C            6.11166211173104       -2.64770940914175       -0.03788764833386
C            7.44005518627652       -3.09903024194280       -0.03397842131987
C            8.52326190957271       -2.24614588143883       -0.01639847216521
C            8.33018376283931       -0.84565246863342       -0.00166379075753
C            9.31078554643483        0.17480871955288        0.01828903746411
C            8.93023513879525        1.50048542220946        0.03078934697727
C            7.59141240037332        1.91594469120354        0.02553236966704
C            6.60504932299214        0.94557224474073        0.00629798171425
C            7.00356862920646       -0.41612742191912       -0.00676053490396
C           -2.12289589632007        1.50201949950211        0.70566434277591
C           -3.46870187803411        1.21004759770616        0.71116111520589
C           -6.02533984622340        2.01574533562155       -0.73381398410184
C           -6.95685267415185        3.03561091638394       -0.73664471576789
H           -8.86702994993469        3.70615904375694       -0.03379601821052
H           -9.30174146727352        1.64355770559058        1.25461033320884
H           -7.64356514738283       -0.17067634786417        1.28216855436407
H           -4.17730064462923       -2.18193897103275        1.31242052198878
H           -4.91683361750254       -4.52601019299143        1.32203749336044
H           -6.91754500878514       -5.20403900295972        0.04119428539426
H           -8.16533411622983       -3.51619443556768       -1.26209444597983
H           -7.41616923017948       -1.17537749261946       -1.29295553914556
H           -3.42240472837219       -1.52635777456603       -1.27786785498827
H           -1.03456247485473       -1.00346468950776       -1.28002677612050
H           -0.05372589690652        3.15198593740032        0.01461798367083
H            2.34554557322720        3.67600650504130        0.02024232644249
H            0.86738655592196       -1.03613729099682       -0.01365822184716
H            5.29431994673548       -3.35284793530933       -0.05112993402951
H            7.61517796765066       -4.16573914502801       -0.04482707374505
H            9.52699549486492       -2.64605790485544       -0.01349761700861
H           10.35800036040204       -0.08983141851339        0.02352250733273
H            9.69748729315599        2.26229845317920        0.04568810213572
H            7.34542499604481        2.96712523460562        0.03605584079926
H           -1.76414315605963        2.33902971662604        1.28550677228357
H           -4.15245288348530        1.82283075459482        1.28012870094591
H           -5.11025822823164        2.11136066955335       -1.29951680094467
H           -6.76100400474092        3.93285287257797       -1.30515169528234

          :  Hamiltonian                  GFN2-xTB          :
         :: gradient norm              0.000090805962 Eh/a0 ::
         :: HOMO-LUMO gap              0.065005298554 eV    ::
         :: SCC energy               -99.412904471013 Eh    ::
         :: -> dispersion             -0.083461539398 Eh    ::
         :: -> Gsolv                  -0.044425036663 Eh    ::
         :: repulsion energy           1.824526012025 Eh    ::

    * Orbital Energies and Occupations

         #    Occupation            Energy/Eh            Energy/eV
      -------------------------------------------------------------
         1        2.0000           -0.6754246             -18.3792
       ...           ...                  ...                  ...
        80        2.0000           -0.4155859             -11.3087
        81        2.0000           -0.4148281             -11.2880
        82        2.0000           -0.4144037             -11.2765
        83        2.0000           -0.4132476             -11.2450
        84        2.0000           -0.4110868             -11.1862
        85        2.0000           -0.4106663             -11.1748
        86        2.0000           -0.4038054             -10.9881
        87        2.0000           -0.4001385             -10.8883
        88        2.0000           -0.3896115             -10.6019
        89        2.0000           -0.3796811             -10.3316
        90        1.7857           -0.3569931              -9.7143
        91        1.2143           -0.3545249              -9.6471
        92        0.7786           -0.2924717              -7.9586 (HOMO)
        93        0.2214           -0.2900825              -7.8935 (LUMO)
        94                         -0.2478165              -6.7434
        95                         -0.2380541              -6.4778
        96                         -0.2335330              -6.3548
        97                         -0.2283392              -6.2134
        98                         -0.2273669              -6.1870
        99                         -0.2270104              -6.1773
       100                         -0.2186245              -5.9491
       101                         -0.2100545              -5.7159
       102                         -0.1953733              -5.3164
       103                         -0.1727318              -4.7003
       ...                                ...                  ...
       179                          0.7323611              19.9286
      -------------------------------------------------------------
                  HL-Gap            0.0023892 Eh            0.0650 eV

     #   Z          covCN         q      C6AA      α(0)
     1   6 C        2.919    -0.034    28.845     8.807
     2   6 C        2.919    -0.028    28.690     8.784
     3   6 C        2.921    -0.044    29.097     8.846
     4   6 C        2.924     0.065    26.555     8.451
     5   7 N        2.752    -0.052    22.244     7.005
     6   6 C        2.924     0.064    26.556     8.451
     7   6 C        2.922    -0.044    29.091     8.845
     8   6 C        2.919    -0.027    28.688     8.783
     9   6 C        2.919    -0.034    28.842     8.807
    10   6 C        2.919    -0.028    28.690     8.784
    11   6 C        2.921    -0.044    29.095     8.845
    12   6 C        2.924     0.061    26.623     8.462
    13   6 C        2.919    -0.045    29.112     8.848
    14   6 C        2.923    -0.034    28.846     8.808
    15   6 C        2.974     0.008    27.842     8.655
    16   6 C        2.971     0.001    28.013     8.682
    17   6 C        2.920    -0.039    28.977     8.828
    18   6 C        2.915    -0.060    29.493     8.905
    19   6 C        2.951     0.086    26.082     8.376
    20   7 N        1.840    -0.228    26.821     7.675
    21   6 C        3.033     0.068    26.456     8.437
    22   6 C        3.033     0.082    26.138     8.386
    23   7 N        1.841    -0.226    26.784     7.670
    24   6 C        2.950     0.081    26.195     8.395
    25   6 C        2.924    -0.063    29.563     8.916
    26   6 C        3.034    -0.015    28.361     8.735
    27   6 C        2.912    -0.028    28.690     8.783
    28   6 C        2.918    -0.033    28.811     8.802
    29   6 C        2.919    -0.036    28.904     8.816
    30   6 C        2.975     0.013    27.730     8.638
    31   6 C        2.917    -0.042    29.038     8.837
    32   6 C        2.917    -0.032    28.796     8.800
    33   6 C        2.911    -0.032    28.798     8.800
    34   6 C        3.034    -0.017    28.391     8.740
    35   6 C        3.148    -0.017    28.156     8.680
    36   6 C        2.923    -0.034    28.851     8.808
    37   6 C        2.919    -0.045    29.117     8.849
    38   6 C        2.922    -0.044    29.094     8.845
    39   6 C        2.919    -0.028    28.689     8.783
    40   1 H        0.926     0.038     2.472     2.459
    41   1 H        0.926     0.040     2.451     2.448
    42   1 H        0.926     0.039     2.465     2.455
    43   1 H        0.926     0.038     2.473     2.459
    44   1 H        0.926     0.039     2.458     2.452
    45   1 H        0.926     0.038     2.471     2.458
    46   1 H        0.926     0.040     2.449     2.447
    47   1 H        0.926     0.039     2.463     2.454
    48   1 H        0.926     0.039     2.456     2.451
    49   1 H        0.926     0.040     2.452     2.449
    50   1 H        0.926     0.043     2.414     2.430
    51   1 H        0.926     0.044     2.392     2.418
    52   1 H        0.926     0.047     2.357     2.401
    53   1 H        0.926     0.038     2.477     2.461
    54   1 H        0.926     0.039     2.465     2.455
    55   1 H        0.926     0.039     2.468     2.456
    56   1 H        0.926     0.035     2.512     2.479
    57   1 H        0.925     0.035     2.510     2.477
    58   1 H        0.926     0.033     2.540     2.492
    59   1 H        0.926     0.041     2.435     2.440
    60   1 H        0.926     0.040     2.450     2.448
    61   1 H        0.926     0.038     2.470     2.458
    62   1 H        0.926     0.039     2.456     2.451

molecular dipole:
                 x           y           z       tot (Debye)
 q only:       -3.245      -0.394       0.007
   full:       -3.177      -0.382       0.006       8.133

 projected vibrational frequencies (cm⁻¹)
eigval :       -0.00    -0.00    -0.00     0.00     0.00     0.00
eigval :       -3.24    11.69    19.59    34.28    46.87    47.74
eigval :       63.67    67.14    74.32    88.53   103.88   128.73
eigval :      145.89   152.31   154.68   180.40   203.71   213.84
eigval :      230.42   246.04   273.96   288.12   293.91   315.54
eigval :      332.57   349.46   372.83   375.09   377.64   381.13
eigval :      390.41   399.59   419.09   426.38   427.94   449.44
eigval :      455.00   471.90   484.67   491.24   508.52   519.74
eigval :      545.39   561.79   565.78   573.99   576.18   581.42
eigval :      587.23   590.33   593.53   615.54   634.61   637.65
eigval :      657.34   659.01   661.75   676.60   682.18   689.17
eigval :      715.75   732.03   755.85   759.26   761.50   778.73
eigval :      793.70   797.06   799.16   804.89   820.96   860.43
eigval :      864.58   870.01   871.59   872.50   875.38   877.89
eigval :      887.46   894.26   896.17   908.79   910.55   913.81
eigval :      916.59   921.69   925.57   926.82   928.67   929.47
eigval :      929.74   937.25   967.81   983.38  1002.38  1012.54
eigval :     1016.95  1054.09  1070.00  1080.49  1081.41  1086.28
eigval :     1114.41  1120.17  1122.54  1139.18  1150.05  1173.54
eigval :     1178.00  1178.30  1178.42  1179.62  1191.83  1193.77
eigval :     1197.12  1213.01  1224.32  1228.27  1244.97  1254.02
eigval :     1266.80  1271.27  1274.64  1277.38  1285.81  1301.52
eigval :     1307.99  1310.41  1314.33  1323.89  1324.57  1342.67
eigval :     1361.97  1370.22  1385.81  1400.43  1408.54  1419.11
eigval :     1429.42  1432.56  1438.56  1461.69  1461.82  1473.16
eigval :     1479.23  1492.58  1507.13  1537.69  1541.08  1564.75
eigval :     1568.94  1569.38  1573.06  1581.18  1583.06  1591.57
eigval :     1598.39  3065.10  3067.36  3076.68  3077.00  3077.54
eigval :     3078.09  3078.80  3079.39  3080.79  3080.87  3081.98
eigval :     3086.31  3087.28  3088.18  3088.87  3089.68  3090.00
eigval :     3090.56  3091.72  3092.90  3094.91  3097.17  3097.62

   temp. (K)  partition function   enthalpy   heat capacity  entropy
                                   cal/mol     cal/K/mol   cal/K/mol   J/K/mol
 298.15  VIB  0.216E+14            17059.188    112.213    105.787
         ROT  0.600E+08              888.752      2.981     38.572
         INT  0.129E+22            17947.940    115.194    144.359
         TR   0.107E+29             1481.254      4.968     44.481
         TOT                       19429.1938   120.1617   188.8396   790.1047

       T/K    H(0)-H(T)+PV         H(T)/Eh          T*S/Eh         G(T)/Eh
   ------------------------------------------------------------------------
    298.15    0.309624E-01    0.497889E+00    0.897238E-01    0.408165E+00
   ------------------------------------------------------------------------

         :::::::::::::::::::::::::::::::::::::::::::::::::::::
         ::                  THERMODYNAMIC                  ::
         :::::::::::::::::::::::::::::::::::::::::::::::::::::
         :: total free energy         -97.180213213855 Eh   ::
         ::.................................................::
         :: total energy              -97.588378459133 Eh   ::
         :: zero point energy           0.466926619160 Eh   ::
         :: G(RRHO) w/o ZPVE           -0.058761373882 Eh   ::
         :: G(RRHO) contrib.            0.408165245278 Eh   ::
         :::::::::::::::::::::::::::::::::::::::::::::::::::::

           -------------------------------------------------
          | TOTAL ENERGY              -97.588378459133 Eh   |
          | TOTAL ENTHALPY            -97.090489448735 Eh   |
          | TOTAL FREE ENERGY         -97.180213213855 Eh   |
          | GRADIENT NORM               0.000094728067 Eh/α |
          | HOMO-LUMO GAP               0.065013419987 eV   |
           -------------------------------------------------

 * finished run on 2025/08/22 at 23:35:01.924
