   * xtb version 6.7.1 (edcfbbe) compiled by 'albert@albert-system' on 2024-07-22

   ID    Z sym.   atoms
    1    6 C      1-4, 6-19, 21, 22, 24-39
    2    7 N      5, 20, 23
    3    1 H      40-62

          program call               : xtb data2507/toluene/TPA-AP/TPA-AP_toluene_S0_crest.xyz --gfn 2 --gbsa toluene --ohess vtight --parallel 40 --molden --ceasefiles --namespace data2507/toluene/TPA-AP/TPA-AP_toluene_S0_finalOpt
      * Solvation model:               GBSA
        Solvent                        toluene
        Solvent mass                       9.2140E+01 g/mol
          :  Hamiltonian                  GFN2-xTB          :
 * total energy  :   -97.6471439 Eh     change       -0.2533497E-08 Eh
 * total energy  :   -97.6471715 Eh     change       -0.2757778E-04 Eh
 * total energy  :   -97.6471788 Eh     change       -0.7287405E-05 Eh
 * total energy  :   -97.6471813 Eh     change       -0.2570586E-05 Eh
 * total energy  :   -97.6471836 Eh     change       -0.2202371E-05 Eh
 * total energy  :   -97.6471851 Eh     change       -0.1524372E-05 Eh
 * total energy  :   -97.6471868 Eh     change       -0.1748518E-05 Eh
 * total energy  :   -97.6471880 Eh     change       -0.1132293E-05 Eh
 * total energy  :   -97.6471888 Eh     change       -0.8541691E-06 Eh
 * total energy  :   -97.6471898 Eh     change       -0.1034749E-05 Eh
 * total energy  :   -97.6471948 Eh     change       -0.1137374E-05 Eh
 * total energy  :   -97.6471961 Eh     change       -0.1272851E-05 Eh
 * total energy  :   -97.6471976 Eh     change       -0.1516302E-05 Eh
 * total energy  :   -97.6471993 Eh     change       -0.1657469E-05 Eh
 * total energy  :   -97.6472006 Eh     change       -0.1369040E-05 Eh
 * total energy  :   -97.6472014 Eh     change       -0.7508103E-06 Eh
 * total energy  :   -97.6472018 Eh     change       -0.4525014E-06 Eh
 * total energy  :   -97.6472022 Eh     change       -0.3496486E-06 Eh
 * total energy  :   -97.6472022 Eh     change       -0.5322519E-08 Eh
   *** GEOMETRY OPTIMIZATION CONVERGED AFTER 22 ITERATIONS ***

 final structure:
================
62
 xtb: 6.7.1 (edcfbbe)
C           -8.11052169386520        2.92659076755139        0.15708198164123
C           -8.32782114428903        1.75340546803256        0.86163765760861
C           -7.40297439245071        0.72775994144391        0.81589027846767
C           -6.24413697774601        0.86020397580792        0.05135444718546
N           -5.30645019184759       -0.18110631502415       -0.00075738550104
C           -5.75246979443310       -1.50997591841922       -0.03818277369527
C           -5.07697825096230       -2.50499400368831        0.66825297274261
C           -5.52284975382030       -3.81222025515618        0.62710494691257
C           -6.64957617068174       -4.14721249092241       -0.10670291532794
C           -7.32749463604050       -3.16133259824402       -0.80565346551869
C           -6.88366803445400       -1.85301318736932       -0.77833146914741
C           -3.94167241347602        0.10329439523294       -0.01267402168610
C           -3.05056209473265       -0.69946733810479       -0.72916167893288
C           -1.70141480385936       -0.41905278281652       -0.73252356511651
C           -1.19122284828687        0.68015260334510       -0.04069615027072
C            0.24474257984240        0.97942817746778       -0.05495540693501
C            0.68887590664289        2.31853214172423       -0.13059512111709
C            2.01988302576631        2.62744633196420       -0.14900849808940
C            2.98805571437130        1.60844864476197       -0.08605604354089
N            4.30392211583105        1.94119515287780       -0.10569376567246
C            5.13726200037182        0.93966202061416       -0.04351148111266
C            4.69728683243337       -0.43965904050191        0.04219906085495
N            3.43924848830013       -0.77885147292630        0.05889232697917
C            2.55353792658700        0.25251429991809       -0.00765082323330
C            1.18064104779142       -0.03238135202237        0.00362876470851
C            5.87972456830189       -1.28736338025851        0.09393204328076
C            6.11327032628213       -2.63774123019506        0.17555915202390
C            7.44854247691468       -3.08355514881722        0.19769633026326
C            8.52155199896999       -2.22588031021545        0.13975307759438
C            8.31724652157178       -0.82953132782780        0.05425940680895
C            9.29197262978145        0.19234721371102       -0.01503572229092
C            8.91211784643574        1.51140642164436       -0.09333097258950
C            7.56426048023927        1.91776730658797       -0.11156983327132
C            6.59212838557791        0.95033821686665       -0.04761639556241
C            6.98528845181182       -0.40653051062070        0.03507024164054
C           -2.08605393916560        1.48374255601162        0.66675118434705
C           -3.43408739836018        1.19810790210876        0.69094739223644
C           -6.03394509166848        2.03988332316629       -0.66247482015456
C           -6.96014797120965        3.06359390155891       -0.60322913583296
H           -8.83308664152815        3.72776072596432        0.19886602889525
H           -9.22015075215725        1.63871015069535        1.45980677761088
H           -7.57040234760283       -0.18250147185730        1.37315468405408
H           -4.20473992446029       -2.24486302981768        1.25024574778246
H           -4.99134695889517       -4.57292659047315        1.18035671102622
H           -6.99691492349702       -5.16915742628164       -0.13332963729140
H           -8.20433464461466       -3.41361898379184       -1.38420780073610
H           -7.40887941475151       -1.08763637298164       -1.33110097617317
H           -3.42796627696893       -1.54187422777181       -1.29008902118907
H           -1.03285591541573       -1.04144620870204       -1.30875339455742
H           -0.04494374510370        3.10798359390454       -0.19728291772972
H            2.36341636665299        3.64885857016874       -0.21494740213699
H            0.88388042761407       -1.06733501748382        0.08141221198298
H            5.30015082425731       -3.34595657874629        0.22185852440149
H            7.62921019768327       -4.14698290589936        0.26202742453117
H            9.52919898877082       -2.61500238903927        0.15873303926421
H           10.33956780862083       -0.07135232087989       -0.00511119502117
H            9.67463848102025        2.27536504677499       -0.14415808828058
H            7.31027003627420        2.96490789592728       -0.17449601707644
H           -1.71491254672298        2.32285824599803        1.23655374188460
H           -4.10675939314401        1.82010486911663        1.26308601218817
H           -5.14271536918811        2.14531866245758       -1.26397629247257
H           -6.78559904461795        3.97175258165055       -1.16184017025357

          :  Hamiltonian                  GFN2-xTB          :
         :: gradient norm              0.000062588993 Eh/a0 ::
         :: HOMO-LUMO gap              1.472024103404 eV    ::
         :: SCC energy               -99.470721402018 Eh    ::
         :: -> dispersion             -0.083585067021 Eh    ::
         :: -> Gsolv                  -0.044123037629 Eh    ::
         :: repulsion energy           1.823519220446 Eh    ::

    * Orbital Energies and Occupations

         #    Occupation            Energy/Eh            Energy/eV
      -------------------------------------------------------------
         1        2.0000           -0.6765525             -18.4099
       ...           ...                  ...                  ...
        79        2.0000           -0.4225920             -11.4993
        80        2.0000           -0.4202038             -11.4343
        81        2.0000           -0.4143573             -11.2752
        82        2.0000           -0.4129744             -11.2376
        83        2.0000           -0.4098418             -11.1524
        84        2.0000           -0.4084618             -11.1148
        85        2.0000           -0.4065119             -11.0618
        86        2.0000           -0.4055711             -11.0362
        87        2.0000           -0.4050207             -11.0212
        88        2.0000           -0.3950582             -10.7501
        89        2.0000           -0.3886260             -10.5751
        90        2.0000           -0.3534505              -9.6179
        91        2.0000           -0.3505323              -9.5385 (HOMO)
        92                         -0.2964363              -8.0664 (LUMO)
        93                         -0.2945810              -8.0160
        94                         -0.2462579              -6.7010
        95                         -0.2394569              -6.5160
        96                         -0.2312888              -6.2937
        97                         -0.2285014              -6.2178
        98                         -0.2231234              -6.0715
        99                         -0.2226210              -6.0578
       100                         -0.2214002              -6.0246
       101                         -0.2138983              -5.8205
       102                         -0.1946628              -5.2970
       ...                                ...                  ...
       179                          0.7216730              19.6377
      -------------------------------------------------------------
                  HL-Gap            0.0540959 Eh            1.4720 eV

     #   Z          covCN         q      C6AA      α(0)
     1   6 C        2.919    -0.038    28.954     8.824
     2   6 C        2.919    -0.030    28.744     8.792
     3   6 C        2.922    -0.047    29.168     8.857
     4   6 C        2.924     0.065    26.547     8.449
     5   7 N        2.752    -0.075    22.697     7.076
     6   6 C        2.924     0.065    26.548     8.450
     7   6 C        2.922    -0.047    29.174     8.858
     8   6 C        2.919    -0.030    28.745     8.792
     9   6 C        2.919    -0.038    28.954     8.824
    10   6 C        2.919    -0.030    28.745     8.792
    11   6 C        2.922    -0.047    29.169     8.857
    12   6 C        2.922     0.066    26.521     8.445
    13   6 C        2.920    -0.049    29.210     8.863
    14   6 C        2.923    -0.033    28.829     8.805
    15   6 C        2.976     0.000    28.022     8.683
    16   6 C        2.972     0.013    27.721     8.636
    17   6 C        2.921    -0.035    28.870     8.811
    18   6 C        2.916    -0.045    29.128     8.850
    19   6 C        2.988     0.077    26.271     8.408
    20   7 N        1.837    -0.266    27.769     7.809
    21   6 C        3.056     0.085    26.045     8.369
    22   6 C        3.054     0.087    26.005     8.363
    23   7 N        1.838    -0.268    27.808     7.815
    24   6 C        2.984     0.078    26.250     8.404
    25   6 C        2.925    -0.052    29.286     8.875
    26   6 C        3.026    -0.012    28.288     8.724
    27   6 C        2.913    -0.020    28.510     8.756
    28   6 C        2.918    -0.028    28.692     8.784
    29   6 C        2.918    -0.028    28.711     8.787
    30   6 C        2.976     0.016    27.639     8.624
    31   6 C        2.918    -0.029    28.718     8.788
    32   6 C        2.918    -0.028    28.690     8.784
    33   6 C        2.912    -0.020    28.518     8.757
    34   6 C        3.026    -0.012    28.285     8.724
    35   6 C        3.139    -0.009    28.012     8.662
    36   6 C        2.923    -0.034    28.835     8.806
    37   6 C        2.920    -0.049    29.221     8.865
    38   6 C        2.922    -0.047    29.175     8.858
    39   6 C        2.919    -0.030    28.746     8.792
    40   1 H        0.926     0.033     2.545     2.495
    41   1 H        0.926     0.034     2.526     2.485
    42   1 H        0.926     0.032     2.552     2.498
    43   1 H        0.926     0.033     2.548     2.496
    44   1 H        0.926     0.034     2.526     2.485
    45   1 H        0.926     0.033     2.545     2.495
    46   1 H        0.926     0.034     2.525     2.485
    47   1 H        0.926     0.032     2.551     2.498
    48   1 H        0.926     0.036     2.506     2.475
    49   1 H        0.926     0.037     2.490     2.468
    50   1 H        0.926     0.049     2.333     2.388
    51   1 H        0.926     0.051     2.312     2.378
    52   1 H        0.926     0.050     2.315     2.379
    53   1 H        0.926     0.049     2.331     2.388
    54   1 H        0.926     0.048     2.342     2.393
    55   1 H        0.926     0.050     2.321     2.382
    56   1 H        0.926     0.050     2.323     2.384
    57   1 H        0.926     0.048     2.344     2.394
    58   1 H        0.926     0.049     2.335     2.389
    59   1 H        0.926     0.038     2.476     2.461
    60   1 H        0.926     0.036     2.504     2.475
    61   1 H        0.926     0.033     2.546     2.495
    62   1 H        0.926     0.034     2.525     2.485

molecular dipole:
                 x           y           z       tot (Debye)
 q only:        0.073      -0.322       0.016
   full:        0.126      -0.319       0.016       0.873

 projected vibrational frequencies (cm⁻¹)
eigval :       -0.00    -0.00    -0.00    -0.00     0.00     0.00
eigval :        8.94    18.70    21.85    33.20    46.55    51.16
eigval :       65.15    68.72    72.58    85.32   105.20   131.34
eigval :      144.61   152.61   159.24   181.36   202.05   215.71
eigval :      232.36   260.14   281.80   293.59   305.68   315.83
eigval :      335.66   360.88   377.32   378.65   380.64   381.60
eigval :      391.84   403.12   423.12   424.80   445.92   451.95
eigval :      461.20   475.36   487.89   491.69   509.99   538.09
eigval :      561.49   571.54   578.79   580.66   584.62   589.31
eigval :      593.31   594.65   604.71   627.96   641.24   659.27
eigval :      665.65   677.69   686.27   693.20   701.32   736.21
eigval :      741.36   753.67   756.37   761.00   785.26   789.35
eigval :      805.37   811.04   814.57   831.55   865.66   873.46
eigval :      875.66   877.18   881.83   892.32   892.55   893.31
eigval :      898.19   909.09   911.48   915.11   920.68   921.26
eigval :      926.14   927.08   927.74   928.87   929.13   930.13
eigval :      933.85   968.48   984.62  1004.02  1015.72  1057.01
eigval :     1068.67  1079.61  1081.39  1082.42  1118.77  1120.04
eigval :     1122.13  1123.35  1141.69  1152.38  1176.10  1178.31
eigval :     1179.06  1184.29  1187.49  1193.40  1195.33  1206.45
eigval :     1214.57  1225.80  1228.87  1239.09  1259.49  1269.94
eigval :     1276.71  1279.36  1288.08  1294.36  1307.20  1314.30
eigval :     1322.47  1325.01  1325.09  1331.33  1363.45  1372.11
eigval :     1396.37  1397.76  1409.17  1422.96  1434.03  1438.05
eigval :     1440.45  1451.29  1469.03  1471.97  1481.41  1487.78
eigval :     1499.13  1545.67  1553.34  1569.60  1575.80  1579.59
eigval :     1582.16  1588.00  1590.91  1598.14  1604.81  1611.72
eigval :     1612.80  3071.98  3072.25  3072.84  3073.30  3073.81
eigval :     3074.81  3076.64  3078.50  3081.88  3082.27  3082.88
eigval :     3084.03  3084.59  3085.53  3085.83  3088.16  3090.83
eigval :     3092.78  3093.75  3094.37  3094.68  3095.95  3097.40

   temp. (K)  partition function   enthalpy   heat capacity  entropy
                                   cal/mol     cal/K/mol   cal/K/mol   J/K/mol
 298.15  VIB  0.335E+13            16761.840    110.254    102.808
         ROT  0.598E+08              888.752      2.981     38.565
         INT  0.200E+21            17650.593    113.235    141.374
         TR   0.107E+29             1481.254      4.968     44.481
         TOT                       19131.8465   118.2033   185.8544   777.6147

       T/K    H(0)-H(T)+PV         H(T)/Eh          T*S/Eh         G(T)/Eh
   ------------------------------------------------------------------------
    298.15    0.304885E-01    0.502071E+00    0.883054E-01    0.413765E+00
   ------------------------------------------------------------------------

         :::::::::::::::::::::::::::::::::::::::::::::::::::::
         ::                  THERMODYNAMIC                  ::
         :::::::::::::::::::::::::::::::::::::::::::::::::::::
         :: total free energy         -97.233437062780 Eh   ::
         ::.................................................::
         :: total energy              -97.647202187240 Eh   ::
         :: zero point energy           0.471581995929 Eh   ::
         :: G(RRHO) w/o ZPVE           -0.057816871469 Eh   ::
         :: G(RRHO) contrib.            0.413765124460 Eh   ::
         :::::::::::::::::::::::::::::::::::::::::::::::::::::

           -------------------------------------------------
          | TOTAL ENERGY              -97.647202187240 Eh   |
          | TOTAL ENTHALPY            -97.145131653174 Eh   |
          | TOTAL FREE ENERGY         -97.233437062780 Eh   |
          | GRADIENT NORM               0.000062588535 Eh/α |
          | HOMO-LUMO GAP               1.472024950707 eV   |
           -------------------------------------------------

 * finished run on 2025/08/22 at 23:30:19.738
