   * xtb version 6.7.1 (edcfbbe) compiled by 'albert@albert-system' on 2024-07-22

   ID    Z sym.   atoms
    1    6 C      1-4, 6-19, 21, 22, 24-39
    2    7 N      5, 20, 23
    3    1 H      40-62

          program call               : xtb data2507/toluene/TPA-AP/TPA-AP_toluene_S0_finalOpt.xtbopt.xyz --gfn 2 --uhf 2 --gbsa toluene --ohess vtight --parallel 40 --molden --ceasefiles --namespace data2507/toluene/TPA-AP/TPA-AP_toluene_T1_preOpt
      * Solvation model:               GBSA
        Solvent                        toluene
        Solvent mass                       9.2140E+01 g/mol
          :  Hamiltonian                  GFN2-xTB          :
 * total energy  :   -97.5842002 Eh     change       -0.7482868E-09 Eh
 * total energy  :   -97.5870035 Eh     change       -0.2803284E-02 Eh
 * total energy  :   -97.5881214 Eh     change       -0.1117882E-02 Eh
 * total energy  :   -97.5882617 Eh     change       -0.1402746E-03 Eh
 * total energy  :   -97.5883272 Eh     change       -0.6547857E-04 Eh
 * total energy  :   -97.5883351 Eh     change       -0.7935477E-05 Eh
 * total energy  :   -97.5883420 Eh     change       -0.6902023E-05 Eh
 * total energy  :   -97.5883446 Eh     change       -0.2557400E-05 Eh
 * total energy  :   -97.5883464 Eh     change       -0.1829754E-05 Eh
 * total energy  :   -97.5883477 Eh     change       -0.1271896E-05 Eh
 * total energy  :   -97.5883729 Eh     change       -0.5669784E-06 Eh
 * total energy  :   -97.5883735 Eh     change       -0.6515355E-06 Eh
 * total energy  :   -97.5883740 Eh     change       -0.4679172E-06 Eh
 * total energy  :   -97.5883744 Eh     change       -0.3805416E-06 Eh
 * total energy  :   -97.5883748 Eh     change       -0.4396276E-06 Eh
 * total energy  :   -97.5883752 Eh     change       -0.4176466E-06 Eh
 * total energy  :   -97.5883757 Eh     change       -0.4716776E-06 Eh
 * total energy  :   -97.5883763 Eh     change       -0.5754190E-06 Eh
 * total energy  :   -97.5883763 Eh     change       -0.4766616E-07 Eh
   *** GEOMETRY OPTIMIZATION CONVERGED AFTER 44 ITERATIONS ***

 final structure:
================
62
 xtb: 6.7.1 (edcfbbe)
C           -8.13663797744918        2.91985219763724        0.05520198666017
C           -8.38023801082093        1.74437056987864        0.74838490655653
C           -7.45278729760502        0.72078982227302        0.73805075878799
C           -6.26228860419583        0.85893324491880        0.02198123790945
N           -5.32158186971215       -0.17655586023525        0.00546857051236
C           -5.75104339619492       -1.50857967222745       -0.01857200293067
C           -5.06138641030106       -2.48635323916099        0.70058256828370
C           -5.48868355501458       -3.79964161406973        0.67281468769004
C           -6.60760532307009       -4.15870159144542       -0.06258623763417
C           -7.29739070147417       -3.19102527692286       -0.77635465019811
C           -6.87489474740408       -1.87593710236116       -0.76062722231764
C           -3.95674998695893        0.11632288178543        0.01100643093288
C           -3.05522829632904       -0.67598864685822       -0.70529386103142
C           -1.70893262117603       -0.38686966570578       -0.69541234055297
C           -1.20720529996384        0.70769940820373        0.01543013096218
C            0.22181146048580        1.01711084351117        0.01335934710958
C            0.66979327939457        2.34299705998992        0.01569924294072
C            2.01294406642083        2.64554913201812       -0.00292507016435
C            2.98596511891298        1.63907825095863       -0.00900844712598
N            4.28915700779929        1.90990072788453       -0.02256282864886
C            5.17598959315878        0.93455726463499       -0.01936121988763
C            4.72422873522456       -0.44388199356446        0.00133875259332
N            3.44959279511523       -0.72540344791529        0.00745204461717
C            2.53505295668079        0.26128647955992       -0.00015100071414
C            1.17290382170355       -0.00526173365107        0.00280929185024
C            5.89131368356837       -1.29357500061403        0.01222277111510
C            6.11307174371320       -2.65563727547298        0.03658136207594
C            7.44113103767983       -3.10764925226716        0.04161215513098
C            8.52495187854195       -2.25551396598620        0.02226351976434
C            8.33270366629072       -0.85504286640061       -0.00311113688697
C            9.31402132335480        0.16463238452917       -0.02486842539303
C            8.93441327814937        1.49050542628601       -0.04580876374766
C            7.59587721515812        1.90682577279587       -0.04665839224979
C            6.60879243577402        0.93717381549848       -0.02622297457384
C            7.00634072412022       -0.42467390921062       -0.00610935234030
C           -2.11636463144091        1.49677172654183        0.72653642474268
C           -3.46280608362513        1.20729826208303        0.73159083956298
C           -6.02383703776383        2.04305646915027       -0.67816505650358
C           -6.95486008837400        3.06317529984828       -0.65515038293773
H           -8.86259015642653        3.71864553942436        0.06827758103099
H           -9.29580013746036        1.62681688751082        1.30913788991114
H           -7.63850821232839       -0.18856154641522        1.29041992767892
H           -4.19754083916006       -2.20593317166457        1.28515953536581
H           -4.94914573606247       -4.54623203642535        1.23677268344731
H           -6.93953438207669       -5.18574426113473       -0.07933783237987
H           -8.16625065772671       -3.46361322321100       -1.35714946244276
H           -7.40564788769885       -1.12594525454822       -1.32840215327903
H           -3.42428289138017       -1.51141333098879       -1.28198490917325
H           -1.03415732046616       -0.99716196975008       -1.27663373285142
H           -0.04925354268799        3.14802538238234        0.00090990537111
H            2.35123709803507        3.67062400703893       -0.01723406790027
H            0.86809214121030       -1.04024034318797        0.02824785178852
H            5.29527734574400       -3.36020812544991        0.05194535139971
H            7.61559986734228       -4.17434304594388        0.06150638867760
H            9.52846745691244       -2.65594254303009        0.02696786351210
H           10.36107741281453       -0.10074573148625       -0.02442384635907
H            9.70222154042189        2.25172737371423       -0.06212660141671
H            7.35070099390702        2.95812669544753       -0.06271571762945
H           -1.75447855877271        2.32887971077622        1.31158350061480
H           -4.14420478451650        1.81657664570545        1.30707210497632
H           -5.11041227278045        2.15107643106913       -1.24429469517944
H           -6.76017790843946        3.97303975620247       -1.20363601377089

          :  Hamiltonian                  GFN2-xTB          :
         :: gradient norm              0.000104073756 Eh/a0 ::
         :: HOMO-LUMO gap              0.063774666512 eV    ::
         :: SCC energy               -99.412863296695 Eh    ::
         :: -> dispersion             -0.083460389539 Eh    ::
         :: -> Gsolv                  -0.044443212162 Eh    ::
         :: repulsion energy           1.824486950981 Eh    ::

    * Orbital Energies and Occupations

         #    Occupation            Energy/Eh            Energy/eV
      -------------------------------------------------------------
         1        2.0000           -0.6754086             -18.3788
       ...           ...                  ...                  ...
        80        2.0000           -0.4155409             -11.3074
        81        2.0000           -0.4148891             -11.2897
        82        2.0000           -0.4144253             -11.2771
        83        2.0000           -0.4131543             -11.2425
        84        2.0000           -0.4111122             -11.1869
        85        2.0000           -0.4106566             -11.1745
        86        2.0000           -0.4037564             -10.9868
        87        2.0000           -0.4001662             -10.8891
        88        2.0000           -0.3896342             -10.6025
        89        2.0000           -0.3796870             -10.3318
        90        1.7867           -0.3569917              -9.7142
        91        1.2133           -0.3545123              -9.6468
        92        0.7744           -0.2924049              -7.9567 (HOMO)
        93        0.2256           -0.2900617              -7.8930 (LUMO)
        94                         -0.2475252              -6.7355
        95                         -0.2381080              -6.4792
        96                         -0.2335872              -6.3562
        97                         -0.2283937              -6.2149
        98                         -0.2273062              -6.1853
        99                         -0.2270080              -6.1772
       100                         -0.2187828              -5.9534
       101                         -0.2100814              -5.7166
       102                         -0.1954451              -5.3183
       103                         -0.1726713              -4.6986
       ...                                ...                  ...
       179                          0.7323289              19.9277
      -------------------------------------------------------------
                  HL-Gap            0.0023431 Eh            0.0638 eV

     #   Z          covCN         q      C6AA      α(0)
     1   6 C        2.919    -0.034    28.844     8.807
     2   6 C        2.919    -0.028    28.690     8.784
     3   6 C        2.922    -0.044    29.096     8.846
     4   6 C        2.924     0.065    26.555     8.451
     5   7 N        2.752    -0.052    22.245     7.005
     6   6 C        2.925     0.064    26.557     8.451
     7   6 C        2.921    -0.044    29.087     8.844
     8   6 C        2.919    -0.027    28.688     8.783
     9   6 C        2.919    -0.034    28.840     8.806
    10   6 C        2.919    -0.028    28.690     8.784
    11   6 C        2.921    -0.044    29.091     8.845
    12   6 C        2.924     0.062    26.619     8.461
    13   6 C        2.919    -0.045    29.118     8.849
    14   6 C        2.923    -0.034    28.843     8.807
    15   6 C        2.975     0.008    27.845     8.656
    16   6 C        2.971     0.001    28.009     8.681
    17   6 C        2.920    -0.039    28.980     8.828
    18   6 C        2.915    -0.060    29.491     8.905
    19   6 C        2.950     0.086    26.085     8.377
    20   7 N        1.840    -0.227    26.818     7.675
    21   6 C        3.033     0.068    26.450     8.436
    22   6 C        3.033     0.082    26.144     8.387
    23   7 N        1.841    -0.226    26.783     7.670
    24   6 C        2.950     0.081    26.192     8.394
    25   6 C        2.923    -0.063    29.562     8.916
    26   6 C        3.034    -0.015    28.363     8.735
    27   6 C        2.912    -0.028    28.693     8.784
    28   6 C        2.918    -0.033    28.812     8.802
    29   6 C        2.919    -0.036    28.908     8.817
    30   6 C        2.975     0.013    27.731     8.638
    31   6 C        2.917    -0.042    29.037     8.836
    32   6 C        2.917    -0.032    28.797     8.800
    33   6 C        2.911    -0.032    28.797     8.799
    34   6 C        3.034    -0.017    28.391     8.740
    35   6 C        3.148    -0.017    28.156     8.680
    36   6 C        2.923    -0.034    28.848     8.808
    37   6 C        2.919    -0.045    29.122     8.849
    38   6 C        2.921    -0.044    29.094     8.845
    39   6 C        2.919    -0.028    28.689     8.783
    40   1 H        0.926     0.038     2.472     2.459
    41   1 H        0.926     0.040     2.451     2.448
    42   1 H        0.926     0.039     2.467     2.456
    43   1 H        0.926     0.038     2.471     2.458
    44   1 H        0.926     0.039     2.456     2.451
    45   1 H        0.926     0.038     2.470     2.458
    46   1 H        0.926     0.040     2.448     2.447
    47   1 H        0.926     0.039     2.463     2.454
    48   1 H        0.926     0.039     2.456     2.451
    49   1 H        0.926     0.040     2.454     2.450
    50   1 H        0.926     0.043     2.416     2.430
    51   1 H        0.926     0.044     2.391     2.418
    52   1 H        0.926     0.047     2.358     2.401
    53   1 H        0.926     0.038     2.479     2.462
    54   1 H        0.926     0.039     2.466     2.456
    55   1 H        0.926     0.038     2.469     2.457
    56   1 H        0.926     0.035     2.512     2.479
    57   1 H        0.925     0.036     2.509     2.477
    58   1 H        0.926     0.033     2.539     2.492
    59   1 H        0.926     0.041     2.437     2.441
    60   1 H        0.926     0.040     2.449     2.447
    61   1 H        0.926     0.039     2.469     2.457
    62   1 H        0.926     0.039     2.456     2.451

molecular dipole:
                 x           y           z       tot (Debye)
 q only:       -3.264      -0.388       0.009
   full:       -3.196      -0.375       0.007       8.179

 projected vibrational frequencies (cm⁻¹)
eigval :       -0.00    -0.00    -0.00    -0.00     0.00     0.00
eigval :        5.54    13.05    20.17    38.42    48.12    53.13
eigval :       64.34    70.31    75.07    89.19   105.86   128.50
eigval :      145.88   152.45   154.64   179.99   203.79   214.78
eigval :      233.00   246.20   274.31   287.58   293.91   315.81
eigval :      332.23   349.71   372.46   377.58   378.28   381.16
eigval :      391.33   399.42   419.88   426.51   427.72   449.12
eigval :      455.16   473.12   485.90   492.92   510.06   519.83
eigval :      545.14   561.74   565.94   574.06   576.08   581.69
eigval :      587.16   590.27   593.40   616.02   634.47   637.21
eigval :      658.95   660.04   663.80   676.69   682.16   688.90
eigval :      715.56   732.08   756.42   760.03   762.19   778.62
eigval :      792.63   797.39   798.25   803.28   819.91   859.37
eigval :      865.26   869.61   871.98   872.91   875.20   877.86
eigval :      886.37   894.52   896.09   908.74   911.24   913.65
eigval :      917.57   921.40   925.36   927.31   928.82   929.35
eigval :      930.95   936.42   967.69   983.44  1002.55  1011.36
eigval :     1016.96  1053.60  1070.47  1080.47  1081.42  1086.37
eigval :     1114.35  1119.99  1122.19  1139.22  1149.03  1174.01
eigval :     1177.65  1178.15  1178.44  1180.08  1191.77  1193.59
eigval :     1197.15  1212.69  1223.87  1227.99  1244.75  1254.45
eigval :     1267.33  1270.43  1274.60  1277.27  1285.77  1301.54
eigval :     1307.76  1310.72  1314.17  1323.84  1324.56  1342.45
eigval :     1361.96  1370.07  1385.71  1400.71  1408.48  1419.01
eigval :     1429.25  1432.54  1438.49  1461.87  1462.07  1473.36
eigval :     1479.24  1492.54  1507.25  1537.87  1541.20  1564.44
eigval :     1568.85  1569.54  1573.22  1581.22  1583.22  1591.64
eigval :     1598.24  3065.14  3067.42  3076.60  3076.99  3077.54
eigval :     3078.16  3078.79  3079.29  3080.76  3080.81  3081.84
eigval :     3086.29  3087.20  3088.08  3088.72  3089.38  3089.92
eigval :     3090.49  3091.30  3092.60  3094.44  3097.09  3097.58

   temp. (K)  partition function   enthalpy   heat capacity  entropy
                                   cal/mol     cal/K/mol   cal/K/mol   J/K/mol
 298.15  VIB  0.809E+13            17021.048    112.440    104.905
         ROT  0.600E+08              888.752      2.981     38.572
         INT  0.485E+21            17909.800    115.421    143.477
         TR   0.107E+29             1481.254      4.968     44.481
         TOT                       19391.0541   120.3888   187.9577   786.4151

       T/K    H(0)-H(T)+PV         H(T)/Eh          T*S/Eh         G(T)/Eh
   ------------------------------------------------------------------------
    298.15    0.309016E-01    0.497901E+00    0.893048E-01    0.408596E+00
   ------------------------------------------------------------------------

         :::::::::::::::::::::::::::::::::::::::::::::::::::::
         ::                  THERMODYNAMIC                  ::
         :::::::::::::::::::::::::::::::::::::::::::::::::::::
         :: total free energy         -97.179780105617 Eh   ::
         ::.................................................::
         :: total energy              -97.588376349284 Eh   ::
         :: zero point energy           0.466999408652 Eh   ::
         :: G(RRHO) w/o ZPVE           -0.058403164984 Eh   ::
         :: G(RRHO) contrib.            0.408596243668 Eh   ::
         :::::::::::::::::::::::::::::::::::::::::::::::::::::

           -------------------------------------------------
          | TOTAL ENERGY              -97.588376349284 Eh   |
          | TOTAL ENTHALPY            -97.090475328955 Eh   |
          | TOTAL FREE ENERGY         -97.179780105617 Eh   |
          | GRADIENT NORM               0.000094604498 Eh/α |
          | HOMO-LUMO GAP               0.063759577263 eV   |
           -------------------------------------------------

 * finished run on 2025/08/22 at 23:30:24.753
