   * xtb version 6.7.1 (edcfbbe) compiled by 'albert@albert-system' on 2024-07-22

   ID    Z sym.   atoms
    1    6 C      1-4, 6-19, 21, 22, 24-39
    2    7 N      5, 20, 23
    3    1 H      40-62

          program call               : xtb data2507/toluene/TPA-AP/TPA-AP.xyz --gfn 2 --gbsa toluene --ohess vtight --parallel 40 --molden --ceasefiles --namespace data2507/toluene/TPA-AP/TPA-AP_toluene_S0_preOpt
      * Solvation model:               GBSA
        Solvent                        toluene
        Solvent mass                       9.2140E+01 g/mol
          :  Hamiltonian                  GFN2-xTB          :
 * total energy  :   -97.6270274 Eh     change       -0.2386003E-09 Eh
 * total energy  :   -97.6404452 Eh     change       -0.1341782E-01 Eh
 * total energy  :   -97.6448404 Eh     change       -0.4395183E-02 Eh
 * total energy  :   -97.6456728 Eh     change       -0.8323647E-03 Eh
 * total energy  :   -97.6460572 Eh     change       -0.3844039E-03 Eh
 * total energy  :   -97.6461650 Eh     change       -0.1078725E-03 Eh
 * total energy  :   -97.6462495 Eh     change       -0.8443527E-04 Eh
 * total energy  :   -97.6463176 Eh     change       -0.6812636E-04 Eh
 * total energy  :   -97.6463914 Eh     change       -0.7376026E-04 Eh
 * total energy  :   -97.6464535 Eh     change       -0.6217987E-04 Eh
 * total energy  :   -97.6469965 Eh     change       -0.7310377E-06 Eh
 * total energy  :   -97.6469971 Eh     change       -0.6362445E-06 Eh
 * total energy  :   -97.6469977 Eh     change       -0.5582526E-06 Eh
 * total energy  :   -97.6469982 Eh     change       -0.5645988E-06 Eh
 * total energy  :   -97.6469987 Eh     change       -0.5126875E-06 Eh
 * total energy  :   -97.6469991 Eh     change       -0.3490234E-06 Eh
 * total energy  :   -97.6469993 Eh     change       -0.2027355E-06 Eh
 * total energy  :   -97.6469994 Eh     change       -0.1139512E-06 Eh
 * total energy  :   -97.6469994 Eh     change       -0.8448566E-08 Eh
   *** GEOMETRY OPTIMIZATION CONVERGED AFTER 67 ITERATIONS ***

 final structure:
================
62
 xtb: 6.7.1 (edcfbbe)
C           -6.84116221046141       -3.50219805813770       -1.25722308599616
C           -7.19531146673003       -2.28753894106356       -1.82224527806877
C           -6.55517066762584       -1.12433124679074       -1.43937240282331
C           -5.55043851617380       -1.16056435187886       -0.47275593024742
N           -4.90787433550495        0.02018387692908       -0.07453783087885
C           -5.65274220879581        1.20121038522502        0.05455765314667
C           -5.11519600535916        2.42478096615528       -0.34454193901484
C           -5.85394406286283        3.58517187745838       -0.21380689445653
C           -7.13809540267354        3.54510047675260        0.30545455406445
C           -7.67886644295734        2.33109772739564        0.69767891421649
C           -6.94431274625775        1.16658220809350        0.57961817247694
C           -3.53936465782825        0.02079199269891        0.19441558109113
C           -3.01016156122383        0.83267080040007        1.20011992998926
C           -1.65744094025705        0.82920020046966        1.46470303107962
C           -0.78209581038118        0.02227276538963        0.73727504422944
C            0.65830914680724        0.02710138547690        1.01832047976695
C            1.12034408074018        0.11511268489744        2.35067465077763
C            2.45523389641866        0.12675731085644        2.64283164430840
C            3.41020708354042        0.05626838027816        1.61198245541373
N            4.73040113064881        0.08229457218473        1.92693138479198
C            5.55043250584708        0.01808707087931        0.91462573435424
C            5.09219015478680       -0.07980277977820       -0.45799848429629
N            3.82978672978913       -0.10769394211640       -0.77976879308313
C            2.95780376129810       -0.03755098137259        0.26297614383351
C            1.58125166722800       -0.05197220008953       -0.00388605376131
C            6.26319094011466       -0.13121531943022       -1.32136585166871
C            6.47869243851810       -0.22114749844942       -2.67423236838182
C            7.80784686382705       -0.23958624217729       -3.13807527983753
C            8.89215475487129       -0.16944934846370       -2.29565811584298
C            8.70647158160876       -0.07444880887011       -0.89732529314959
C            9.69473862403800        0.00886066606443        0.11040331930919
C            9.33253062009088        0.09560674740051        1.43389761365855
C            7.99027832663971        0.10871324136115        1.85864103892682
C            7.00528554934604        0.03071413672261        0.90530908319993
C            7.38033520601940       -0.05985415626565       -0.45620103128752
C           -1.31536989628467       -0.78556806828685       -0.26756913673287
C           -2.66730643948403       -0.79018096833936       -0.53565550926055
C           -5.20088767541526       -2.38506495877822        0.09629724622050
C           -5.84047320671403       -3.54416651356953       -0.29961854759366
H           -7.34128569498916       -4.40962483752439       -1.56086984561374
H           -7.97078368761328       -2.24538167690423       -2.57330346991845
H           -6.82757770972847       -0.17954280221411       -1.88703678924040
H           -4.11808223463586        2.45688214440089       -0.75929585528283
H           -5.42640103643874        4.52627689608367       -0.52814249208614
H           -7.71352934570380        4.45348186467452        0.40272519071919
H           -8.67747410772260        2.29081029682039        1.10803665498684
H           -7.36473748875198        0.22222819053043        0.89379706276193
H           -3.67042292002960        1.46456103819476        1.77585633487971
H           -1.27060690437464        1.47712551446991        2.23731522219320
H            0.39739783821058        0.15270832591558        3.15196301810205
H            2.81147557407403        0.18808729551435        3.66018095054948
H            1.27200003272824       -0.10245129588285       -1.03684247547291
H            5.65630312106449       -0.27696570006705       -3.37097210714547
H            7.97432626171203       -0.31139667848312       -4.20332897273006
H            9.89444828607041       -0.18608144420630       -2.69847441766774
H           10.73864075006625        0.00329562029749       -0.16768272503505
H           10.10513503832424        0.15761178309514        2.18682072468685
H            7.75051798340226        0.17883696547869        2.90865646968469
H           -0.66123833028129       -1.42936206444833       -0.83667285923041
H           -3.05962084877648       -1.42192264089279       -1.31909559108524
H           -4.42833349389744       -2.41966902106741        0.85076003086303
H           -5.56142389189500       -4.48575486302394        0.15073109260780

          :  Hamiltonian                  GFN2-xTB          :
         :: gradient norm              0.000072612097 Eh/a0 ::
         :: HOMO-LUMO gap              1.466851557238 eV    ::
         :: SCC energy               -99.470377212996 Eh    ::
         :: -> dispersion             -0.083522968667 Eh    ::
         :: -> Gsolv                  -0.044125309380 Eh    ::
         :: repulsion energy           1.823377795110 Eh    ::

    * Orbital Energies and Occupations

         #    Occupation            Energy/Eh            Energy/eV
      -------------------------------------------------------------
         1        2.0000           -0.6766595             -18.4128
       ...           ...                  ...                  ...
        79        2.0000           -0.4221421             -11.4871
        80        2.0000           -0.4202877             -11.4366
        81        2.0000           -0.4151078             -11.2957
        82        2.0000           -0.4138160             -11.2605
        83        2.0000           -0.4098934             -11.1538
        84        2.0000           -0.4084127             -11.1135
        85        2.0000           -0.4065748             -11.0635
        86        2.0000           -0.4054427             -11.0327
        87        2.0000           -0.4048328             -11.0161
        88        2.0000           -0.3949025             -10.7458
        89        2.0000           -0.3883361             -10.5672
        90        2.0000           -0.3535455              -9.6205
        91        2.0000           -0.3504321              -9.5357 (HOMO)
        92                         -0.2965263              -8.0689 (LUMO)
        93                         -0.2946987              -8.0192
        94                         -0.2463750              -6.7042
        95                         -0.2395105              -6.5174
        96                         -0.2311922              -6.2911
        97                         -0.2284488              -6.2164
        98                         -0.2231923              -6.0734
        99                         -0.2224683              -6.0537
       100                         -0.2215362              -6.0283
       101                         -0.2141241              -5.8266
       102                         -0.1947553              -5.2996
       ...                                ...                  ...
       179                          0.7215797              19.6352
      -------------------------------------------------------------
                  HL-Gap            0.0539058 Eh            1.4669 eV

     #   Z          covCN         q      C6AA      α(0)
     1   6 C        2.919    -0.038    28.957     8.824
     2   6 C        2.919    -0.030    28.745     8.792
     3   6 C        2.922    -0.047    29.172     8.857
     4   6 C        2.924     0.065    26.545     8.449
     5   7 N        2.752    -0.076    22.708     7.077
     6   6 C        2.924     0.065    26.545     8.449
     7   6 C        2.922    -0.047    29.175     8.858
     8   6 C        2.919    -0.030    28.746     8.792
     9   6 C        2.919    -0.038    28.955     8.824
    10   6 C        2.919    -0.030    28.745     8.792
    11   6 C        2.922    -0.047    29.170     8.857
    12   6 C        2.922     0.066    26.519     8.445
    13   6 C        2.920    -0.049    29.220     8.864
    14   6 C        2.924    -0.034    28.835     8.806
    15   6 C        2.976     0.000    28.017     8.682
    16   6 C        2.972     0.013    27.718     8.636
    17   6 C        2.921    -0.035    28.870     8.811
    18   6 C        2.916    -0.045    29.127     8.850
    19   6 C        2.987     0.077    26.270     8.408
    20   7 N        1.837    -0.266    27.765     7.809
    21   6 C        3.056     0.086    26.043     8.369
    22   6 C        3.054     0.087    26.005     8.363
    23   7 N        1.838    -0.268    27.805     7.814
    24   6 C        2.984     0.078    26.250     8.404
    25   6 C        2.925    -0.052    29.282     8.874
    26   6 C        3.026    -0.012    28.287     8.724
    27   6 C        2.913    -0.020    28.509     8.755
    28   6 C        2.918    -0.028    28.691     8.784
    29   6 C        2.918    -0.028    28.710     8.787
    30   6 C        2.976     0.016    27.638     8.624
    31   6 C        2.918    -0.029    28.717     8.788
    32   6 C        2.918    -0.028    28.690     8.784
    33   6 C        2.912    -0.020    28.517     8.757
    34   6 C        3.026    -0.012    28.285     8.724
    35   6 C        3.139    -0.009    28.011     8.662
    36   6 C        2.923    -0.033    28.829     8.805
    37   6 C        2.920    -0.049    29.207     8.863
    38   6 C        2.922    -0.047    29.179     8.858
    39   6 C        2.919    -0.030    28.747     8.792
    40   1 H        0.926     0.033     2.547     2.496
    41   1 H        0.926     0.034     2.527     2.486
    42   1 H        0.926     0.032     2.553     2.499
    43   1 H        0.926     0.033     2.551     2.498
    44   1 H        0.926     0.034     2.528     2.487
    45   1 H        0.926     0.033     2.546     2.495
    46   1 H        0.926     0.034     2.525     2.485
    47   1 H        0.926     0.032     2.551     2.498
    48   1 H        0.926     0.036     2.505     2.475
    49   1 H        0.926     0.038     2.473     2.459
    50   1 H        0.926     0.049     2.331     2.388
    51   1 H        0.926     0.051     2.311     2.377
    52   1 H        0.926     0.050     2.314     2.379
    53   1 H        0.926     0.049     2.331     2.387
    54   1 H        0.926     0.048     2.341     2.393
    55   1 H        0.926     0.050     2.321     2.382
    56   1 H        0.926     0.050     2.323     2.383
    57   1 H        0.926     0.048     2.344     2.394
    58   1 H        0.926     0.049     2.334     2.389
    59   1 H        0.926     0.037     2.487     2.466
    60   1 H        0.926     0.036     2.506     2.476
    61   1 H        0.926     0.033     2.551     2.498
    62   1 H        0.926     0.034     2.529     2.487

molecular dipole:
                 x           y           z       tot (Debye)
 q only:        0.106       0.004      -0.320
   full:        0.160       0.004      -0.318       0.904

 projected vibrational frequencies (cm⁻¹)
eigval :       -0.00    -0.00    -0.00     0.00     0.00     0.00
eigval :       12.48    21.07    24.18    36.95    46.78    53.52
eigval :       62.87    69.50    77.20    90.49   107.73   128.30
eigval :      145.52   152.08   159.66   182.10   204.18   214.32
eigval :      233.33   255.53   285.44   294.09   306.54   316.25
eigval :      330.80   370.84   376.81   376.99   378.50   386.08
eigval :      388.16   390.20   424.87   432.80   445.91   451.86
eigval :      461.43   475.78   487.77   494.20   510.81   538.25
eigval :      561.68   571.84   576.16   580.99   586.03   589.48
eigval :      593.07   595.18   608.58   625.17   641.73   659.83
eigval :      666.07   677.76   685.34   693.07   700.99   736.41
eigval :      741.66   753.54   754.82   763.62   785.32   789.44
eigval :      805.17   810.93   814.65   833.31   866.85   870.60
eigval :      876.52   881.18   882.67   890.85   892.37   895.85
eigval :      898.29   909.03   911.65   915.21   920.89   921.23
eigval :      924.18   925.45   927.36   927.68   932.48   934.63
eigval :      935.30   968.55   984.66  1003.92  1016.41  1057.07
eigval :     1068.75  1079.74  1081.17  1082.84  1118.82  1120.28
eigval :     1122.69  1123.40  1142.79  1153.87  1176.02  1178.65
eigval :     1180.39  1184.57  1187.64  1193.80  1196.38  1206.73
eigval :     1215.21  1226.03  1229.02  1239.35  1259.31  1270.90
eigval :     1276.49  1279.54  1288.79  1294.31  1307.35  1314.57
eigval :     1322.39  1325.17  1325.28  1331.41  1363.48  1372.13
eigval :     1396.46  1397.70  1408.71  1422.95  1434.01  1438.07
eigval :     1440.46  1451.32  1469.14  1471.91  1481.56  1487.94
eigval :     1499.32  1546.25  1554.36  1569.62  1575.78  1579.56
eigval :     1582.16  1589.18  1590.86  1598.37  1604.75  1611.72
eigval :     1612.73  3071.76  3072.42  3072.67  3073.63  3074.08
eigval :     3075.17  3077.20  3078.92  3082.03  3082.30  3082.84
eigval :     3084.32  3084.49  3085.26  3086.33  3088.60  3091.27
eigval :     3093.12  3093.73  3094.38  3095.01  3096.13  3097.62

   temp. (K)  partition function   enthalpy   heat capacity  entropy
                                   cal/mol     cal/K/mol   cal/K/mol   J/K/mol
 298.15  VIB  0.156E+13            16725.345    110.388    102.082
         ROT  0.604E+08              888.752      2.981     38.584
         INT  0.939E+20            17614.098    113.369    140.667
         TR   0.107E+29             1481.254      4.968     44.481
         TOT                       19095.3515   118.3373   185.1476   774.6577

       T/K    H(0)-H(T)+PV         H(T)/Eh          T*S/Eh         G(T)/Eh
   ------------------------------------------------------------------------
    298.15    0.304304E-01    0.502153E+00    0.879696E-01    0.414184E+00
   ------------------------------------------------------------------------

         :::::::::::::::::::::::::::::::::::::::::::::::::::::
         ::                  THERMODYNAMIC                  ::
         :::::::::::::::::::::::::::::::::::::::::::::::::::::
         :: total free energy         -97.232815909997 Eh   ::
         ::.................................................::
         :: total energy              -97.646999419976 Eh   ::
         :: zero point energy           0.471722743583 Eh   ::
         :: G(RRHO) w/o ZPVE           -0.057539233603 Eh   ::
         :: G(RRHO) contrib.            0.414183509979 Eh   ::
         :::::::::::::::::::::::::::::::::::::::::::::::::::::

           -------------------------------------------------
          | TOTAL ENERGY              -97.646999419976 Eh   |
          | TOTAL ENTHALPY            -97.144846296857 Eh   |
          | TOTAL FREE ENERGY         -97.232815909997 Eh   |
          | GRADIENT NORM               0.000072642160 Eh/α |
          | HOMO-LUMO GAP               1.466850168757 eV   |
           -------------------------------------------------

 * finished run on 2025/08/22 at 23:27:42.051
