   * xtb version 6.7.1 (edcfbbe) compiled by 'albert@albert-system' on 2024-07-22

   ID    Z sym.   atoms
    1    6 C      1-6, 8-20, 22-27
    2    7 N      7, 21
    3    1 H      28-45

          program call               : xtb data2507/toluene/SBA/SBA_toluene_T1_crest.xyz --gfn 2 --uhf 2 --gbsa toluene --ohess vtight --parallel 40 --molden --ceasefiles --namespace data2507/toluene/SBA/SBA_toluene_T1_finalOpt
      * Solvation model:               GBSA
        Solvent                        toluene
        Solvent mass                       9.2140E+01 g/mol
          :  Hamiltonian                  GFN2-xTB          :
 * total energy  :   -68.5152470 Eh     change       -0.2179689E-08 Eh
 * total energy  :   -68.5152611 Eh     change       -0.1408728E-04 Eh
 * total energy  :   -68.5152645 Eh     change       -0.3406075E-05 Eh
 * total energy  :   -68.5152659 Eh     change       -0.1387310E-05 Eh
 * total energy  :   -68.5152674 Eh     change       -0.1512966E-05 Eh
 * total energy  :   -68.5152684 Eh     change       -0.1043844E-05 Eh
 * total energy  :   -68.5152699 Eh     change       -0.1414794E-05 Eh
 * total energy  :   -68.5152718 Eh     change       -0.1986200E-05 Eh
 * total energy  :   -68.5152733 Eh     change       -0.1446121E-05 Eh
 * total energy  :   -68.5152740 Eh     change       -0.6713079E-06 Eh
 * total energy  :   -68.5152745 Eh     change       -0.5050403E-06 Eh
 * total energy  :   -68.5152750 Eh     change       -0.5256354E-06 Eh
 * total energy  :   -68.5152754 Eh     change       -0.4187455E-06 Eh
 * total energy  :   -68.5152756 Eh     change       -0.2371473E-06 Eh
 * total energy  :   -68.5152758 Eh     change       -0.1215573E-06 Eh
 * total energy  :   -68.5152758 Eh     change       -0.8197384E-07 Eh
   *** GEOMETRY OPTIMIZATION CONVERGED AFTER 16 ITERATIONS ***

 final structure:
================
45
 xtb: 6.7.1 (edcfbbe)
C           -2.45543923515020       -2.46933442541238       -2.54775590372564
C           -1.05194519647476       -2.55192558216534       -2.60238547464964
C           -0.28226607079979       -1.75287899575218       -1.77905727462313
C           -0.86067489740356       -0.86205556935680       -0.88996750109284
C           -2.27948889621216       -0.78173829246280       -0.83710168827947
C           -3.05491575347643       -1.59650508988543       -1.67694193685468
N           -2.88067800687546        0.08664833666886        0.02994911482749
C           -2.21009865085011        0.91800596999020        0.88230208497723
C           -2.91726065112752        1.77757691004088        1.73755466896974
C           -2.24826455126862        2.61447365222498        2.59288480694145
C           -0.84143714474762        2.61409497712550        2.61632086620276
C           -0.13870735254152        1.77016208718286        1.77807569468812
C           -0.78816948408608        0.91411063648597        0.90393247177791
C            0.00003176035559        0.00035417473118       -0.00093508696948
C            0.84414229870322        0.87073885060372       -0.89807844357942
C            0.24920778228675        1.77143258727898       -1.76606441760060
C            1.00332592126320        2.57817313483180       -2.59627403365088
C            2.40745091787288        2.49331503772159       -2.57065009089664
C            3.02305936610894        1.61068385414490       -1.72117665488491
C            2.26349882746192        0.78800680589492       -0.87460247632002
N            2.88069671292318       -0.09036753073065       -0.02903749642209
C            2.22609222614621       -0.92756315748936        0.83008384172943
C            2.94897412596495       -1.79451301997192        1.66440917929668
C            2.29606725021188       -2.63607479318418        2.52762898425392
C            0.89008419813579       -2.63321967168925        2.58013975007991
C            0.17191773589580       -1.78261630967711        1.76200150516938
C            0.80496586295774       -0.92144194510083        0.88083698021038
H           -3.05505707024553       -3.09404458828803       -3.19223757934430
H           -0.58055043515681       -3.23915611547537       -3.28766484215134
H            0.79576398690551       -1.81903617300899       -1.82403695481828
H           -4.13289710903303       -1.52275181826307       -1.62458605571064
H           -3.89223480224146        0.11666842717398        0.04107971132231
H           -3.99860817420217        1.76754475149307        1.70920196303905
H           -2.79573778856814        3.27404024146932        3.24894842195746
H           -0.31514756331346        3.27320904870905        3.28918041211390
H            0.94208133880473        1.77256005692036        1.79921372851437
H           -0.82943416484975        1.83931501848985       -1.78851375321022
H            0.51920853667616        3.27315113906241       -3.26468172913814
H            2.99499109358960        3.12426777491046       -3.22016591737463
H            4.10177829120374        1.53523320949146       -1.69121004288675
H            3.89221190543172       -0.12185868889487       -0.03848285413473
H            4.02953083837377       -1.78637941875274        1.61381246283314
H            2.85563350857041       -3.30096631360346        3.16792815931424
H            0.37647572360763       -3.29577890068594        3.25939115165892
H           -0.90820790222715       -1.78313499429575        1.80535273304056

          :  Hamiltonian                  GFN2-xTB          :
         :: gradient norm              0.000061974997 Eh/a0 ::
         :: HOMO-LUMO gap              0.422812573175 eV    ::
         :: SCC energy               -69.772676334935 Eh    ::
         :: -> dispersion             -0.064443830489 Eh    ::
         :: -> Gsolv                  -0.026083066056 Eh    ::
         :: repulsion energy           1.257400486119 Eh    ::

    * Orbital Energies and Occupations

         #    Occupation            Energy/Eh            Energy/eV
      -------------------------------------------------------------
         1        2.0000           -0.6717016             -18.2779
       ...           ...                  ...                  ...
        53        2.0000           -0.4265988             -11.6083
        54        2.0000           -0.4228573             -11.5065
        55        2.0000           -0.4228475             -11.5063
        56        2.0000           -0.4117773             -11.2050
        57        2.0000           -0.4043847             -11.0039
        58        2.0000           -0.4019128             -10.9366
        59        2.0000           -0.3998199             -10.8797
        60        2.0000           -0.3925849             -10.6828
        61        2.0000           -0.3925626             -10.6822
        62        2.0000           -0.3886281             -10.5751
        63        1.5038           -0.3495789              -9.5125
        64        1.4962           -0.3495497              -9.5117
        65        0.9997           -0.2380044              -6.4764 (HOMO)
        66        0.0003           -0.2224663              -6.0536 (LUMO)
        67        0.0000           -0.2179915              -5.9319
        68        0.0000           -0.2179682              -5.9312
        69        0.0000           -0.2167091              -5.8970
        70                         -0.2117592              -5.7623
        71                         -0.1910200              -5.1979
        72                         -0.1910016              -5.1974
        73                         -0.0967688              -2.6332
        74                         -0.0907311              -2.4689
        75                         -0.0804569              -2.1893
        76                         -0.0803945              -2.1876
       ...                                ...                  ...
       126                          0.6726605              18.3040
      -------------------------------------------------------------
                  HL-Gap            0.0155381 Eh            0.4228 eV

     #   Z          covCN         q      C6AA      α(0)
     1   6 C        2.915    -0.042    29.050     8.838
     2   6 C        2.916    -0.049    29.212     8.863
     3   6 C        2.917    -0.035    28.870     8.811
     4   6 C        2.989    -0.010    28.264     8.721
     5   6 C        2.913     0.045    26.995     8.520
     6   6 C        2.917    -0.056    29.386     8.889
     7   7 N        2.701    -0.096    23.116     7.141
     8   6 C        2.913     0.045    26.995     8.520
     9   6 C        2.917    -0.056    29.386     8.889
    10   6 C        2.915    -0.042    29.051     8.838
    11   6 C        2.916    -0.049    29.212     8.863
    12   6 C        2.917    -0.035    28.870     8.811
    13   6 C        2.989    -0.010    28.265     8.721
    14   6 C        3.925     0.022    20.138     6.378
    15   6 C        2.989    -0.010    28.263     8.721
    16   6 C        2.917    -0.035    28.870     8.811
    17   6 C        2.916    -0.049    29.212     8.863
    18   6 C        2.915    -0.042    29.049     8.838
    19   6 C        2.917    -0.056    29.387     8.889
    20   6 C        2.913     0.045    26.994     8.520
    21   7 N        2.701    -0.096    23.119     7.141
    22   6 C        2.913     0.045    26.994     8.520
    23   6 C        2.917    -0.056    29.386     8.889
    24   6 C        2.915    -0.042    29.051     8.838
    25   6 C        2.916    -0.049    29.211     8.863
    26   6 C        2.917    -0.035    28.871     8.811
    27   6 C        2.989    -0.010    28.265     8.721
    28   1 H        0.926     0.028     2.620     2.531
    29   1 H        0.926     0.025     2.658     2.550
    30   1 H        0.926     0.024     2.676     2.558
    31   1 H        0.925     0.027     2.626     2.534
    32   1 H        0.860     0.172     1.261     1.759
    33   1 H        0.925     0.027     2.626     2.534
    34   1 H        0.926     0.028     2.620     2.531
    35   1 H        0.926     0.025     2.658     2.550
    36   1 H        0.926     0.024     2.676     2.558
    37   1 H        0.926     0.024     2.676     2.558
    38   1 H        0.926     0.025     2.658     2.550
    39   1 H        0.926     0.028     2.620     2.531
    40   1 H        0.925     0.027     2.626     2.534
    41   1 H        0.860     0.172     1.261     1.759
    42   1 H        0.925     0.027     2.626     2.534
    43   1 H        0.926     0.028     2.620     2.531
    44   1 H        0.926     0.025     2.658     2.550
    45   1 H        0.926     0.024     2.676     2.558

molecular dipole:
                 x           y           z       tot (Debye)
 q only:       -0.001      -0.001      -0.000
   full:       -0.001      -0.001       0.000       0.003

 projected vibrational frequencies (cm⁻¹)
eigval :       -0.00    -0.00    -0.00     0.00     0.00     0.00
eigval :       24.49    25.37    38.99    73.88    74.08    97.08
eigval :      111.33   147.10   185.44   185.56   229.71   230.90
eigval :      252.57   293.14   293.29   298.66   374.17   376.33
eigval :      376.42   397.80   401.03   404.47   404.71   405.57
eigval :      447.61   453.68   462.21   462.36   536.71   536.96
eigval :      548.25   568.27   569.04   586.25   586.39   616.21
eigval :      626.23   628.31   651.30   651.36   651.53   669.33
eigval :      734.04   737.47   740.38   740.74   741.70   822.26
eigval :      822.45   834.27   835.90   836.39   859.33   861.45
eigval :      861.74   879.97   880.23   885.10   886.25   887.23
eigval :      888.28   896.52   897.54   901.23   901.58   962.12
eigval :     1055.11  1055.62  1064.76  1102.84  1111.52  1119.17
eigval :     1119.42  1142.60  1163.17  1163.62  1172.99  1173.84
eigval :     1178.17  1178.65  1180.94  1224.60  1227.60  1227.91
eigval :     1250.67  1255.73  1267.21  1267.42  1272.24  1335.51
eigval :     1335.89  1341.71  1365.40  1366.39  1366.51  1369.82
eigval :     1381.95  1384.17  1398.42  1398.74  1437.78  1454.35
eigval :     1459.22  1459.32  1464.58  1464.90  1478.78  1478.93
eigval :     1508.44  1508.60  1563.77  3055.40  3055.65  3055.77
eigval :     3056.28  3070.03  3070.40  3071.04  3071.69  3082.05
eigval :     3082.23  3082.81  3082.90  3094.23  3094.96  3095.28
eigval :     3097.26  3387.74  3392.05

   temp. (K)  partition function   enthalpy   heat capacity  entropy
                                   cal/mol     cal/K/mol   cal/K/mol   J/K/mol
 298.15  VIB  0.298E+08            11492.058     79.879     67.575
         ROT  0.224E+07              888.752      2.981     32.041
         INT  0.669E+14            12380.810     82.860     99.616
         TR   0.624E+28             1481.254      4.968     43.402
         TOT                       13862.0643    87.8278   143.0180   598.3872

       T/K    H(0)-H(T)+PV         H(T)/Eh          T*S/Eh         G(T)/Eh
   ------------------------------------------------------------------------
    298.15    0.220906E-01    0.365057E+00    0.679525E-01    0.297105E+00
   ------------------------------------------------------------------------

         :::::::::::::::::::::::::::::::::::::::::::::::::::::
         ::                  THERMODYNAMIC                  ::
         :::::::::::::::::::::::::::::::::::::::::::::::::::::
         :: total free energy         -68.218170834851 Eh   ::
         ::.................................................::
         :: total energy              -68.515275847499 Eh   ::
         :: zero point energy           0.342966859506 Eh   ::
         :: G(RRHO) w/o ZPVE           -0.045861846857 Eh   ::
         :: G(RRHO) contrib.            0.297105012648 Eh   ::
         :::::::::::::::::::::::::::::::::::::::::::::::::::::

           -------------------------------------------------
          | TOTAL ENERGY              -68.515275847499 Eh   |
          | TOTAL ENTHALPY            -68.150218382353 Eh   |
          | TOTAL FREE ENERGY         -68.218170834851 Eh   |
          | GRADIENT NORM               0.000067216607 Eh/α |
          | HOMO-LUMO GAP               0.422812908057 eV   |
           -------------------------------------------------

 * finished run on 2025/08/30 at 23:47:04.150
