   * xtb version 6.7.1 (edcfbbe) compiled by 'albert@albert-system' on 2024-07-22

   ID    Z sym.   atoms
    1    6 C      1-6, 8-20, 22-27
    2    7 N      7, 21
    3    1 H      28-45

          program call               : xtb data2507/toluene/SBA/SBA.xyz --gfn 2 --gbsa toluene --ohess vtight --parallel 40 --molden --ceasefiles --namespace data2507/toluene/SBA/SBA_toluene_S0_preOpt
      * Solvation model:               GBSA
        Solvent                        toluene
        Solvent mass                       9.2140E+01 g/mol
          :  Hamiltonian                  GFN2-xTB          :
 * total energy  :   -68.6161816 Eh     change       -0.8603251E-09 Eh
 * total energy  :   -68.6255859 Eh     change       -0.9404259E-02 Eh
 * total energy  :   -68.6276354 Eh     change       -0.2049543E-02 Eh
 * total energy  :   -68.6277833 Eh     change       -0.1478879E-03 Eh
 * total energy  :   -68.6278511 Eh     change       -0.6781149E-04 Eh
 * total energy  :   -68.6278603 Eh     change       -0.9159454E-05 Eh
 * total energy  :   -68.6278620 Eh     change       -0.1664495E-05 Eh
 * total energy  :   -68.6278621 Eh     change       -0.1418907E-06 Eh
 * total energy  :   -68.6278621 Eh     change       -0.2221967E-07 Eh
   *** GEOMETRY OPTIMIZATION CONVERGED AFTER 9 ITERATIONS ***

 final structure:
================
45
 xtb: 6.7.1 (edcfbbe)
C           -2.33478000025629        2.54651576021661       -2.57136393814179
C           -0.95040766012691        2.58460868588323       -2.61008249741137
C           -0.22027899904052        1.75708144249754       -1.77481619306876
C           -0.84706083328294        0.88731376338377       -0.89635800117538
C           -2.24320336956212        0.85254217083415       -0.86110123720738
C           -2.97796149969767        1.68696565744612       -1.70354078998621
N           -2.89592454575271       -0.00017331530986        0.00020900868584
C           -2.24296747614435       -0.85281696876574        0.86141159774509
C           -2.97749532614047       -1.68734218013146        1.70395126130990
C           -2.33407729571161       -2.54682104472160        2.57166953874588
C           -0.94969445822316       -2.58474019446253        2.61018195223510
C           -0.21979410484816       -1.75711253407801        1.77481576288643
C           -0.84681543051905       -0.88741386715146        0.89646000348124
C            0.00000001061851        0.00000836468485       -0.00000779532024
C            0.84693858495801        0.89649835996533        0.88727395124583
C            0.22003764378865        1.77492667445563        1.75698603418195
C            0.95005271117888        2.61038576373347        2.58441884312404
C            2.33443028014829        2.57189932423496        2.54628157792279
C            2.97772943261347        1.70409401490098        1.68680155386534
C            2.24308588298415        0.86145521334969        0.85247823533858
N            2.89592451892652        0.00016089434420       -0.00016345075871
C            2.24308495839761       -0.86119118069677       -0.85274604953874
C            2.97772730091191       -1.70375330076064       -1.68714786273959
C            2.33442684781826       -2.57161366545481       -2.54657132709590
C            0.95004922510282       -2.61023168655034       -2.58457377536050
C            0.22003541253567       -1.77485023229421       -1.75706154568413
C            0.84693769570533       -0.89637140230031       -0.88740146905994
H           -2.91506393418284        3.18778385838006       -3.21858050762289
H           -0.44199308757306        3.25477626250136       -3.28672118946851
H            0.85985049020034        1.78342624137541       -1.80159024664793
H           -4.05816073119560        1.65211969369403       -1.66826292413105
H           -3.90465660979291       -0.00024037275238        0.00028096921940
H           -4.05770412311432       -1.65263188328681        1.66883415899975
H           -2.91418520889637       -3.18816848412028        3.21896524270537
H           -0.44109420160068       -3.25485047530483        3.28673784785486
H            0.86034236958661       -1.78332367125566        1.80142955819307
H           -0.86009528206909        1.80153534176852        1.78335099726184
H            0.44154574138473        3.28700481022097        3.25453614890033
H            2.91462672605261        3.21928030780256        3.18746287558688
H            4.05793344660675        1.66899335151041        1.65192507251382
H            3.90465659749563        0.00021126659538       -0.00021469811483
H            4.05793135538354       -1.66854985504613       -1.65237675877877
H            2.91462229991188       -3.21893638935373       -3.18781232533751
H            0.44154124662853       -3.28689286581302       -3.25464776363497
H           -0.86009760120789       -1.80156265416862       -1.78331984571824

          :  Hamiltonian                  GFN2-xTB          :
         :: gradient norm              0.000028852754 Eh/a0 ::
         :: HOMO-LUMO gap              3.142821931805 eV    ::
         :: SCC energy               -69.908043898224 Eh    ::
         :: -> dispersion             -0.064513983371 Eh    ::
         :: -> Gsolv                  -0.025706460939 Eh    ::
         :: repulsion energy           1.280181775824 Eh    ::

    * Orbital Energies and Occupations

         #    Occupation            Energy/Eh            Energy/eV
      -------------------------------------------------------------
         1        2.0000           -0.6674316             -18.1617
       ...           ...                  ...                  ...
        52        2.0000           -0.4283694             -11.6565
        53        2.0000           -0.4283691             -11.6565
        54        2.0000           -0.4219554             -11.4820
        55        2.0000           -0.4219548             -11.4820
        56        2.0000           -0.4115547             -11.1990
        57        2.0000           -0.4068369             -11.0706
        58        2.0000           -0.4045991             -11.0097
        59        2.0000           -0.4038539             -10.9894
        60        2.0000           -0.3916445             -10.6572
        61        2.0000           -0.3916438             -10.6572
        62        2.0000           -0.3909478             -10.6382
        63        2.0000           -0.3490846              -9.4991
        64        2.0000           -0.3490838              -9.4991 (HOMO)
        65                         -0.2335873              -6.3562 (LUMO)
        66                         -0.2225595              -6.0562
        67                         -0.2206968              -6.0055
        68                         -0.2206959              -6.0054
        69                         -0.2193141              -5.9678
        70                         -0.2118154              -5.7638
        71                         -0.1889517              -5.1416
        72                         -0.1889508              -5.1416
        73                         -0.0939629              -2.5569
        74                         -0.0884672              -2.4073
        75                         -0.0780621              -2.1242
       ...                                ...                  ...
       126                          0.6831069              18.5883
      -------------------------------------------------------------
                  HL-Gap            0.1154966 Eh            3.1428 eV

     #   Z          covCN         q      C6AA      α(0)
     1   6 C        2.919    -0.033    28.831     8.805
     2   6 C        2.918    -0.046    29.132     8.851
     3   6 C        2.925    -0.036    28.902     8.816
     4   6 C        2.986    -0.011    28.281     8.723
     5   6 C        2.916     0.065    26.548     8.449
     6   6 C        2.924    -0.063    29.569     8.917
     7   7 N        2.703    -0.144    24.117     7.294
     8   6 C        2.916     0.065    26.548     8.449
     9   6 C        2.924    -0.063    29.569     8.917
    10   6 C        2.919    -0.033    28.831     8.805
    11   6 C        2.918    -0.046    29.132     8.851
    12   6 C        2.925    -0.036    28.902     8.816
    13   6 C        2.986    -0.011    28.281     8.723
    14   6 C        3.923     0.016    20.242     6.394
    15   6 C        2.986    -0.011    28.281     8.723
    16   6 C        2.925    -0.036    28.902     8.816
    17   6 C        2.918    -0.046    29.132     8.851
    18   6 C        2.919    -0.033    28.831     8.805
    19   6 C        2.924    -0.063    29.569     8.917
    20   6 C        2.916     0.065    26.548     8.449
    21   7 N        2.703    -0.144    24.117     7.294
    22   6 C        2.916     0.065    26.548     8.449
    23   6 C        2.924    -0.063    29.569     8.917
    24   6 C        2.919    -0.033    28.831     8.805
    25   6 C        2.918    -0.046    29.132     8.851
    26   6 C        2.925    -0.036    28.902     8.816
    27   6 C        2.986    -0.011    28.281     8.723
    28   1 H        0.926     0.031     2.567     2.505
    29   1 H        0.926     0.028     2.620     2.531
    30   1 H        0.926     0.025     2.662     2.551
    31   1 H        0.925     0.027     2.622     2.532
    32   1 H        0.860     0.162     1.320     1.800
    33   1 H        0.925     0.027     2.622     2.532
    34   1 H        0.926     0.031     2.567     2.505
    35   1 H        0.926     0.028     2.620     2.531
    36   1 H        0.926     0.025     2.662     2.551
    37   1 H        0.926     0.025     2.662     2.551
    38   1 H        0.926     0.028     2.620     2.531
    39   1 H        0.926     0.031     2.567     2.505
    40   1 H        0.925     0.027     2.622     2.532
    41   1 H        0.860     0.162     1.320     1.800
    42   1 H        0.925     0.027     2.622     2.532
    43   1 H        0.926     0.031     2.567     2.505
    44   1 H        0.926     0.028     2.620     2.531
    45   1 H        0.926     0.025     2.662     2.551

molecular dipole:
                 x           y           z       tot (Debye)
 q only:        0.000      -0.000       0.000
   full:        0.000      -0.000       0.000       0.000

 projected vibrational frequencies (cm⁻¹)
eigval :       -0.00    -0.00    -0.00    -0.00     0.00     0.00
eigval :       16.45    16.49    46.94    68.12    68.16   107.53
eigval :      126.51   150.10   189.73   189.76   237.04   239.08
eigval :      283.56   283.57   292.58   304.59   374.49   389.39
eigval :      389.40   402.99   431.01   434.82   434.83   454.63
eigval :      454.68   457.97   497.48   507.02   507.04   532.98
eigval :      560.72   560.72   585.81   599.85   599.85   623.95
eigval :      651.67   669.75   680.40   686.01   686.02   700.42
eigval :      771.70   771.70   773.72   780.82   808.61   833.81
eigval :      861.50   861.51   861.59   861.79   879.84   879.85
eigval :      901.43   906.14   906.14   908.54   909.14   920.51
eigval :      920.52   920.97   920.99   929.86   929.87  1096.53
eigval :     1097.50  1097.91  1097.92  1110.48  1123.28  1123.29
eigval :     1153.23  1179.41  1180.25  1180.25  1180.42  1182.11
eigval :     1201.78  1202.38  1202.38  1230.80  1230.81  1261.95
eigval :     1262.18  1268.61  1273.76  1273.76  1275.67  1332.31
eigval :     1332.31  1332.94  1336.53  1377.49  1377.49  1439.33
eigval :     1441.12  1466.14  1466.14  1490.08  1492.56  1492.56
eigval :     1494.31  1578.65  1578.65  1586.52  1590.89  1590.89
eigval :     1592.42  1601.65  1603.57  3061.94  3061.94  3062.04
eigval :     3062.36  3073.70  3073.70  3073.90  3073.93  3077.99
eigval :     3078.10  3078.10  3078.27  3091.87  3091.87  3092.36
eigval :     3093.27  3438.85  3439.04

   temp. (K)  partition function   enthalpy   heat capacity  entropy
                                   cal/mol     cal/K/mol   cal/K/mol   J/K/mol
 298.15  VIB  0.350E+08            11077.006     76.945     65.765
         ROT  0.224E+07              888.752      2.981     32.037
         INT  0.784E+14            11965.758     79.926     97.801
         TR   0.624E+28             1481.254      4.968     43.402
         TOT                       13447.0118    84.8941   141.2033   590.7944

       T/K    H(0)-H(T)+PV         H(T)/Eh          T*S/Eh         G(T)/Eh
   ------------------------------------------------------------------------
    298.15    0.214292E-01    0.371581E+00    0.670902E-01    0.304491E+00
   ------------------------------------------------------------------------

         :::::::::::::::::::::::::::::::::::::::::::::::::::::
         ::                  THERMODYNAMIC                  ::
         :::::::::::::::::::::::::::::::::::::::::::::::::::::
         :: total free energy         -68.323370849567 Eh   ::
         ::.................................................::
         :: total energy              -68.627862122358 Eh   ::
         :: zero point energy           0.350152319263 Eh   ::
         :: G(RRHO) w/o ZPVE           -0.045661046472 Eh   ::
         :: G(RRHO) contrib.            0.304491272791 Eh   ::
         :::::::::::::::::::::::::::::::::::::::::::::::::::::

           -------------------------------------------------
          | TOTAL ENERGY              -68.627862122358 Eh   |
          | TOTAL ENTHALPY            -68.256280625698 Eh   |
          | TOTAL FREE ENERGY         -68.323370849567 Eh   |
          | GRADIENT NORM               0.000028812964 Eh/α |
          | HOMO-LUMO GAP               3.142821929636 eV   |
           -------------------------------------------------

 * finished run on 2025/08/30 at 23:43:47.070
