   * xtb version 6.7.1 (edcfbbe) compiled by 'albert@albert-system' on 2024-07-22

   ID    Z sym.   atoms
    1    6 C      1-6, 8-20, 22-27
    2    7 N      7, 21
    3    1 H      28-45

          program call               : xtb data2507/toluene/SBA/SBA_toluene_S0_crest.xyz --gfn 2 --gbsa toluene --ohess vtight --parallel 40 --molden --ceasefiles --namespace data2507/toluene/SBA/SBA_toluene_S0_finalOpt
      * Solvation model:               GBSA
        Solvent                        toluene
        Solvent mass                       9.2140E+01 g/mol
          :  Hamiltonian                  GFN2-xTB          :
 * total energy  :   -68.6278375 Eh     change       -0.6105410E-09 Eh
 * total energy  :   -68.6278510 Eh     change       -0.1344822E-04 Eh
 * total energy  :   -68.6278538 Eh     change       -0.2872738E-05 Eh
 * total energy  :   -68.6278549 Eh     change       -0.1094733E-05 Eh
 * total energy  :   -68.6278558 Eh     change       -0.8663424E-06 Eh
 * total energy  :   -68.6278564 Eh     change       -0.5568677E-06 Eh
 * total energy  :   -68.6278570 Eh     change       -0.6594269E-06 Eh
 * total energy  :   -68.6278580 Eh     change       -0.9919064E-06 Eh
 * total energy  :   -68.6278588 Eh     change       -0.8328447E-06 Eh
 * total energy  :   -68.6278593 Eh     change       -0.5005405E-06 Eh
 * total energy  :   -68.6278605 Eh     change       -0.2492135E-06 Eh
 * total energy  :   -68.6278607 Eh     change       -0.1921717E-06 Eh
 * total energy  :   -68.6278609 Eh     change       -0.2178493E-06 Eh
 * total energy  :   -68.6278613 Eh     change       -0.3106614E-06 Eh
 * total energy  :   -68.6278616 Eh     change       -0.2963505E-06 Eh
 * total energy  :   -68.6278618 Eh     change       -0.2939985E-06 Eh
 * total energy  :   -68.6278621 Eh     change       -0.3022389E-06 Eh
 * total energy  :   -68.6278624 Eh     change       -0.2865925E-06 Eh
 * total energy  :   -68.6278624 Eh     change       -0.4135813E-08 Eh
   *** GEOMETRY OPTIMIZATION CONVERGED AFTER 22 ITERATIONS ***

 final structure:
================
45
 xtb: 6.7.1 (edcfbbe)
C           -2.28148425487301        2.58120019810543       -2.58866215838953
C           -0.89653924478509        2.61535353345125       -2.60265395145391
C           -0.18363702792893        1.77771609642170       -1.76256168173692
C           -0.82831168941430        0.90166287470421       -0.90348596241464
C           -2.22500152342939        0.87140957172218       -0.89263824895052
C           -2.94234766135348        1.71595939585287       -1.73998228506963
N           -2.89539448494747        0.01287583534093       -0.05087174006717
C           -2.26037047618871       -0.84615519262934        0.81737545165692
C           -3.01206126812723       -1.68093134197750        1.64437674739695
C           -2.38651097191471       -2.54707595429975        2.51852628850239
C           -1.00312319731715       -2.59179954205910        2.57883452809584
C           -0.25621335999446       -1.76385616519402        1.75899033881755
C           -0.86516928341237       -0.88702623290868        0.87504534556948
C            0.00009467995423        0.00202097007839       -0.00216808815778
C            0.83954658310673        0.88465472279892        0.90584754333070
C            0.20557352526000        1.76654121391866        1.76689028788328
C            0.92843174582115        2.58764602834976        2.61472446449239
C            2.31265292230519        2.53035614067805        2.60680377312407
C            2.96294202084404        1.65898940872229        1.75621519612124
C            2.23552580670940        0.83093946228559        0.90120194342089
N            2.89514453335145       -0.03456249733569        0.05806653118035
C            2.24968040200022       -0.87740445221466       -0.81834550013687
C            2.99107791286589       -1.72077678744909       -1.64592853685399
C            2.35520230514250       -2.57105497941832       -2.52816538464953
C            0.97161568221032       -2.59019359143945       -2.59694576538476
C            0.23487918982304       -1.75384811078288       -1.77638269392017
C            0.85426300771700       -0.89347086021459       -0.88354850485640
H           -2.84849690545802        3.23009607805596       -3.24003690899279
H           -0.37427547833400        3.29017256767468       -3.26395969370503
H            0.89688617068240        1.80079829821475       -1.77032445929037
H           -4.02310021912527        1.68435542827949       -1.72381077186052
H           -3.90399358069465        0.01865554570503       -0.06595505063421
H           -4.09140102269429       -1.64099205164995        1.59229126086382
H           -2.97979954955460       -3.18819653742009        3.15398292909756
H           -0.50842476564617       -3.26730769458132        3.26031463016096
H            0.82320303614784       -1.79511972787224        1.80277292578457
H           -0.87444021236736        1.80739109740154        1.77005651165465
H            0.41441876574694        3.26709989082188        3.27774696818971
H            2.88732975173242        3.16604208385590        3.26445055483983
H            4.04307930156509        1.60937907835478        1.74485365138201
H            3.90360739456802       -0.04638462460426        0.07809352320371
H            4.07064117962985       -1.70059296139002       -1.58736719140851
H            2.94060259602899       -3.21964653287766       -3.16337076149610
H            0.46887145564818       -3.25293319399006       -3.28505778780319
H           -0.84467186150025       -1.76567339938606       -1.82634606383613

          :  Hamiltonian                  GFN2-xTB          :
         :: gradient norm              0.000049131544 Eh/a0 ::
         :: HOMO-LUMO gap              3.142775221203 eV    ::
         :: SCC energy               -69.908019972940 Eh    ::
         :: -> dispersion             -0.064514246003 Eh    ::
         :: -> Gsolv                  -0.025707901223 Eh    ::
         :: repulsion energy           1.280157535666 Eh    ::

    * Orbital Energies and Occupations

         #    Occupation            Energy/Eh            Energy/eV
      -------------------------------------------------------------
         1        2.0000           -0.6674277             -18.1616
       ...           ...                  ...                  ...
        52        2.0000           -0.4283722             -11.6566
        53        2.0000           -0.4283679             -11.6565
        54        2.0000           -0.4219590             -11.4821
        55        2.0000           -0.4219508             -11.4819
        56        2.0000           -0.4115511             -11.1989
        57        2.0000           -0.4068361             -11.0706
        58        2.0000           -0.4045997             -11.0097
        59        2.0000           -0.4038543             -10.9894
        60        2.0000           -0.3916461             -10.6572
        61        2.0000           -0.3916392             -10.6570
        62        2.0000           -0.3909461             -10.6382
        63        2.0000           -0.3490920              -9.4993
        64        2.0000           -0.3490814              -9.4990 (HOMO)
        65                         -0.2335866              -6.3562 (LUMO)
        66                         -0.2225605              -6.0562
        67                         -0.2207030              -6.0056
        68                         -0.2206915              -6.0053
        69                         -0.2193155              -5.9679
        70                         -0.2118152              -5.7638
        71                         -0.1889602              -5.1419
        72                         -0.1889481              -5.1415
        73                         -0.0939647              -2.5569
        74                         -0.0884696              -2.4074
        75                         -0.0780837              -2.1248
       ...                                ...                  ...
       126                          0.6831059              18.5883
      -------------------------------------------------------------
                  HL-Gap            0.1154949 Eh            3.1428 eV

     #   Z          covCN         q      C6AA      α(0)
     1   6 C        2.919    -0.033    28.831     8.805
     2   6 C        2.918    -0.046    29.132     8.851
     3   6 C        2.925    -0.036    28.901     8.816
     4   6 C        2.986    -0.011    28.281     8.723
     5   6 C        2.916     0.065    26.548     8.449
     6   6 C        2.924    -0.063    29.569     8.917
     7   7 N        2.703    -0.144    24.117     7.294
     8   6 C        2.916     0.065    26.548     8.449
     9   6 C        2.924    -0.063    29.569     8.917
    10   6 C        2.919    -0.033    28.831     8.805
    11   6 C        2.918    -0.046    29.133     8.851
    12   6 C        2.925    -0.036    28.904     8.817
    13   6 C        2.986    -0.011    28.282     8.724
    14   6 C        3.923     0.016    20.242     6.394
    15   6 C        2.986    -0.011    28.281     8.723
    16   6 C        2.925    -0.036    28.902     8.816
    17   6 C        2.918    -0.046    29.132     8.851
    18   6 C        2.919    -0.033    28.831     8.805
    19   6 C        2.924    -0.063    29.569     8.917
    20   6 C        2.916     0.065    26.548     8.449
    21   7 N        2.703    -0.144    24.117     7.294
    22   6 C        2.916     0.065    26.548     8.449
    23   6 C        2.924    -0.063    29.569     8.917
    24   6 C        2.919    -0.033    28.831     8.805
    25   6 C        2.918    -0.046    29.132     8.851
    26   6 C        2.925    -0.036    28.903     8.816
    27   6 C        2.986    -0.011    28.282     8.724
    28   1 H        0.926     0.031     2.567     2.505
    29   1 H        0.926     0.028     2.620     2.531
    30   1 H        0.926     0.025     2.663     2.552
    31   1 H        0.925     0.027     2.623     2.532
    32   1 H        0.860     0.162     1.320     1.800
    33   1 H        0.925     0.027     2.622     2.532
    34   1 H        0.926     0.031     2.567     2.505
    35   1 H        0.926     0.028     2.620     2.531
    36   1 H        0.926     0.025     2.661     2.551
    37   1 H        0.926     0.025     2.663     2.552
    38   1 H        0.926     0.028     2.620     2.531
    39   1 H        0.926     0.031     2.567     2.505
    40   1 H        0.925     0.027     2.622     2.532
    41   1 H        0.860     0.162     1.320     1.800
    42   1 H        0.925     0.027     2.622     2.532
    43   1 H        0.926     0.031     2.567     2.505
    44   1 H        0.926     0.028     2.620     2.531
    45   1 H        0.926     0.025     2.661     2.551

molecular dipole:
                 x           y           z       tot (Debye)
 q only:       -0.000      -0.005       0.002
   full:       -0.000      -0.004       0.003       0.013

 projected vibrational frequencies (cm⁻¹)
eigval :       -0.00    -0.00    -0.00     0.00     0.00     0.00
eigval :       15.58    18.14    46.51    67.70    67.74   107.11
eigval :      126.44   149.89   189.57   189.64   236.80   239.12
eigval :      283.45   283.57   292.61   304.48   374.45   389.19
eigval :      389.30   402.89   430.62   434.45   434.63   453.25
eigval :      454.07   457.36   497.59   506.60   506.77   533.22
eigval :      560.54   560.64   585.73   599.84   599.86   623.81
eigval :      651.64   669.76   680.43   685.96   686.03   700.34
eigval :      770.67   770.79   772.75   779.92   808.47   833.74
eigval :      859.95   860.23   860.46   860.64   879.67   879.82
eigval :      901.42   904.77   905.21   907.29   907.94   919.82
eigval :      919.84   920.35   920.44   929.66   929.74  1096.20
eigval :     1097.17  1097.65  1097.87  1110.33  1122.97  1123.09
eigval :     1153.01  1178.74  1179.46  1179.82  1180.24  1182.11
eigval :     1201.75  1202.09  1202.18  1230.45  1230.69  1261.68
eigval :     1261.94  1268.47  1273.50  1273.72  1275.57  1332.28
eigval :     1332.30  1332.95  1336.53  1377.10  1377.19  1439.20
eigval :     1441.00  1466.03  1466.08  1490.03  1492.46  1492.47
eigval :     1494.28  1578.59  1578.60  1586.50  1590.87  1590.90
eigval :     1592.38  1601.64  1603.57  3061.87  3061.95  3062.05
eigval :     3062.37  3072.84  3073.52  3073.58  3073.80  3077.82
eigval :     3078.04  3078.12  3078.29  3091.58  3091.75  3092.18
eigval :     3093.10  3438.79  3439.00

   temp. (K)  partition function   enthalpy   heat capacity  entropy
                                   cal/mol     cal/K/mol   cal/K/mol   J/K/mol
 298.15  VIB  0.347E+08            11084.333     76.972     65.787
         ROT  0.224E+07              888.752      2.981     32.037
         INT  0.776E+14            11973.085     79.953     97.824
         TR   0.624E+28             1481.254      4.968     43.402
         TOT                       13454.3391    84.9213   141.2256   590.8881

       T/K    H(0)-H(T)+PV         H(T)/Eh          T*S/Eh         G(T)/Eh
   ------------------------------------------------------------------------
    298.15    0.214409E-01    0.371516E+00    0.671009E-01    0.304415E+00
   ------------------------------------------------------------------------

         :::::::::::::::::::::::::::::::::::::::::::::::::::::
         ::                  THERMODYNAMIC                  ::
         :::::::::::::::::::::::::::::::::::::::::::::::::::::
         :: total free energy         -68.323447291596 Eh   ::
         ::.................................................::
         :: total energy              -68.627862437308 Eh   ::
         :: zero point energy           0.350075154598 Eh   ::
         :: G(RRHO) w/o ZPVE           -0.045660008885 Eh   ::
         :: G(RRHO) contrib.            0.304415145713 Eh   ::
         :::::::::::::::::::::::::::::::::::::::::::::::::::::

           -------------------------------------------------
          | TOTAL ENERGY              -68.627862437308 Eh   |
          | TOTAL ENTHALPY            -68.256346428644 Eh   |
          | TOTAL FREE ENERGY         -68.323447291596 Eh   |
          | GRADIENT NORM               0.000049123133 Eh/α |
          | HOMO-LUMO GAP               3.142775168245 eV   |
           -------------------------------------------------

 * finished run on 2025/08/30 at 23:45:11.895
