   * xtb version 6.7.1 (edcfbbe) compiled by 'albert@albert-system' on 2024-07-22

   ID    Z sym.   atoms
    1    6 C      1-6, 8-20, 22-27
    2    7 N      7, 21
    3    1 H      28-45

          program call               : xtb data2507/toluene/SBA/SBA_toluene_S0_finalOpt.xtbopt.xyz --gfn 2 --uhf 2 --gbsa toluene --ohess vtight --parallel 40 --molden --ceasefiles --namespace data2507/toluene/SBA/SBA_toluene_T1_preOpt
      * Solvation model:               GBSA
        Solvent                        toluene
        Solvent mass                       9.2140E+01 g/mol
          :  Hamiltonian                  GFN2-xTB          :
 * total energy  :   -68.5106986 Eh     change       -0.5763894E-08 Eh
 * total energy  :   -68.5146706 Eh     change       -0.3971955E-02 Eh
 * total energy  :   -68.5152392 Eh     change       -0.5686430E-03 Eh
 * total energy  :   -68.5152698 Eh     change       -0.3055869E-04 Eh
 * total energy  :   -68.5152765 Eh     change       -0.6758691E-05 Eh
 * total energy  :   -68.5152779 Eh     change       -0.1344357E-05 Eh
 * total energy  :   -68.5152781 Eh     change       -0.1885398E-06 Eh
 * total energy  :   -68.5152781 Eh     change       -0.8702528E-08 Eh
 * total energy  :   -68.5152782 Eh     change       -0.7678297E-07 Eh
   *** GEOMETRY OPTIMIZATION CONVERGED AFTER 9 ITERATIONS ***

 final structure:
================
45
 xtb: 6.7.1 (edcfbbe)
C           -2.29990471162100        2.57878418618522       -2.58784401448044
C           -0.89354145624256        2.61402781363171       -2.60386022730308
C           -0.17406630735532        1.78165179815813       -1.76802866465442
C           -0.80644777905620        0.90315479030534       -0.90390172608128
C           -2.22790977518649        0.87064377386640       -0.89004527547911
C           -2.95217670177629        1.71896901512008       -1.74240707564555
N           -2.88165517798439        0.01536182541897       -0.04830700968510
C           -2.26310008677566       -0.84369978382761        0.81594062868211
C           -3.02180099557743       -1.68422983375811        1.64538919981665
C           -2.40490126265284       -2.54701148117935        2.51414573539220
C           -0.99996461536261       -2.59292943528201        2.57706967225405
C           -0.24666672628034       -1.76891580625183        1.76354665245537
C           -0.84292791698365       -0.88731689544387        0.87679941146716
C            0.00008520959773        0.00312725688983       -0.00160287786170
C            0.81776109594979        0.88665533351489        0.90704349419065
C            0.19653551682772        1.77179685378334        1.77261265682616
C            0.92623765937550        2.58810835207039        2.61522057787723
C            2.33190965387400        2.52869083134152        2.60563449014895
C            2.97324620762221        1.66166483556800        1.75915273703900
C            2.23858338949044        0.82994221472378        0.89948502845085
N            2.88142708201818       -0.03217437879192        0.05627865328111
C            2.25223098415001       -0.87489921812031       -0.81633237988663
C            3.00032489410208       -1.72324878716353       -1.64758266623927
C            2.37276802697325       -2.56954897035280       -2.52484378550216
C            0.96766586959395       -2.59020412053151       -2.59526739577638
C            0.22477112348978       -1.75860784251580       -1.77970911185972
C            0.83191289777041       -0.89359948139186       -0.88418818148996
H           -2.86038276570222        3.22957892345337       -3.24171270617459
H           -0.38059913469158        3.29110055224892       -3.26914866034622
H            0.90643410370800        1.81111570360709       -1.78318964813919
H           -4.03305447446586        1.68169900448302       -1.71983077439845
H           -3.89355865331020        0.01941185293999       -0.06507609720582
H           -4.10101955991406       -1.63860672612563        1.58678257218451
H           -2.99173752335200       -3.19164095244576        3.15071626313628
H           -0.51482876764969       -3.27203642778869        3.26088965427262
H            0.83243869512298       -1.80707745821469        1.81468974777698
H           -0.88335696110737        1.81963931328597        1.78310526355500
H            0.42190622551439        3.27090455971116        3.28125001755602
H            2.90033936717343        3.16680496823020        3.26509370656109
H            4.05342081190535        1.60582475165657        1.74150749383112
H            3.89316408505678       -0.04555845197489        0.07761195421925
H            4.07985991239319       -1.69702095874484       -1.58328873502609
H            2.95148958475303       -3.22032932689173       -3.16260316202065
H            0.47416771944576       -3.25611240734187       -3.28605560666198
H           -0.85457685623138       -1.77757662915765       -1.83624758576718

          :  Hamiltonian                  GFN2-xTB          :
         :: gradient norm              0.000078231577 Eh/a0 ::
         :: HOMO-LUMO gap              0.422803401319 eV    ::
         :: SCC energy               -69.772652945907 Eh    ::
         :: -> dispersion             -0.064446153549 Eh    ::
         :: -> Gsolv                  -0.026085628965 Eh    ::
         :: repulsion energy           1.257374782233 Eh    ::

    * Orbital Energies and Occupations

         #    Occupation            Energy/Eh            Energy/eV
      -------------------------------------------------------------
         1        2.0000           -0.6716967             -18.2778
       ...           ...                  ...                  ...
        53        2.0000           -0.4266010             -11.6084
        54        2.0000           -0.4228503             -11.5063
        55        2.0000           -0.4228498             -11.5063
        56        2.0000           -0.4117770             -11.2050
        57        2.0000           -0.4043853             -11.0039
        58        2.0000           -0.4019143             -10.9366
        59        2.0000           -0.3998203             -10.8797
        60        2.0000           -0.3925820             -10.6827
        61        2.0000           -0.3925638             -10.6822
        62        2.0000           -0.3886242             -10.5750
        63        1.5020           -0.3495739              -9.5124
        64        1.4980           -0.3495587              -9.5120
        65        0.9997           -0.2380051              -6.4764 (HOMO)
        66        0.0003           -0.2224673              -6.0536 (LUMO)
        67        0.0000           -0.2179854              -5.9317
        68        0.0000           -0.2179770              -5.9315
        69        0.0000           -0.2167116              -5.8970
        70                         -0.2117581              -5.7622
        71                         -0.1910205              -5.1979
        72                         -0.1910109              -5.1977
        73                         -0.0967718              -2.6333
        74                         -0.0907347              -2.4690
        75                         -0.0804356              -2.1888
        76                         -0.0804199              -2.1883
       ...                                ...                  ...
       126                          0.6726628              18.3041
      -------------------------------------------------------------
                  HL-Gap            0.0155377 Eh            0.4228 eV

     #   Z          covCN         q      C6AA      α(0)
     1   6 C        2.915    -0.042    29.046     8.838
     2   6 C        2.916    -0.049    29.212     8.863
     3   6 C        2.917    -0.035    28.869     8.811
     4   6 C        2.989    -0.010    28.262     8.721
     5   6 C        2.913     0.045    26.993     8.520
     6   6 C        2.917    -0.056    29.387     8.890
     7   7 N        2.701    -0.096    23.118     7.141
     8   6 C        2.913     0.045    26.995     8.520
     9   6 C        2.917    -0.056    29.385     8.889
    10   6 C        2.915    -0.042    29.054     8.839
    11   6 C        2.916    -0.049    29.211     8.863
    12   6 C        2.917    -0.035    28.872     8.811
    13   6 C        2.989    -0.010    28.267     8.721
    14   6 C        3.925     0.022    20.138     6.378
    15   6 C        2.989    -0.010    28.263     8.721
    16   6 C        2.917    -0.035    28.870     8.811
    17   6 C        2.916    -0.049    29.212     8.863
    18   6 C        2.915    -0.042    29.049     8.838
    19   6 C        2.917    -0.056    29.387     8.889
    20   6 C        2.913     0.045    26.994     8.520
    21   7 N        2.701    -0.096    23.118     7.141
    22   6 C        2.913     0.045    26.994     8.520
    23   6 C        2.917    -0.056    29.386     8.889
    24   6 C        2.915    -0.042    29.051     8.838
    25   6 C        2.916    -0.049    29.211     8.863
    26   6 C        2.917    -0.035    28.871     8.811
    27   6 C        2.989    -0.010    28.265     8.721
    28   1 H        0.926     0.028     2.619     2.531
    29   1 H        0.926     0.025     2.658     2.549
    30   1 H        0.926     0.024     2.676     2.558
    31   1 H        0.925     0.027     2.626     2.534
    32   1 H        0.860     0.172     1.261     1.759
    33   1 H        0.925     0.027     2.627     2.534
    34   1 H        0.926     0.028     2.621     2.532
    35   1 H        0.926     0.025     2.659     2.550
    36   1 H        0.926     0.024     2.676     2.558
    37   1 H        0.926     0.024     2.676     2.558
    38   1 H        0.926     0.025     2.658     2.550
    39   1 H        0.926     0.028     2.620     2.531
    40   1 H        0.925     0.027     2.626     2.534
    41   1 H        0.860     0.172     1.261     1.759
    42   1 H        0.925     0.027     2.626     2.534
    43   1 H        0.926     0.028     2.620     2.531
    44   1 H        0.926     0.025     2.658     2.550
    45   1 H        0.926     0.024     2.676     2.558

molecular dipole:
                 x           y           z       tot (Debye)
 q only:       -0.000      -0.002       0.001
   full:       -0.000      -0.004       0.002       0.010

 projected vibrational frequencies (cm⁻¹)
eigval :       -0.00    -0.00    -0.00     0.00     0.00     0.00
eigval :       25.09    26.55    39.12    74.17    74.29    97.08
eigval :      111.30   147.56   185.46   185.70   229.98   231.28
eigval :      253.00   293.47   293.66   298.89   374.15   376.55
eigval :      376.72   398.09   401.16   404.71   404.75   405.74
eigval :      447.57   453.66   462.31   462.34   536.86   537.02
eigval :      548.50   568.36   570.14   586.45   586.49   616.33
eigval :      626.25   628.33   651.28   651.41   651.63   669.39
eigval :      734.18   737.49   740.64   740.75   741.84   822.34
eigval :      822.42   834.26   836.15   836.23   859.43   861.64
eigval :      861.69   880.22   880.30   885.73   886.12   887.83
eigval :      888.13   897.45   897.83   901.53   901.66   962.13
eigval :     1055.53  1055.55  1064.94  1102.98  1112.03  1119.56
eigval :     1119.62  1142.92  1163.75  1163.87  1173.41  1174.21
eigval :     1178.61  1178.66  1181.25  1224.79  1227.92  1228.07
eigval :     1250.83  1255.73  1267.38  1267.52  1272.25  1335.68
eigval :     1335.79  1341.70  1365.41  1366.52  1366.54  1369.84
eigval :     1381.98  1384.14  1398.63  1398.82  1437.87  1454.41
eigval :     1459.23  1459.26  1464.54  1464.82  1478.74  1478.86
eigval :     1508.52  1508.57  1563.82  3055.64  3055.78  3055.90
eigval :     3056.39  3071.05  3071.20  3071.32  3071.92  3082.33
eigval :     3082.44  3082.78  3082.90  3094.51  3095.19  3095.38
eigval :     3097.40  3387.98  3392.27

   temp. (K)  partition function   enthalpy   heat capacity  entropy
                                   cal/mol     cal/K/mol   cal/K/mol   J/K/mol
 298.15  VIB  0.275E+08            11483.921     79.880     67.491
         ROT  0.224E+07              888.752      2.981     32.041
         INT  0.616E+14            12372.674     82.861     99.532
         TR   0.624E+28             1481.254      4.968     43.402
         TOT                       13853.9276    87.8287   142.9341   598.0364

       T/K    H(0)-H(T)+PV         H(T)/Eh          T*S/Eh         G(T)/Eh
   ------------------------------------------------------------------------
    298.15    0.220776E-01    0.365097E+00    0.679126E-01    0.297185E+00
   ------------------------------------------------------------------------

         :::::::::::::::::::::::::::::::::::::::::::::::::::::
         ::                  THERMODYNAMIC                  ::
         :::::::::::::::::::::::::::::::::::::::::::::::::::::
         :: total free energy         -68.218093579723 Eh   ::
         ::.................................................::
         :: total energy              -68.515278163430 Eh   ::
         :: zero point energy           0.343019566177 Eh   ::
         :: G(RRHO) w/o ZPVE           -0.045834982470 Eh   ::
         :: G(RRHO) contrib.            0.297184583707 Eh   ::
         :::::::::::::::::::::::::::::::::::::::::::::::::::::

           -------------------------------------------------
          | TOTAL ENERGY              -68.515278163430 Eh   |
          | TOTAL ENTHALPY            -68.150180958338 Eh   |
          | TOTAL FREE ENERGY         -68.218093579723 Eh   |
          | GRADIENT NORM               0.000079040305 Eh/α |
          | HOMO-LUMO GAP               0.422803495586 eV   |
           -------------------------------------------------

 * finished run on 2025/08/30 at 23:45:13.463
