   * xtb version 6.7.1 (edcfbbe) compiled by 'albert@albert-system' on 2024-07-22

   ID    Z sym.   atoms
    1    7 N      1
    2    6 C      2-47
    3    1 H      48-76

          program call               : xtb data2507/toluene/DPF-AnCN/DPF-AnCN_toluene_S0_finalOpt.xtbopt.xyz --gfn 2 --uhf 2 --gbsa toluene --ohess vtight --parallel 40 --molden --ceasefiles --namespace data2507/toluene/DPF-AnCN/DPF-AnCN_toluene_T1_preOpt
      * Solvation model:               GBSA
        Solvent                        toluene
        Solvent mass                       9.2140E+01 g/mol
          :  Hamiltonian                  GFN2-xTB          :
 * total energy  :  -116.1528848 Eh     change       -0.2373156E-08 Eh
 * total energy  :  -116.1585041 Eh     change       -0.5619237E-02 Eh
 * total energy  :  -116.1599462 Eh     change       -0.1442129E-02 Eh
 * total energy  :  -116.1601573 Eh     change       -0.2110665E-03 Eh
 * total energy  :  -116.1604767 Eh     change       -0.3194129E-03 Eh
 * total energy  :  -116.1606633 Eh     change       -0.1866474E-03 Eh
 * total energy  :  -116.1608982 Eh     change       -0.2348450E-03 Eh
 * total energy  :  -116.1611384 Eh     change       -0.2401885E-03 Eh
 * total energy  :  -116.1613836 Eh     change       -0.2452133E-03 Eh
 * total energy  :  -116.1615316 Eh     change       -0.1479790E-03 Eh
 * total energy  :  -116.1623593 Eh     change       -0.1809459E-06 Eh
 * total energy  :  -116.1623595 Eh     change       -0.1834793E-06 Eh
 * total energy  :  -116.1623597 Eh     change       -0.2175010E-06 Eh
 * total energy  :  -116.1623600 Eh     change       -0.2602356E-06 Eh
 * total energy  :  -116.1623601 Eh     change       -0.1879091E-06 Eh
 * total energy  :  -116.1623603 Eh     change       -0.1409395E-06 Eh
 * total energy  :  -116.1623604 Eh     change       -0.1531010E-06 Eh
 * total energy  :  -116.1623607 Eh     change       -0.2130774E-06 Eh
 * total energy  :  -116.1623607 Eh     change       -0.1105604E-08 Eh
   *** GEOMETRY OPTIMIZATION CONVERGED AFTER 68 ITERATIONS ***

 final structure:
================
76
 xtb: 6.7.1 (edcfbbe)
N           10.55340851466522       -0.72785727795860        0.92412707423657
C            9.42835106460238       -0.57465071553545        0.73458620897454
C            8.05539986810763       -0.38637638707395        0.50502157929375
C            7.42552919173520       -1.01245450671338       -0.57987194017431
C            6.08053922847557       -0.82977801163216       -0.79473999626359
C            5.31468795670672       -0.00108458874734        0.04298683355638
C            3.89829743338185        0.20429330994851       -0.20056073673453
C            3.37507676301177        1.53292634861840       -0.29628859003508
C            4.20584679408307        2.65777605136241       -0.25828900234516
C            3.68609256219958        3.94837033624622       -0.25797440493193
C            2.31888637791350        4.13557781670576       -0.28670466780351
C            1.47300180387549        3.03680781520024       -0.39476659509611
C            1.97266799807048        1.73175245118749       -0.47118741566031
C            1.11415657345968        0.61023341112758       -0.68715761913183
C           -0.30214375610798        0.81672636882270       -0.94786366034122
C           -0.72226098301937        1.67441360763811       -1.97681693109041
C           -2.05961151720704        1.86507069544773       -2.25779226081770
C           -3.01014350908699        1.20852325569093       -1.48634094513341
C           -2.60265190997371        0.36294976125459       -0.43950414961215
C           -1.27202001791722        0.15238710497470       -0.17843637964616
C           -3.80632627221831       -0.24516037687483        0.25630722531382
C           -3.69180581841925       -1.75248278504600        0.13265625911652
C           -4.23708919504460       -2.42314315653480       -0.95467204970870
C           -4.07263686146039       -3.79094618584642       -1.09156967900010
C           -3.35345019089225       -4.50525799380862       -0.14883369146547
C           -2.79490871321865       -3.84144791284225        0.93072352633025
C           -2.95907286400241       -2.47491624056900        1.06832565185270
C           -3.97139283544488        0.21294365907224        1.69366259394282
C           -4.79439110533354       -0.49910377207324        2.55957078220933
C           -5.00481197655152       -0.05813404871361        3.85352071230621
C           -4.39911261560891        1.10426786844535        4.30064757065077
C           -3.58602532319229        1.82347133012440        3.44210931735501
C           -3.37700964068445        1.38379721415246        2.14615694501356
C           -4.94742315976945        0.35213799889932       -0.54671935483581
C           -6.30380744781031        0.16917568696890       -0.38528626811109
C           -7.17433022024189        0.84379629107084       -1.23212955692470
C           -6.69272286744939        1.69207194245925       -2.21914951974610
C           -5.33158320064836        1.88523802154369       -2.38465673465160
C           -4.45725244956100        1.21153802622990       -1.54385082721981
C            1.64707234358791       -0.71558511017228       -0.65381427577535
C            0.86120554646653       -1.83402753211355       -0.95414171177415
C            1.35808015544131       -3.12728540838497       -0.83122821116050
C            2.65234171153527       -3.32677192935518       -0.39488141640491
C            3.47703956604064       -2.23153410738339       -0.15833091120043
C            3.02531278724229       -0.92060830333735       -0.34423805980707
C            5.96210656503827        0.62570719580337        1.12159506453778
C            7.30167773140499        0.43165824297464        1.35852340483797
H            8.00866261618632       -1.63319209339299       -1.24504771425640
H            5.60756161509843       -1.29394749939068       -1.64770567493161
H            5.27683866350485        2.52800406268752       -0.23633848789158
H            4.35691400532707        4.79367048333913       -0.22097404275061
H            1.89997596832122        5.12996351050750       -0.24281822354603
H            0.40626338789225        3.19744200211302       -0.41663177576568
H            0.02744029465521        2.15650459870365       -2.58765445909340
H           -2.35976240201045        2.50908537149897       -3.07103416886348
H           -0.96031987484856       -0.48357122546586        0.63661250588843
H           -4.79659604956192       -1.87458270975143       -1.69868826181268
H           -4.50843990644372       -4.29898421882542       -1.93997798720826
H           -3.22660590191144       -5.57286909997057       -0.25559448080241
H           -2.22584154933269       -4.38879142901934        1.66852519859321
H           -2.52284278789058       -1.96690692718533        1.91638201885675
H           -5.26531035730121       -1.41130447188160        2.22227752471991
H           -5.64486615119214       -0.62447546969078        4.51494416381453
H           -4.56223626904130        1.44827921480783        5.31165931695771
H           -3.11204517131512        2.73376872623568        3.78046367125701
H           -2.74486020562178        1.95718246001189        1.48386818617488
H           -6.68808566515540       -0.48806624192361        0.38038647682936
H           -8.23992795652535        0.70656576283791       -1.11921691353866
H           -7.38920620384055        2.20720533261540       -2.86501618386836
H           -4.95884903719615        2.54610302904704       -3.15312899275101
H           -0.15310443940301       -1.69569040776139       -1.29513973399173
H            0.71991522178459       -3.96682989590590       -1.06313946739292
H            3.03691450704968       -4.32535278812079       -0.25001181635015
H            4.48726714546047       -2.40326410641868        0.17993029765818
H            5.38257393045532        1.23680417890652        1.79796754947465
H            7.78420510626174        0.90198373067241        2.20340971571328

          :  Hamiltonian                  GFN2-xTB          :
         :: gradient norm              0.000026770688 Eh/a0 ::
         :: HOMO-LUMO gap              0.830993625508 eV    ::
         :: SCC energy              -118.443419494535 Eh    ::
         :: -> dispersion             -0.114014546062 Eh    ::
         :: -> Gsolv                  -0.050365134877 Eh    ::
         :: repulsion energy           2.281058842511 Eh    ::

    * Orbital Energies and Occupations

         #    Occupation            Energy/Eh            Energy/eV
      -------------------------------------------------------------
         1        2.0000           -0.6634372             -18.0530
       ...           ...                  ...                  ...
        98        2.0000           -0.4136607             -11.2563
        99        2.0000           -0.4115534             -11.1989
       100        2.0000           -0.4063483             -11.0573
       101        2.0000           -0.4061498             -11.0519
       102        2.0000           -0.4061180             -11.0510
       103        2.0000           -0.4045640             -11.0087
       104        2.0000           -0.4036058             -10.9827
       105        2.0000           -0.3985268             -10.8445
       106        2.0000           -0.3974043             -10.8139
       107        2.0000           -0.3913363             -10.6488
       108        2.0000           -0.3822904             -10.4027
       109        1.0000           -0.3556172              -9.6768
       110        1.0000           -0.2971250              -8.0852 (HOMO)
       111        0.0000           -0.2665866              -7.2542 (LUMO)
       112                         -0.2557186              -6.9585
       113                         -0.2357932              -6.4163
       114                         -0.2333544              -6.3499
       115                         -0.2312960              -6.2939
       116                         -0.2308229              -6.2810
       117                         -0.2276789              -6.1955
       118                         -0.2254173              -6.1339
       119                         -0.2216867              -6.0324
       120                         -0.2192091              -5.9650
       121                         -0.2170704              -5.9068
       ...                                ...                  ...
       217                          1.1613702              31.6025
      -------------------------------------------------------------
                  HL-Gap            0.0305385 Eh            0.8310 eV

     #   Z          covCN         q      C6AA      α(0)
     1   7 N        0.911    -0.298    27.672     7.608
     2   6 C        1.911     0.113    28.312     8.593
     3   6 C        2.972     0.005    27.901     8.664
     4   6 C        2.921    -0.023    28.570     8.765
     5   6 C        2.921    -0.030    28.755     8.794
     6   6 C        2.972     0.020    27.557     8.611
     7   6 C        2.972    -0.005    28.138     8.701
     8   6 C        2.977     0.009    27.811     8.650
     9   6 C        2.921    -0.035    28.868     8.811
    10   6 C        2.914    -0.031    28.768     8.795
    11   6 C        2.914    -0.028    28.710     8.786
    12   6 C        2.921    -0.035    28.883     8.813
    13   6 C        2.977     0.010    27.778     8.645
    14   6 C        2.973    -0.008    28.204     8.711
    15   6 C        2.975     0.014    27.697     8.633
    16   6 C        2.924    -0.035    28.867     8.811
    17   6 C        2.911    -0.035    28.866     8.810
    18   6 C        3.035     0.001    27.977     8.676
    19   6 C        3.053     0.005    27.859     8.656
    20   6 C        2.918    -0.037    28.912     8.817
    21   6 C        3.946     0.008    20.375     6.414
    22   6 C        2.979     0.017    27.634     8.623
    23   6 C        2.923    -0.036    28.898     8.816
    24   6 C        2.919    -0.031    28.766     8.795
    25   6 C        2.919    -0.033    28.817     8.803
    26   6 C        2.919    -0.030    28.756     8.794
    27   6 C        2.924    -0.034    28.838     8.806
    28   6 C        2.979     0.017    27.630     8.622
    29   6 C        2.924    -0.034    28.845     8.808
    30   6 C        2.919    -0.031    28.771     8.796
    31   6 C        2.919    -0.033    28.825     8.804
    32   6 C        2.920    -0.031    28.769     8.796
    33   6 C        2.923    -0.036    28.898     8.816
    34   6 C        3.057     0.005    27.857     8.656
    35   6 C        2.914    -0.034    28.840     8.806
    36   6 C        2.922    -0.032    28.800     8.801
    37   6 C        2.920    -0.033    28.819     8.803
    38   6 C        2.914    -0.035    28.861     8.809
    39   6 C        3.034     0.001    27.971     8.675
    40   6 C        2.977     0.011    27.773     8.645
    41   6 C        2.921    -0.034    28.857     8.809
    42   6 C        2.914    -0.028    28.691     8.783
    43   6 C        2.914    -0.030    28.760     8.794
    44   6 C        2.921    -0.035    28.866     8.811
    45   6 C        2.977     0.009    27.811     8.650
    46   6 C        2.921    -0.030    28.754     8.793
    47   6 C        2.922    -0.023    28.570     8.765
    48   1 H        0.926     0.036     2.503     2.474
    49   1 H        0.926     0.043     2.403     2.424
    50   1 H        0.926     0.037     2.494     2.469
    51   1 H        0.926     0.034     2.532     2.488
    52   1 H        0.926     0.035     2.514     2.479
    53   1 H        0.926     0.039     2.462     2.454
    54   1 H        0.926     0.037     2.485     2.465
    55   1 H        0.926     0.037     2.494     2.469
    56   1 H        0.926     0.036     2.503     2.474
    57   1 H        0.926     0.029     2.599     2.521
    58   1 H        0.926     0.031     2.574     2.509
    59   1 H        0.926     0.031     2.572     2.508
    60   1 H        0.926     0.031     2.565     2.505
    61   1 H        0.926     0.031     2.571     2.507
    62   1 H        0.926     0.032     2.564     2.504
    63   1 H        0.926     0.032     2.564     2.504
    64   1 H        0.926     0.031     2.572     2.508
    65   1 H        0.926     0.031     2.572     2.508
    66   1 H        0.926     0.029     2.599     2.521
    67   1 H        0.926     0.032     2.561     2.503
    68   1 H        0.926     0.033     2.548     2.496
    69   1 H        0.926     0.033     2.549     2.497
    70   1 H        0.926     0.034     2.528     2.486
    71   1 H        0.926     0.037     2.487     2.466
    72   1 H        0.926     0.035     2.523     2.484
    73   1 H        0.926     0.034     2.526     2.485
    74   1 H        0.926     0.037     2.487     2.466
    75   1 H        0.926     0.044     2.401     2.423
    76   1 H        0.926     0.036     2.503     2.474

molecular dipole:
                 x           y           z       tot (Debye)
 q only:       -3.016       0.344      -0.435
   full:       -3.397       0.389      -0.500       8.784

 projected vibrational frequencies (cm⁻¹)
eigval :       -0.00    -0.00     0.00     0.00     0.00     0.00
eigval :       10.36    15.22    22.17    29.82    39.84    44.17
eigval :       46.38    50.87    56.18    60.84    71.35    81.97
eigval :       82.90    91.29   121.63   125.92   127.18   133.40
eigval :      141.97   153.37   181.44   209.20   210.74   222.44
eigval :      232.00   242.13   254.49   259.93   274.13   275.33
eigval :      293.00   320.38   334.60   337.29   364.51   370.48
eigval :      371.00   377.06   387.45   394.52   398.26   412.66
eigval :      424.49   439.95   445.44   456.47   459.09   469.49
eigval :      486.59   499.69   509.22   518.48   528.40   535.22
eigval :      548.36   573.20   582.69   584.86   588.59   588.82
eigval :      592.70   596.76   610.26   619.82   629.37   637.99
eigval :      645.49   669.71   670.71   673.55   684.46   688.20
eigval :      691.72   708.77   719.92   723.66   746.25   751.65
eigval :      757.91   760.68   762.52   774.01   783.65   814.88
eigval :      831.58   839.15   852.13   865.71   876.38   876.67
eigval :      880.33   882.62   884.67   892.95   895.01   899.70
eigval :      903.65   904.69   907.13   907.68   910.64   915.33
eigval :      920.07   920.71   925.33   926.41   928.38   928.99
eigval :      931.91   932.37   933.81   936.34   945.19   982.67
eigval :      995.21  1001.20  1008.51  1014.64  1076.28  1084.80
eigval :     1087.43  1102.18  1104.56  1106.41  1115.26  1123.16
eigval :     1123.75  1126.03  1135.12  1150.53  1164.42  1173.35
eigval :     1178.11  1178.50  1180.18  1180.53  1181.82  1186.39
eigval :     1193.71  1200.88  1204.29  1207.33  1226.74  1230.30
eigval :     1236.24  1238.26  1242.74  1252.96  1255.82  1263.81
eigval :     1281.46  1284.28  1285.47  1286.85  1301.92  1303.06
eigval :     1310.80  1314.78  1320.00  1321.50  1335.14  1350.02
eigval :     1356.50  1364.74  1378.02  1406.68  1407.86  1416.89
eigval :     1418.60  1426.79  1431.07  1434.90  1442.33  1459.18
eigval :     1465.53  1471.57  1474.70  1475.64  1492.61  1498.93
eigval :     1525.49  1526.19  1545.63  1547.35  1561.74  1572.93
eigval :     1584.10  1586.40  1588.48  1596.25  1598.62  1600.87
eigval :     2322.31  3067.15  3067.59  3069.49  3070.01  3070.82
eigval :     3074.36  3074.92  3076.37  3077.00  3077.02  3077.44
eigval :     3077.51  3078.14  3081.40  3082.68  3084.74  3084.99
eigval :     3085.16  3086.14  3086.82  3088.20  3088.73  3088.91
eigval :     3090.11  3092.18  3094.92  3095.74  3098.65  3099.88

   temp. (K)  partition function   enthalpy   heat capacity  entropy
                                   cal/mol     cal/K/mol   cal/K/mol   J/K/mol
 298.15  VIB  0.220E+17            21556.450    137.981    133.677
         ROT  0.688E+08              888.752      2.981     38.843
         INT  0.151E+25            22445.202    140.962    172.519
         TR   0.141E+29             1481.254      4.968     45.017
         TOT                       23926.4564   145.9300   217.5366   910.1732

       T/K    H(0)-H(T)+PV         H(T)/Eh          T*S/Eh         G(T)/Eh
   ------------------------------------------------------------------------
    298.15    0.381292E-01    0.618867E+00    0.103359E+00    0.515508E+00
   ------------------------------------------------------------------------

         :::::::::::::::::::::::::::::::::::::::::::::::::::::
         ::                  THERMODYNAMIC                  ::
         :::::::::::::::::::::::::::::::::::::::::::::::::::::
         :: total free energy        -115.646852188479 Eh   ::
         ::.................................................::
         :: total energy             -116.162360651558 Eh   ::
         :: zero point energy           0.580737892852 Eh   ::
         :: G(RRHO) w/o ZPVE           -0.065229429774 Eh   ::
         :: G(RRHO) contrib.            0.515508463079 Eh   ::
         :::::::::::::::::::::::::::::::::::::::::::::::::::::

           -------------------------------------------------
          | TOTAL ENERGY             -116.162360651558 Eh   |
          | TOTAL ENTHALPY           -115.543493523443 Eh   |
          | TOTAL FREE ENERGY        -115.646852188479 Eh   |
          | GRADIENT NORM               0.000026767017 Eh/α |
          | HOMO-LUMO GAP               0.830993827315 eV   |
           -------------------------------------------------

 * finished run on 2025/09/12 at 05:45:37.060
