   * xtb version 6.7.1 (edcfbbe) compiled by 'albert@albert-system' on 2024-07-22

   ID    Z sym.   atoms
    1    7 N      1
    2    6 C      2-47
    3    1 H      48-76

          program call               : xtb data2507/toluene/DPF-AnCN/DPF-AnCN.xyz --gfn 2 --gbsa toluene --ohess vtight --parallel 40 --molden --ceasefiles --namespace data2507/toluene/DPF-AnCN/DPF-AnCN_toluene_S0_preOpt
      * Solvation model:               GBSA
        Solvent                        toluene
        Solvent mass                       9.2140E+01 g/mol
          :  Hamiltonian                  GFN2-xTB          :
 * total energy  :  -116.2060800 Eh     change       -0.1250967E-08 Eh
 * total energy  :  -116.2217995 Eh     change       -0.1571949E-01 Eh
 * total energy  :  -116.2266170 Eh     change       -0.4817514E-02 Eh
 * total energy  :  -116.2273898 Eh     change       -0.7727773E-03 Eh
 * total energy  :  -116.2275966 Eh     change       -0.2068739E-03 Eh
 * total energy  :  -116.2276410 Eh     change       -0.4432673E-04 Eh
 * total energy  :  -116.2276627 Eh     change       -0.2169551E-04 Eh
 * total energy  :  -116.2276709 Eh     change       -0.8198373E-05 Eh
 * total energy  :  -116.2276740 Eh     change       -0.3181718E-05 Eh
 * total energy  :  -116.2276802 Eh     change       -0.6106305E-05 Eh
 * total energy  :  -116.2286433 Eh     change       -0.4106844E-06 Eh
 * total energy  :  -116.2286436 Eh     change       -0.3099105E-06 Eh
 * total energy  :  -116.2286438 Eh     change       -0.2112810E-06 Eh
 * total energy  :  -116.2286439 Eh     change       -0.1408800E-06 Eh
 * total energy  :  -116.2286441 Eh     change       -0.1256141E-06 Eh
 * total energy  :  -116.2286442 Eh     change       -0.1111208E-06 Eh
 * total energy  :  -116.2286443 Eh     change       -0.1212093E-06 Eh
 * total energy  :  -116.2286444 Eh     change       -0.1294519E-06 Eh
 * total energy  :  -116.2286445 Eh     change       -0.8719519E-07 Eh
   *** GEOMETRY OPTIMIZATION CONVERGED AFTER 85 ITERATIONS ***

 final structure:
================
76
 xtb: 6.7.1 (edcfbbe)
N           10.80344861871924       -0.29060912024197        1.32078878346420
C            9.68696225214827       -0.22928637320302        1.05919987456223
C            8.31479182339831       -0.15468308124203        0.73769608198706
C            7.91321920293848       -0.08278749911627       -0.59826228081295
C            6.56992219552232       -0.01059036281509       -0.90549563765154
C            5.60783502297106       -0.01257368152527        0.10347855242488
C            4.17004977229252        0.06392410564580       -0.23536491892961
C            3.62804824545021        1.27305528925676       -0.69370178006288
C            4.41604584722197        2.44888174105340       -0.81248477169481
C            3.87378947758639        3.62348720832559       -1.23501534656135
C            2.50257761207851        3.69935501956302       -1.55201180506077
C            1.71158949141103        2.59687144911614       -1.44526110068157
C            2.23903606481595        1.34677869783625       -1.02558198467786
C            1.42977083382050        0.20741162641900       -0.90204318112737
C           -0.00069723096667        0.27182960824196       -1.26676293089382
C           -0.37858554264847        0.45469410933045       -2.59618024640650
C           -1.71258160630186        0.48796098620098       -2.96420988784132
C           -2.68004389919414        0.33468924392120       -1.98381806390702
C           -2.30552131943939        0.15874981631984       -0.64390744893954
C           -0.97813721420022        0.12509087970506       -0.28144314670004
C           -3.52620362188348       -0.03548727113971        0.23564296586794
C           -3.40046690757572       -1.41484007751185        0.85581290039171
C           -3.90868031649081       -2.53585979904623        0.21205725532669
C           -3.72052454114543       -3.79907109555382        0.74619318695229
C           -3.01331446392295       -3.96032537984382        1.92511722893719
C           -2.49292336810252       -2.84875578747553        2.56650326068394
C           -2.68244007456009       -1.58606025578017        2.03448699192760
C           -3.72187261273874        1.05868053974664        1.26634330683367
C           -4.55701290337652        0.84716339907413        2.35804053993311
C           -4.79372681193713        1.85992168630860        3.26999208737373
C           -4.20273180739699        3.10108298877679        3.10210906152806
C           -3.37699187147981        3.32199480248848        2.01347624115994
C           -3.14220743231113        2.30971149442166        1.09896605926640
C           -4.64686284546029        0.07680319051923       -0.78190269693744
C           -6.00841432367187        0.00751864280274       -0.57657536661217
C           -6.85637875101302        0.15946174930516       -1.66599000175603
C           -6.34810769699338        0.38226229757830       -2.93699186697490
C           -4.98097116919029        0.45783900795945       -3.14970945454702
C           -4.13073962587036        0.30553341039340       -2.06624150702349
C            1.97251775913254       -1.00064399837733       -0.43660697598793
C            1.18813046460430       -2.17891250060955       -0.31793332608151
C            1.72665895880709       -3.34611917071716        0.12936921448348
C            3.09270751723286       -3.41458011100732        0.46904489983553
C            3.88465781623184       -2.31397502858420        0.35070595831520
C            3.35967802909817       -1.07194604323359       -0.09567212773047
C            6.01765685041788       -0.08544925462742        1.43403357840792
C            7.35793252000098       -0.15384283667804        1.75537248643732
H            8.65791828365493       -0.08432254807299       -1.38086058163582
H            6.25529941583116        0.04409015544303       -1.93730574270588
H            5.46288091015696        2.39848526380603       -0.55154439340702
H            4.48728165480243        4.50872187031845       -1.31988926476071
H            2.08454436401399        4.64279830458697       -1.87189625503464
H            0.65820606657030        2.66048170161936       -1.67347974548535
H            0.39030841910170        0.55742979659899       -3.34883670904436
H           -1.99025380959613        0.62272297962613       -3.99909887830989
H           -0.68416029657560       -0.01005077815040        0.74901117912367
H           -4.45579638509260       -2.42224790707757       -0.71272089340500
H           -4.12703268120158       -4.66056211079051        0.23583759042435
H           -2.86648445159415       -4.94654760404840        2.34093902180886
H           -1.93463726205149       -2.96451968470763        3.48448476606250
H           -2.27599960170566       -0.72449943822731        2.54454325163078
H           -5.01644989455484       -0.12044079505920        2.50146594518806
H           -5.44338078853829        1.67905092928123        4.11446647060123
H           -4.38627456970063        3.89178282746101        3.81507713974516
H           -2.91380731625285        4.28805328822027        1.87187924684026
H           -2.50107020749725        2.49512525149758        0.24944236881479
H           -6.41271459546123       -0.16460381280481        0.40982504028996
H           -7.92550869816842        0.10454451982361       -1.52026277411954
H           -7.02695795226529        0.49895851506629       -3.76959308706015
H           -4.58743158582751        0.63325259478875       -4.14006772561699
H            0.14573679739057       -2.13704485813255       -0.59569624900842
H            1.11200647639298       -4.23014964310344        0.21739117392556
H            3.50739719939083       -4.35089398256784        0.81342871718612
H            4.93536024963814       -2.37392937055073        0.59348333898957
H            5.27475255645303       -0.08305624667084        2.21804550041712
H            7.67537528466351       -0.20698248015028        2.78666988803903

          :  Hamiltonian                  GFN2-xTB          :
         :: gradient norm              0.000029089605 Eh/a0 ::
         :: HOMO-LUMO gap              2.072024698701 eV    ::
         :: SCC energy              -118.529389251892 Eh    ::
         :: -> dispersion             -0.113597079011 Eh    ::
         :: -> Gsolv                  -0.049850581661 Eh    ::
         :: repulsion energy           2.300744733659 Eh    ::

    * Orbital Energies and Occupations

         #    Occupation            Energy/Eh            Energy/eV
      -------------------------------------------------------------
         1        2.0000           -0.6694356             -18.2163
       ...           ...                  ...                  ...
        97        2.0000           -0.4172349             -11.3535
        98        2.0000           -0.4105611             -11.1719
        99        2.0000           -0.4098417             -11.1524
       100        2.0000           -0.4086269             -11.1193
       101        2.0000           -0.4067791             -11.0690
       102        2.0000           -0.4053296             -11.0296
       103        2.0000           -0.4036391             -10.9836
       104        2.0000           -0.4023907             -10.9496
       105        2.0000           -0.3973178             -10.8116
       106        2.0000           -0.3963734             -10.7859
       107        2.0000           -0.3903780             -10.6227
       108        2.0000           -0.3799690             -10.3395
       109        2.0000           -0.3615626              -9.8386 (HOMO)
       110                         -0.2854171              -7.7666 (LUMO)
       111                         -0.2729991              -7.4287
       112                         -0.2533256              -6.8933
       113                         -0.2426259              -6.6022
       114                         -0.2343430              -6.3768
       115                         -0.2307475              -6.2790
       116                         -0.2294508              -6.2437
       117                         -0.2246487              -6.1130
       118                         -0.2233143              -6.0767
       119                         -0.2210582              -6.0153
       120                         -0.2178047              -5.9268
       ...                                ...                  ...
       217                          1.1584574              31.5232
      -------------------------------------------------------------
                  HL-Gap            0.0761455 Eh            2.0720 eV

     #   Z          covCN         q      C6AA      α(0)
     1   7 N        0.911    -0.276    27.136     7.534
     2   6 C        1.912     0.118    28.191     8.575
     3   6 C        2.973     0.013    27.709     8.635
     4   6 C        2.924    -0.019    28.477     8.751
     5   6 C        2.923    -0.027    28.674     8.781
     6   6 C        2.976     0.030    27.338     8.576
     7   6 C        2.977    -0.008    28.223     8.714
     8   6 C        2.983     0.007    27.854     8.657
     9   6 C        2.917    -0.036    28.889     8.814
    10   6 C        2.914    -0.030    28.738     8.791
    11   6 C        2.914    -0.030    28.756     8.793
    12   6 C        2.917    -0.034    28.835     8.806
    13   6 C        2.983     0.007    27.865     8.659
    14   6 C        2.977    -0.003    28.090     8.694
    15   6 C        2.979     0.012    27.741     8.640
    16   6 C        2.925    -0.036    28.903     8.816
    17   6 C        2.913    -0.036    28.886     8.813
    18   6 C        3.034    -0.002    28.041     8.686
    19   6 C        3.058     0.004    27.880     8.659
    20   6 C        2.919    -0.037    28.920     8.819
    21   6 C        3.946     0.008    20.375     6.414
    22   6 C        2.981     0.017    27.627     8.622
    23   6 C        2.923    -0.036    28.902     8.816
    24   6 C        2.920    -0.031    28.770     8.796
    25   6 C        2.919    -0.033    28.824     8.804
    26   6 C        2.919    -0.031    28.762     8.795
    27   6 C        2.924    -0.034    28.841     8.807
    28   6 C        2.978     0.017    27.632     8.623
    29   6 C        2.924    -0.034    28.847     8.808
    30   6 C        2.919    -0.031    28.775     8.797
    31   6 C        2.919    -0.033    28.830     8.805
    32   6 C        2.919    -0.031    28.771     8.796
    33   6 C        2.923    -0.036    28.892     8.815
    34   6 C        3.056     0.004    27.887     8.660
    35   6 C        2.914    -0.034    28.853     8.808
    36   6 C        2.922    -0.033    28.828     8.805
    37   6 C        2.921    -0.034    28.838     8.806
    38   6 C        2.914    -0.035    28.877     8.812
    39   6 C        3.035     0.000    27.993     8.678
    40   6 C        2.983     0.007    27.860     8.658
    41   6 C        2.917    -0.033    28.824     8.804
    42   6 C        2.914    -0.030    28.745     8.792
    43   6 C        2.914    -0.029    28.730     8.789
    44   6 C        2.917    -0.036    28.895     8.815
    45   6 C        2.983     0.007    27.849     8.657
    46   6 C        2.922    -0.027    28.674     8.781
    47   6 C        2.924    -0.019    28.477     8.751
    48   1 H        0.926     0.043     2.407     2.426
    49   1 H        0.926     0.047     2.362     2.403
    50   1 H        0.926     0.030     2.585     2.514
    51   1 H        0.926     0.032     2.563     2.503
    52   1 H        0.926     0.032     2.559     2.502
    53   1 H        0.926     0.034     2.530     2.488
    54   1 H        0.926     0.032     2.552     2.498
    55   1 H        0.926     0.034     2.530     2.487
    56   1 H        0.926     0.032     2.565     2.504
    57   1 H        0.926     0.029     2.607     2.525
    58   1 H        0.926     0.031     2.578     2.511
    59   1 H        0.926     0.031     2.574     2.509
    60   1 H        0.926     0.031     2.569     2.506
    61   1 H        0.926     0.031     2.575     2.509
    62   1 H        0.926     0.031     2.571     2.508
    63   1 H        0.926     0.031     2.568     2.506
    64   1 H        0.926     0.031     2.575     2.509
    65   1 H        0.926     0.031     2.576     2.510
    66   1 H        0.926     0.029     2.606     2.524
    67   1 H        0.926     0.031     2.579     2.511
    68   1 H        0.926     0.031     2.566     2.505
    69   1 H        0.926     0.031     2.566     2.505
    70   1 H        0.926     0.033     2.550     2.497
    71   1 H        0.926     0.032     2.553     2.499
    72   1 H        0.926     0.031     2.569     2.507
    73   1 H        0.926     0.032     2.558     2.501
    74   1 H        0.926     0.031     2.577     2.510
    75   1 H        0.926     0.047     2.360     2.403
    76   1 H        0.926     0.043     2.407     2.426

molecular dipole:
                 x           y           z       tot (Debye)
 q only:       -1.832       0.081      -0.356
   full:       -2.219       0.092      -0.447       5.759

 projected vibrational frequencies (cm⁻¹)
eigval :       -0.00    -0.00    -0.00    -0.00     0.00     0.00
eigval :        9.08    13.49    17.13    33.14    35.90    38.14
eigval :       45.78    46.68    53.19    54.52    67.64    75.57
eigval :       84.17    87.70   104.72   120.43   131.66   133.76
eigval :      136.82   143.44   185.53   204.96   210.13   213.48
eigval :      217.46   239.99   251.56   257.74   264.93   274.13
eigval :      291.78   320.85   334.93   339.37   365.39   372.24
eigval :      378.96   386.59   392.31   394.98   413.30   428.19
eigval :      444.86   445.91   450.36   456.83   459.82   463.46
eigval :      489.86   501.29   511.05   517.77   534.53   537.20
eigval :      555.77   581.70   585.33   587.20   588.66   590.75
eigval :      599.11   603.57   611.69   626.00   635.72   645.20
eigval :      651.06   670.85   671.97   685.68   691.28   692.91
eigval :      698.03   709.81   724.86   740.81   753.24   759.18
eigval :      765.60   770.77   774.66   775.18   789.73   814.33
eigval :      827.28   868.89   870.78   873.25   876.11   877.94
eigval :      880.06   885.18   886.03   898.14   903.90   905.71
eigval :      908.10   911.72   914.89   915.26   918.01   918.17
eigval :      921.55   924.00   924.22   926.83   928.46   931.35
eigval :      931.60   931.81   932.79   933.38   934.03   983.71
eigval :      999.52  1001.23  1011.65  1020.00  1078.51  1081.27
eigval :     1082.16  1084.55  1086.89  1108.00  1122.61  1125.18
eigval :     1129.67  1134.02  1134.27  1152.66  1167.95  1173.52
eigval :     1179.79  1180.17  1180.71  1182.38  1184.93  1189.55
eigval :     1199.61  1203.22  1206.26  1213.68  1226.70  1228.98
eigval :     1238.08  1241.05  1246.52  1255.82  1259.43  1260.34
eigval :     1264.07  1283.25  1283.87  1286.55  1306.06  1314.56
eigval :     1318.55  1320.09  1325.94  1348.53  1357.53  1372.72
eigval :     1383.18  1391.06  1414.48  1417.20  1427.20  1428.62
eigval :     1434.25  1435.05  1443.14  1451.57  1467.42  1471.80
eigval :     1474.82  1480.13  1490.48  1524.97  1526.74  1539.67
eigval :     1544.56  1572.66  1584.84  1584.90  1588.39  1590.58
eigval :     1595.40  1597.93  1601.72  1603.57  1606.63  1620.88
eigval :     2360.47  3066.21  3067.26  3068.44  3069.14  3069.32
eigval :     3070.67  3071.26  3071.96  3075.97  3076.33  3077.16
eigval :     3077.39  3078.09  3080.29  3080.95  3081.61  3082.34
eigval :     3083.46  3084.41  3086.01  3087.23  3088.30  3088.93
eigval :     3089.54  3091.61  3091.70  3093.48  3093.70  3095.36

   temp. (K)  partition function   enthalpy   heat capacity  entropy
                                   cal/mol     cal/K/mol   cal/K/mol   J/K/mol
 298.15  VIB  0.694E+17            21556.387    136.633    134.559
         ROT  0.684E+08              888.752      2.981     38.832
         INT  0.474E+25            22445.140    139.613    173.391
         TR   0.141E+29             1481.254      4.968     45.017
         TOT                       23926.3936   144.5816   218.4083   913.8202

       T/K    H(0)-H(T)+PV         H(T)/Eh          T*S/Eh         G(T)/Eh
   ------------------------------------------------------------------------
    298.15    0.381291E-01    0.621166E+00    0.103773E+00    0.517393E+00
   ------------------------------------------------------------------------

         :::::::::::::::::::::::::::::::::::::::::::::::::::::
         ::                  THERMODYNAMIC                  ::
         :::::::::::::::::::::::::::::::::::::::::::::::::::::
         :: total free energy        -115.711251459319 Eh   ::
         ::.................................................::
         :: total energy             -116.228644513720 Eh   ::
         :: zero point energy           0.583036735961 Eh   ::
         :: G(RRHO) w/o ZPVE           -0.065643681560 Eh   ::
         :: G(RRHO) contrib.            0.517393054401 Eh   ::
         :::::::::::::::::::::::::::::::::::::::::::::::::::::

           -------------------------------------------------
          | TOTAL ENERGY             -116.228644513720 Eh   |
          | TOTAL ENTHALPY           -115.607478642477 Eh   |
          | TOTAL FREE ENERGY        -115.711251459319 Eh   |
          | GRADIENT NORM               0.000029118546 Eh/α |
          | HOMO-LUMO GAP               2.072024772448 eV   |
           -------------------------------------------------

 * finished run on 2025/09/12 at 05:41:29.879
