   * xtb version 6.7.1 (edcfbbe) compiled by 'albert@albert-system' on 2024-07-22

   ID    Z sym.   atoms
    1    7 N      1
    2    6 C      2-47
    3    1 H      48-76

          program call               : xtb data2507/toluene/DPF-AnCN/DPF-AnCN_toluene_S0_crest.xyz --gfn 2 --gbsa toluene --ohess vtight --parallel 40 --molden --ceasefiles --namespace data2507/toluene/DPF-AnCN/DPF-AnCN_toluene_S0_finalOpt
      * Solvation model:               GBSA
        Solvent                        toluene
        Solvent mass                       9.2140E+01 g/mol
          :  Hamiltonian                  GFN2-xTB          :
 * total energy  :  -116.2284604 Eh     change       -0.1263942E-08 Eh
 * total energy  :  -116.2285024 Eh     change       -0.4194202E-04 Eh
 * total energy  :  -116.2284992 Eh     change        0.3164108E-05 Eh
 * total energy  :  -116.2285351 Eh     change       -0.3589182E-04 Eh
 * total energy  :  -116.2285592 Eh     change       -0.2410081E-04 Eh
 * total energy  :  -116.2285728 Eh     change       -0.1354894E-04 Eh
 * total energy  :  -116.2285844 Eh     change       -0.1165614E-04 Eh
 * total energy  :  -116.2285909 Eh     change       -0.6461349E-05 Eh
 * total energy  :  -116.2285955 Eh     change       -0.4623550E-05 Eh
 * total energy  :  -116.2285996 Eh     change       -0.4050134E-05 Eh
 * total energy  :  -116.2286232 Eh     change       -0.1268722E-06 Eh
 * total energy  :  -116.2286234 Eh     change       -0.1284157E-06 Eh
 * total energy  :  -116.2286235 Eh     change       -0.1216146E-06 Eh
 * total energy  :  -116.2286236 Eh     change       -0.1170177E-06 Eh
 * total energy  :  -116.2286237 Eh     change       -0.1232392E-06 Eh
 * total energy  :  -116.2286239 Eh     change       -0.1351345E-06 Eh
 * total energy  :  -116.2286240 Eh     change       -0.1340376E-06 Eh
 * total energy  :  -116.2286241 Eh     change       -0.1093224E-06 Eh
 * total energy  :  -116.2286242 Eh     change       -0.7250107E-07 Eh
   *** GEOMETRY OPTIMIZATION CONVERGED AFTER 42 ITERATIONS ***

 final structure:
================
76
 xtb: 6.7.1 (edcfbbe)
N           10.51263987651223       -0.76678820325229        0.97577441393276
C            9.39361141661358       -0.60603015806594        0.77391344000581
C            8.01836920524733       -0.40864679580462        0.52642766528561
C            7.50410327459835       -0.60851256616176       -0.75694119679481
C            6.15810714863142       -0.41629402154551       -0.99163536157012
C            5.30490351707992       -0.02068575581298        0.03793050876075
C            3.86505897233149        0.18595747332387       -0.22415673556819
C            3.32975459612415        1.48184205935069       -0.19136954933388
C            4.13988477059653        2.62095133924421        0.06122565006652
C            3.60427903796086        3.87078221662489        0.11964296514378
C            2.21963858125284        4.05890135853726       -0.06349274472940
C            1.41281475303168        2.99628364731895       -0.33232320916606
C            1.93401676365818        1.67893302632879       -0.43300441500408
C            1.11598585589730        0.58109071887682       -0.74100452971889
C           -0.32168941827322        0.77978470824523       -1.01434398258551
C           -0.73679598860305        1.50344633640850       -2.13146636878659
C           -2.08066388633910        1.67793757579262       -2.41390206597947
C           -3.02074614910813        1.11216034516087       -1.56724098305902
C           -2.60915449340633        0.38397640844582       -0.44152140699546
C           -1.27229494004272        0.21781161524890       -0.16027594481065
C           -3.80460632804803       -0.19152082372160        0.29433203484249
C           -3.66066933307450       -1.70192496545488        0.23684713959661
C           -4.20608677133754       -2.43415582033724       -0.80985106487454
C           -4.00060614766554       -3.80068954511167       -0.89422284319226
C           -3.23802611484374       -4.45228520309257        0.05957352220167
C           -2.68284722684961       -3.72777157778521        1.10108530246759
C           -2.89115531756252       -2.36317913589000        1.18820859834614
C           -3.97035152916499        0.32742372792825        1.70843754442339
C           -4.76992268666951       -0.36167101023202        2.61394860572808
C           -4.97935657776001        0.13436492002417        3.88798248378620
C           -4.39491969360164        1.32876084638343        4.27504824430293
C           -3.60467600305193        2.02475075428375        3.37679546795714
C           -3.39750433262713        1.53038681590022        2.10045032021983
C           -4.95315402775035        0.34128051356802       -0.54240934587248
C           -6.30836011326083        0.17510951426594       -0.35168580733819
C           -7.18673092134996        0.77310324791539       -1.24603596301920
C           -6.71427066478513        1.52654846938944       -2.31022459404417
C           -5.35361230784490        1.70155110004865       -2.50520673502903
C           -4.47321641667570        1.10647864033688       -1.61592763123153
C            1.65637093192032       -0.71412789525120       -0.78686029462603
C            0.86655943167073       -1.84549946201678       -1.12431814536313
C            1.39235430952102       -3.10088047269092       -1.12825273609650
C            2.74721425666754       -3.30457208421865       -0.79852155029836
C            3.54759891937917       -2.24407901215330       -0.50297070294798
C            3.04404977236704       -0.91590526149676       -0.50607244632828
C            5.82742909882319        0.17779758393473        1.31534106037353
C            7.17079608661730       -0.01497913028318        1.56470663923381
H            8.16492034157745       -0.91164493095508       -1.55601488541201
H            5.75669852697103       -0.56764767892110       -1.98289734343754
H            5.20065269207505        2.48001197842970        0.20664571959391
H            4.23483313208021        4.72643629649767        0.31325829392847
H            1.80615350622310        5.05437169785546        0.00879119050593
H            0.35236923145840        3.14255681443138       -0.47253428921589
H            0.01021194383946        1.92158873273691       -2.79131792571936
H           -2.38693783636336        2.23758290337477       -3.28527834576541
H           -0.94933984972925       -0.33600065739138        0.70885005614669
H           -4.79685806951503       -1.93529316425059       -1.56445924043647
H           -4.43675413848484       -4.35654542317882       -1.71195711054093
H           -3.07622658724033       -5.51831505642488       -0.00853565566916
H           -2.08211964835325       -4.22605185724781        1.84849063872918
H           -2.45836011717386       -1.80775762412472        2.00779165719460
H           -5.22310218982581       -1.29855050022915        2.32278066954231
H           -5.60147754670832       -0.41408544268622        4.58086760344398
H           -4.55672117470672        1.71541864481506        5.27073618770891
H           -3.14729933699802        2.95925464160840        3.66891632661519
H           -2.78395264673371        2.08478643862493        1.40513988309559
H           -6.68470352737608       -0.41065200111592        0.47370829009211
H           -8.25142039512223        0.64915446655412       -1.11023954785541
H           -7.41606662040136        1.98307392787904       -2.99344995930078
H           -4.98804071723077        2.29088151592890       -3.33315574833429
H           -0.17106082775253       -1.69533463410156       -1.38152996017279
H            0.77308162117645       -3.94882506216198       -1.38237558069244
H            3.14611355173749       -4.30860039447966       -0.78921568020681
H            4.58692959142391       -2.40312871020495       -0.25593219783151
H            5.16835735839073        0.47987016567272        2.11603340575427
H            7.57442480435670        0.13584810256260        2.55540111852964

          :  Hamiltonian                  GFN2-xTB          :
         :: gradient norm              0.000038600040 Eh/a0 ::
         :: HOMO-LUMO gap              2.041841130500 eV    ::
         :: SCC energy              -118.529135005924 Eh    ::
         :: -> dispersion             -0.113848461397 Eh    ::
         :: -> Gsolv                  -0.049667862466 Eh    ::
         :: repulsion energy           2.300510835081 Eh    ::

    * Orbital Energies and Occupations

         #    Occupation            Energy/Eh            Energy/eV
      -------------------------------------------------------------
         1        2.0000           -0.6693419             -18.2137
       ...           ...                  ...                  ...
        97        2.0000           -0.4173114             -11.3556
        98        2.0000           -0.4104384             -11.1686
        99        2.0000           -0.4099459             -11.1552
       100        2.0000           -0.4096138             -11.1462
       101        2.0000           -0.4057420             -11.0408
       102        2.0000           -0.4051640             -11.0251
       103        2.0000           -0.4036308             -10.9834
       104        2.0000           -0.4022674             -10.9463
       105        2.0000           -0.3971805             -10.8078
       106        2.0000           -0.3963994             -10.7866
       107        2.0000           -0.3904717             -10.6253
       108        2.0000           -0.3800635             -10.3421
       109        2.0000           -0.3613268              -9.8322 (HOMO)
       110                         -0.2862905              -7.7904 (LUMO)
       111                         -0.2722771              -7.4090
       112                         -0.2532182              -6.8904
       113                         -0.2425010              -6.5988
       114                         -0.2343441              -6.3768
       115                         -0.2309233              -6.2837
       116                         -0.2293057              -6.2397
       117                         -0.2246844              -6.1140
       118                         -0.2232346              -6.0745
       119                         -0.2210395              -6.0148
       120                         -0.2177958              -5.9265
       ...                                ...                  ...
       217                          1.1584652              31.5234
      -------------------------------------------------------------
                  HL-Gap            0.0750363 Eh            2.0418 eV

     #   Z          covCN         q      C6AA      α(0)
     1   7 N        0.911    -0.276    27.141     7.535
     2   6 C        1.912     0.118    28.191     8.575
     3   6 C        2.973     0.013    27.710     8.635
     4   6 C        2.924    -0.019    28.480     8.752
     5   6 C        2.923    -0.027    28.673     8.781
     6   6 C        2.976     0.029    27.343     8.577
     7   6 C        2.977    -0.009    28.227     8.715
     8   6 C        2.983     0.007    27.852     8.657
     9   6 C        2.917    -0.036    28.894     8.815
    10   6 C        2.914    -0.030    28.740     8.791
    11   6 C        2.914    -0.030    28.759     8.794
    12   6 C        2.917    -0.034    28.841     8.807
    13   6 C        2.983     0.007    27.865     8.659
    14   6 C        2.977    -0.003    28.091     8.694
    15   6 C        2.979     0.012    27.746     8.640
    16   6 C        2.925    -0.036    28.902     8.816
    17   6 C        2.913    -0.036    28.888     8.813
    18   6 C        3.034    -0.002    28.039     8.685
    19   6 C        3.058     0.004    27.883     8.660
    20   6 C        2.919    -0.037    28.917     8.818
    21   6 C        3.946     0.008    20.375     6.414
    22   6 C        2.981     0.017    27.625     8.622
    23   6 C        2.923    -0.036    28.905     8.817
    24   6 C        2.920    -0.031    28.771     8.796
    25   6 C        2.919    -0.033    28.823     8.804
    26   6 C        2.919    -0.030    28.760     8.794
    27   6 C        2.924    -0.034    28.837     8.806
    28   6 C        2.978     0.017    27.633     8.623
    29   6 C        2.924    -0.034    28.847     8.808
    30   6 C        2.919    -0.031    28.775     8.797
    31   6 C        2.919    -0.033    28.830     8.805
    32   6 C        2.920    -0.031    28.771     8.796
    33   6 C        2.923    -0.036    28.891     8.815
    34   6 C        3.056     0.004    27.887     8.660
    35   6 C        2.914    -0.034    28.853     8.808
    36   6 C        2.922    -0.033    28.828     8.805
    37   6 C        2.921    -0.034    28.838     8.806
    38   6 C        2.914    -0.035    28.877     8.812
    39   6 C        3.035     0.000    27.992     8.678
    40   6 C        2.983     0.007    27.860     8.658
    41   6 C        2.917    -0.033    28.824     8.804
    42   6 C        2.914    -0.030    28.746     8.792
    43   6 C        2.914    -0.029    28.731     8.789
    44   6 C        2.917    -0.036    28.898     8.815
    45   6 C        2.983     0.007    27.849     8.657
    46   6 C        2.922    -0.027    28.674     8.781
    47   6 C        2.924    -0.019    28.480     8.752
    48   1 H        0.926     0.043     2.409     2.427
    49   1 H        0.926     0.047     2.360     2.402
    50   1 H        0.926     0.030     2.579     2.511
    51   1 H        0.926     0.032     2.564     2.504
    52   1 H        0.926     0.032     2.560     2.502
    53   1 H        0.926     0.034     2.524     2.484
    54   1 H        0.926     0.033     2.547     2.496
    55   1 H        0.926     0.034     2.530     2.488
    56   1 H        0.926     0.032     2.561     2.502
    57   1 H        0.926     0.029     2.605     2.524
    58   1 H        0.926     0.031     2.577     2.511
    59   1 H        0.926     0.031     2.574     2.509
    60   1 H        0.926     0.031     2.568     2.506
    61   1 H        0.926     0.031     2.577     2.510
    62   1 H        0.926     0.031     2.574     2.509
    63   1 H        0.926     0.031     2.569     2.506
    64   1 H        0.926     0.031     2.575     2.509
    65   1 H        0.926     0.031     2.576     2.510
    66   1 H        0.926     0.029     2.604     2.523
    67   1 H        0.926     0.031     2.578     2.511
    68   1 H        0.926     0.031     2.566     2.505
    69   1 H        0.926     0.031     2.566     2.505
    70   1 H        0.926     0.033     2.549     2.497
    71   1 H        0.926     0.032     2.552     2.498
    72   1 H        0.926     0.031     2.571     2.508
    73   1 H        0.926     0.032     2.559     2.502
    74   1 H        0.926     0.031     2.575     2.509
    75   1 H        0.926     0.047     2.358     2.401
    76   1 H        0.926     0.043     2.408     2.427

molecular dipole:
                 x           y           z       tot (Debye)
 q only:       -1.848       0.215      -0.275
   full:       -2.237       0.260      -0.349       5.793

 projected vibrational frequencies (cm⁻¹)
eigval :       -0.00    -0.00     0.00     0.00     0.00     0.00
eigval :        9.76    14.57    17.69    31.34    34.86    39.59
eigval :       44.57    46.27    51.27    56.70    67.72    78.97
eigval :       81.67    89.06   109.48   115.93   133.39   133.65
eigval :      139.77   145.13   183.24   206.21   210.21   216.76
eigval :      218.98   240.31   252.61   256.15   263.81   274.19
eigval :      292.31   320.41   336.16   339.61   362.76   371.57
eigval :      377.93   386.01   394.93   395.56   412.29   428.80
eigval :      443.37   448.56   449.33   458.00   459.39   462.57
eigval :      488.99   501.05   511.07   518.70   533.64   535.80
eigval :      555.62   582.68   585.11   587.26   588.76   590.52
eigval :      598.99   602.78   612.02   626.34   640.17   641.89
eigval :      650.49   669.56   671.85   686.29   690.82   693.73
eigval :      696.99   709.62   724.61   741.15   753.25   759.24
eigval :      765.28   774.34   775.51   776.09   789.56   814.86
eigval :      828.39   869.06   872.80   874.22   878.36   879.13
eigval :      880.57   884.82   885.37   898.07   903.54   905.48
eigval :      908.35   912.78   916.37   917.18   920.38   921.45
eigval :      921.64   924.17   926.79   928.12   928.87   929.95
eigval :      930.54   931.53   933.04   934.17   935.31   983.62
eigval :      999.38  1001.09  1011.58  1019.97  1078.11  1080.64
eigval :     1083.38  1085.10  1087.42  1108.27  1123.55  1125.86
eigval :     1131.77  1133.26  1134.06  1152.70  1167.73  1175.15
eigval :     1179.55  1180.93  1181.91  1183.65  1185.97  1189.47
eigval :     1200.37  1204.28  1206.48  1213.92  1226.52  1228.09
eigval :     1237.84  1241.18  1246.37  1255.45  1258.93  1260.99
eigval :     1265.12  1283.46  1284.69  1287.30  1306.61  1314.59
eigval :     1318.53  1320.15  1325.71  1347.78  1357.71  1372.79
eigval :     1382.93  1391.48  1414.36  1417.40  1426.90  1428.86
eigval :     1434.24  1435.18  1442.72  1451.30  1467.54  1472.09
eigval :     1474.96  1479.49  1489.80  1524.77  1525.88  1539.03
eigval :     1544.47  1572.58  1584.38  1584.99  1588.49  1590.77
eigval :     1595.32  1597.99  1601.75  1603.51  1606.65  1620.79
eigval :     2360.18  3066.76  3067.14  3068.79  3069.12  3069.47
eigval :     3071.41  3071.66  3072.09  3075.95  3076.43  3077.12
eigval :     3077.49  3078.07  3080.05  3081.36  3081.40  3082.01
eigval :     3083.34  3084.17  3085.70  3087.29  3088.11  3088.91
eigval :     3089.52  3090.90  3091.33  3092.62  3093.89  3096.14

   temp. (K)  partition function   enthalpy   heat capacity  entropy
                                   cal/mol     cal/K/mol   cal/K/mol   J/K/mol
 298.15  VIB  0.585E+17            21541.357    136.559    134.234
         ROT  0.682E+08              888.752      2.981     38.828
         INT  0.399E+25            22430.110    139.540    173.062
         TR   0.141E+29             1481.254      4.968     45.017
         TOT                       23911.3635   144.5078   218.0794   912.4442

       T/K    H(0)-H(T)+PV         H(T)/Eh          T*S/Eh         G(T)/Eh
   ------------------------------------------------------------------------
    298.15    0.381052E-01    0.621240E+00    0.103617E+00    0.517623E+00
   ------------------------------------------------------------------------

         :::::::::::::::::::::::::::::::::::::::::::::::::::::
         ::                  THERMODYNAMIC                  ::
         :::::::::::::::::::::::::::::::::::::::::::::::::::::
         :: total free energy        -115.711000901351 Eh   ::
         ::.................................................::
         :: total energy             -116.228624175396 Eh   ::
         :: zero point energy           0.583134647247 Eh   ::
         :: G(RRHO) w/o ZPVE           -0.065511373202 Eh   ::
         :: G(RRHO) contrib.            0.517623274045 Eh   ::
         :::::::::::::::::::::::::::::::::::::::::::::::::::::

           -------------------------------------------------
          | TOTAL ENERGY             -116.228624175396 Eh   |
          | TOTAL ENTHALPY           -115.607384344906 Eh   |
          | TOTAL FREE ENERGY        -115.711000901351 Eh   |
          | GRADIENT NORM               0.000038583494 Eh/α |
          | HOMO-LUMO GAP               2.041841241381 eV   |
           -------------------------------------------------

 * finished run on 2025/09/12 at 05:45:29.231
