   * xtb version 6.7.1 (edcfbbe) compiled by 'albert@albert-system' on 2024-07-22

   ID    Z sym.   atoms
    1    7 N      1
    2    6 C      2-47
    3    1 H      48-76

          program call               : xtb data2507/toluene/DPF-AnCN/DPF-AnCN_toluene_T1_crest.xyz --gfn 2 --uhf 2 --gbsa toluene --ohess vtight --parallel 40 --molden --ceasefiles --namespace data2507/toluene/DPF-AnCN/DPF-AnCN_toluene_T1_finalOpt
      * Solvation model:               GBSA
        Solvent                        toluene
        Solvent mass                       9.2140E+01 g/mol
          :  Hamiltonian                  GFN2-xTB          :
 * total energy  :  -116.1617840 Eh     change       -0.2390678E-08 Eh
 * total energy  :  -116.1618308 Eh     change       -0.4670642E-04 Eh
 * total energy  :  -116.1618560 Eh     change       -0.2520706E-04 Eh
 * total energy  :  -116.1618622 Eh     change       -0.6209083E-05 Eh
 * total energy  :  -116.1618900 Eh     change       -0.2786946E-04 Eh
 * total energy  :  -116.1619339 Eh     change       -0.4388236E-04 Eh
 * total energy  :  -116.1619685 Eh     change       -0.3458697E-04 Eh
 * total energy  :  -116.1620019 Eh     change       -0.3340222E-04 Eh
 * total energy  :  -116.1620381 Eh     change       -0.3621757E-04 Eh
 * total energy  :  -116.1620234 Eh     change        0.1475540E-04 Eh
 * total energy  :  -116.1623508 Eh     change       -0.1306977E-04 Eh
 * total energy  :  -116.1623595 Eh     change       -0.8676275E-05 Eh
 * total energy  :  -116.1623639 Eh     change       -0.4377099E-05 Eh
 * total energy  :  -116.1623664 Eh     change       -0.2517242E-05 Eh
 * total energy  :  -116.1623682 Eh     change       -0.1833699E-05 Eh
 * total energy  :  -116.1623695 Eh     change       -0.1235125E-05 Eh
 * total energy  :  -116.1623702 Eh     change       -0.7044397E-06 Eh
 * total energy  :  -116.1623708 Eh     change       -0.5872706E-06 Eh
 * total energy  :  -116.1623708 Eh     change       -0.4908898E-08 Eh
   *** GEOMETRY OPTIMIZATION CONVERGED AFTER 44 ITERATIONS ***

 final structure:
================
76
 xtb: 6.7.1 (edcfbbe)
N           10.55278510391445       -0.89008118778402       -0.80231213365390
C            9.42956687241577       -0.69943247728280       -0.63707729054675
C            8.05868138002035       -0.46796883426256       -0.43710043150721
C            7.42269915772468       -0.93524497334669        0.72181165596784
C            6.07901296527035       -0.71490404392881        0.90702371995446
C            5.31918173931793       -0.00475237712675       -0.03855178048692
C            3.90298350204438        0.23680896285813        0.16878791811392
C            3.02634628348885       -0.85368991793823        0.47019307024866
C            3.47416421384017       -2.17902344048016        0.47426484840853
C            2.64599548242602       -3.22704700727667        0.86303933117410
C            1.35279126498564       -2.96324468929408        1.26728509203458
C            0.86034358243989       -1.66410230656555        1.20564014913069
C            1.64830672831692       -0.60289825563678        0.74524790965663
C            1.11749665055648        0.71421626451242        0.58167183502776
C           -0.29871446846770        0.95852944853700        0.80775188345195
C           -0.71826649832707        1.96076410722723        1.69693727905963
C           -2.05498432517987        2.18515389130654        1.95476052430837
C           -3.00623436003632        1.41495331307480        1.29785056583937
C           -2.60005186701232        0.42638709513150        0.38418800098247
C           -1.26971508926056        0.18434407143354        0.15017341017763
C           -3.80474440912659       -0.28322207461206       -0.20602391077534
C           -3.98518965776206       -0.03860068122776       -1.69285173260725
C           -4.80985596322904       -0.87387398237952       -2.43876744929432
C           -5.03438754435631       -0.62637699928231       -3.78088160549215
C           -4.44228118494670        0.46356063734420       -4.39685622603468
C           -3.62791192936539        1.30490542576255       -3.65901775239900
C           -3.40470730490843        1.05892678067428       -2.31503584406471
C           -3.67883672827796       -1.75637557431267        0.13205150074265
C           -2.94879110276327       -2.60132101757012       -0.69709977823740
C           -2.77520101060738       -3.93337816653176       -0.36743709579691
C           -3.32125657266756       -4.43894267005264        0.80057454120903
C           -4.03672950288399       -3.60082714370840        1.63831534748680
C           -4.21077082190294       -2.26747397929354        1.30898532669763
C           -4.94418958571102        0.41821591787887        0.51060489166994
C           -6.30059021728929        0.20734441715694        0.38745788194788
C           -7.16931733740528        0.99292966186500        1.13460639799248
C           -6.68618606065994        1.97653719253431        1.98598800732458
C           -5.32521813217588        2.19970199520875        2.10988187116971
C           -4.45272426276787        1.41688805956724        1.36749172979407
C            1.97911552085968        1.78999010017684        0.20500890171946
C            1.48225379302431        3.06908521279825       -0.06998622038404
C            2.33087710711980        4.13903103050085       -0.33323083186753
C            3.69808809193956        3.94962062438021       -0.31849498533729
C            4.21568837565415        2.67325928684994       -0.12175795911916
C            3.38233692609739        1.56637619100454        0.07133924412436
C            5.97336663113042        0.46531041633313       -1.19040212930651
C            7.31189353632036        0.23189028976177       -1.39540385724469
H            8.00044353106179       -1.46321115504595        1.46699778407618
H            5.60235717773156       -1.05390963933613        1.81504723746125
H            4.48387114809083       -2.40048361228478        0.16464372654893
H            3.02704822901915       -4.23741753063862        0.86092865407663
H            0.71270112528437       -3.75936422660886        1.61700141033082
H           -0.15287506285537       -1.47511277395690        1.52501351779269
H            0.03146950312211        2.53252899735111        2.22447849628258
H           -2.35371096199723        2.94249826717072        2.66427588005593
H           -0.95918111874539       -0.56486589023855       -0.56266208925792
H           -5.27061948885934       -1.73087896411567       -1.96879097699588
H           -5.67525272805635       -1.28687505981392       -4.34731370687358
H           -4.61656503643755        0.65629438844034       -5.44544663563059
H           -3.16417388747416        2.15991384339943       -4.12988439588273
H           -2.77196858026421        1.72655703313107       -1.74849098728741
H           -2.52255412110494       -2.21751996677274       -1.61284913122215
H           -2.20857871860722       -4.57756847298724       -1.02455939970853
H           -3.18757553795991       -5.47973397229156        1.05764917946063
H           -4.46184774136221       -3.98466322239402        2.55469002303430
H           -4.76687230546125       -1.62091315239569        1.97244168304250
H           -6.68626192255617       -0.55535935975728       -0.27244474140075
H           -8.23482107232474        0.83560192397919        1.05078765860593
H           -7.38128576512145        2.57505844928662        2.55712236820356
H           -4.95124641917804        2.96712946606158        2.77126209490023
H            0.41552825372145        3.23109510684188       -0.08147721277327
H            1.91420300830646        5.11562518549848       -0.53038003150658
H            4.37070209625797        4.78003348588378       -0.47309015280100
H            5.28658660153380        2.54116579886761       -0.11354120814987
H            5.39955864020416        0.98141179148562       -1.94602907897875
H            7.79818404100982        0.57935461178785       -2.29572689267070

          :  Hamiltonian                  GFN2-xTB          :
         :: gradient norm              0.000113812962 Eh/a0 ::
         :: HOMO-LUMO gap              0.835361136424 eV    ::
         :: SCC energy              -118.443378038147 Eh    ::
         :: -> dispersion             -0.114054623784 Eh    ::
         :: -> Gsolv                  -0.050358988003 Eh    ::
         :: repulsion energy           2.281007258732 Eh    ::

    * Orbital Energies and Occupations

         #    Occupation            Energy/Eh            Energy/eV
      -------------------------------------------------------------
         1        2.0000           -0.6634372             -18.0530
       ...           ...                  ...                  ...
        98        2.0000           -0.4137003             -11.2574
        99        2.0000           -0.4115875             -11.1999
       100        2.0000           -0.4063256             -11.0567
       101        2.0000           -0.4061541             -11.0520
       102        2.0000           -0.4060778             -11.0499
       103        2.0000           -0.4045527             -11.0084
       104        2.0000           -0.4035720             -10.9818
       105        2.0000           -0.3985510             -10.8451
       106        2.0000           -0.3973911             -10.8136
       107        2.0000           -0.3913089             -10.6481
       108        2.0000           -0.3823137             -10.4033
       109        1.0000           -0.3555829              -9.6759
       110        1.0000           -0.2972143              -8.0876 (HOMO)
       111                         -0.2665154              -7.2523 (LUMO)
       112                         -0.2557046              -6.9581
       113                         -0.2357423              -6.4149
       114                         -0.2334045              -6.3513
       115                         -0.2312916              -6.2938
       116                         -0.2308588              -6.2820
       117                         -0.2276551              -6.1948
       118                         -0.2254344              -6.1344
       119                         -0.2216819              -6.0323
       120                         -0.2192242              -5.9654
       121                         -0.2170522              -5.9063
       ...                                ...                  ...
       217                          1.1613174              31.6011
      -------------------------------------------------------------
                  HL-Gap            0.0306988 Eh            0.8354 eV

     #   Z          covCN         q      C6AA      α(0)
     1   7 N        0.911    -0.298    27.677     7.609
     2   6 C        1.911     0.113    28.313     8.593
     3   6 C        2.972     0.005    27.902     8.664
     4   6 C        2.921    -0.023    28.571     8.766
     5   6 C        2.921    -0.030    28.756     8.794
     6   6 C        2.972     0.020    27.559     8.611
     7   6 C        2.972    -0.005    28.137     8.701
     8   6 C        2.977     0.009    27.811     8.650
     9   6 C        2.921    -0.035    28.866     8.811
    10   6 C        2.914    -0.030    28.761     8.794
    11   6 C        2.914    -0.028    28.690     8.783
    12   6 C        2.921    -0.034    28.856     8.809
    13   6 C        2.977     0.011    27.773     8.645
    14   6 C        2.973    -0.008    28.204     8.711
    15   6 C        2.975     0.014    27.697     8.633
    16   6 C        2.924    -0.035    28.867     8.811
    17   6 C        2.911    -0.035    28.866     8.810
    18   6 C        3.035     0.001    27.976     8.676
    19   6 C        3.052     0.005    27.860     8.657
    20   6 C        2.918    -0.037    28.913     8.818
    21   6 C        3.946     0.008    20.375     6.414
    22   6 C        2.979     0.017    27.629     8.622
    23   6 C        2.924    -0.034    28.845     8.808
    24   6 C        2.919    -0.031    28.771     8.796
    25   6 C        2.919    -0.033    28.825     8.804
    26   6 C        2.920    -0.031    28.769     8.796
    27   6 C        2.923    -0.036    28.898     8.816
    28   6 C        2.979     0.017    27.634     8.623
    29   6 C        2.924    -0.034    28.837     8.806
    30   6 C        2.919    -0.030    28.756     8.794
    31   6 C        2.919    -0.033    28.817     8.803
    32   6 C        2.919    -0.031    28.767     8.795
    33   6 C        2.923    -0.036    28.897     8.815
    34   6 C        3.058     0.005    27.857     8.656
    35   6 C        2.914    -0.034    28.840     8.806
    36   6 C        2.922    -0.032    28.800     8.801
    37   6 C        2.920    -0.033    28.819     8.803
    38   6 C        2.914    -0.035    28.861     8.809
    39   6 C        3.034     0.001    27.971     8.675
    40   6 C        2.977     0.010    27.778     8.645
    41   6 C        2.921    -0.035    28.881     8.813
    42   6 C        2.914    -0.028    28.710     8.786
    43   6 C        2.914    -0.031    28.768     8.795
    44   6 C        2.921    -0.035    28.867     8.811
    45   6 C        2.977     0.009    27.811     8.650
    46   6 C        2.921    -0.030    28.755     8.794
    47   6 C        2.921    -0.023    28.572     8.766
    48   1 H        0.926     0.036     2.504     2.474
    49   1 H        0.926     0.043     2.403     2.424
    50   1 H        0.926     0.037     2.485     2.465
    51   1 H        0.926     0.034     2.526     2.485
    52   1 H        0.926     0.035     2.523     2.484
    53   1 H        0.926     0.037     2.486     2.466
    54   1 H        0.926     0.037     2.485     2.465
    55   1 H        0.926     0.037     2.494     2.469
    56   1 H        0.926     0.036     2.503     2.474
    57   1 H        0.926     0.032     2.564     2.504
    58   1 H        0.926     0.032     2.564     2.504
    59   1 H        0.926     0.031     2.572     2.508
    60   1 H        0.926     0.031     2.572     2.508
    61   1 H        0.926     0.029     2.599     2.521
    62   1 H        0.926     0.031     2.571     2.507
    63   1 H        0.926     0.031     2.566     2.505
    64   1 H        0.926     0.031     2.573     2.508
    65   1 H        0.926     0.031     2.574     2.509
    66   1 H        0.926     0.029     2.600     2.521
    67   1 H        0.926     0.032     2.561     2.503
    68   1 H        0.926     0.033     2.548     2.496
    69   1 H        0.926     0.033     2.549     2.497
    70   1 H        0.926     0.034     2.528     2.486
    71   1 H        0.926     0.039     2.462     2.454
    72   1 H        0.926     0.035     2.513     2.479
    73   1 H        0.926     0.034     2.532     2.488
    74   1 H        0.926     0.037     2.492     2.469
    75   1 H        0.926     0.044     2.402     2.423
    76   1 H        0.926     0.036     2.504     2.474

molecular dipole:
                 x           y           z       tot (Debye)
 q only:       -3.021       0.420       0.379
   full:       -3.403       0.477       0.437       8.804

 projected vibrational frequencies (cm⁻¹)
eigval :       -0.00    -0.00    -0.00     0.00     0.00     0.00
eigval :        9.00    13.22    23.33    31.77    39.86    42.95
eigval :       45.04    51.39    55.72    62.80    72.60    81.90
eigval :       83.07    91.62   123.37   125.60   129.79   133.39
eigval :      142.36   153.84   181.22   209.69   211.67   222.17
eigval :      232.25   241.93   254.31   260.56   274.44   275.61
eigval :      292.96   320.44   334.11   336.20   366.28   369.92
eigval :      370.12   376.28   387.82   394.45   398.42   412.46
eigval :      426.40   440.23   445.47   456.94   459.65   470.84
eigval :      486.83   499.49   509.09   518.89   530.68   532.72
eigval :      548.09   572.82   583.16   584.34   588.09   588.73
eigval :      592.65   596.97   610.03   619.80   629.30   637.95
eigval :      646.02   669.56   670.72   675.94   683.82   688.18
eigval :      691.45   709.12   720.75   723.71   749.92   751.97
eigval :      757.03   762.64   763.63   773.83   783.55   811.80
eigval :      829.04   849.66   857.16   864.21   875.57   878.09
eigval :      879.26   882.76   886.68   893.26   894.56   901.43
eigval :      903.46   905.14   906.21   907.28   912.14   915.07
eigval :      919.99   920.98   923.95   925.21   926.60   928.78
eigval :      932.36   932.44   933.13   934.74   945.54   982.50
eigval :      994.96  1001.04  1008.37  1014.39  1076.30  1084.95
eigval :     1087.32  1102.60  1105.05  1106.33  1116.29  1122.89
eigval :     1123.64  1125.83  1133.55  1150.19  1163.80  1173.67
eigval :     1177.70  1179.08  1180.73  1181.17  1182.89  1186.26
eigval :     1193.82  1200.53  1204.27  1207.18  1226.78  1230.68
eigval :     1235.72  1238.38  1241.65  1253.20  1255.74  1262.67
eigval :     1281.29  1284.46  1285.44  1287.11  1301.79  1303.11
eigval :     1310.94  1314.83  1320.08  1321.42  1334.39  1349.86
eigval :     1356.46  1364.69  1378.86  1406.59  1408.61  1416.95
eigval :     1418.48  1426.71  1431.10  1434.95  1442.14  1458.53
eigval :     1465.43  1471.96  1474.98  1475.67  1493.10  1498.60
eigval :     1526.02  1526.37  1545.59  1547.17  1561.58  1572.71
eigval :     1584.14  1586.43  1588.54  1596.20  1598.84  1600.91
eigval :     2322.06  3067.17  3067.56  3069.36  3069.72  3070.54
eigval :     3075.02  3075.53  3076.44  3076.75  3077.20  3077.36
eigval :     3077.78  3078.16  3081.60  3082.38  3084.58  3085.31
eigval :     3085.76  3086.74  3087.05  3088.37  3089.18  3089.26
eigval :     3089.88  3091.69  3095.40  3095.94  3099.03  3100.26

   temp. (K)  partition function   enthalpy   heat capacity  entropy
                                   cal/mol     cal/K/mol   cal/K/mol   J/K/mol
 298.15  VIB  0.252E+17            21544.416    137.965    133.735
         ROT  0.688E+08              888.752      2.981     38.844
         INT  0.173E+25            22433.168    140.946    172.579
         TR   0.141E+29             1481.254      4.968     45.017
         TOT                       23914.4223   145.9137   217.5958   910.4210

       T/K    H(0)-H(T)+PV         H(T)/Eh          T*S/Eh         G(T)/Eh
   ------------------------------------------------------------------------
    298.15    0.381101E-01    0.618910E+00    0.103387E+00    0.515523E+00
   ------------------------------------------------------------------------

         :::::::::::::::::::::::::::::::::::::::::::::::::::::
         ::                  THERMODYNAMIC                  ::
         :::::::::::::::::::::::::::::::::::::::::::::::::::::
         :: total free energy        -115.646847724302 Eh   ::
         ::.................................................::
         :: total energy             -116.162370775721 Eh   ::
         :: zero point energy           0.580799799693 Eh   ::
         :: G(RRHO) w/o ZPVE           -0.065276748274 Eh   ::
         :: G(RRHO) contrib.            0.515523051419 Eh   ::
         :::::::::::::::::::::::::::::::::::::::::::::::::::::

           -------------------------------------------------
          | TOTAL ENERGY             -116.162370775721 Eh   |
          | TOTAL ENTHALPY           -115.543460918295 Eh   |
          | TOTAL FREE ENERGY        -115.646847724302 Eh   |
          | GRADIENT NORM               0.000113921484 Eh/α |
          | HOMO-LUMO GAP               0.835357961484 eV   |
           -------------------------------------------------

 * finished run on 2025/09/12 at 05:49:16.270
