   * xtb version 6.7.1 (edcfbbe) compiled by 'albert@albert-system' on 2024-07-22

   ID    Z sym.   atoms
    1    6 C      1-6, 8-13, 15-26, 28-33, 35-42
    2    7 N      7, 27
    3    8 O      14, 34
    4    1 H      43-66

          program call               : xtb data2507/toluene/DPE/DPE_toluene_T1_crest.xyz --gfn 2 --uhf 2 --gbsa toluene --ohess vtight --parallel 40 --molden --ceasefiles --namespace data2507/toluene/DPE/DPE_toluene_T1_finalOpt
      * Solvation model:               GBSA
        Solvent                        toluene
        Solvent mass                       9.2140E+01 g/mol
          :  Hamiltonian                  GFN2-xTB          :
 * total energy  :  -107.5399447 Eh     change       -0.2228759E-08 Eh
 * total energy  :  -107.5399732 Eh     change       -0.2848347E-04 Eh
 * total energy  :  -107.5399838 Eh     change       -0.1059900E-04 Eh
 * total energy  :  -107.5399878 Eh     change       -0.4034190E-05 Eh
 * total energy  :  -107.5399904 Eh     change       -0.2605309E-05 Eh
 * total energy  :  -107.5399911 Eh     change       -0.7094815E-06 Eh
 * total energy  :  -107.5399918 Eh     change       -0.7185827E-06 Eh
 * total energy  :  -107.5399927 Eh     change       -0.8279345E-06 Eh
 * total energy  :  -107.5399934 Eh     change       -0.7307109E-06 Eh
 * total energy  :  -107.5399939 Eh     change       -0.5333908E-06 Eh
 * total energy  :  -107.5399973 Eh     change       -0.1384479E-05 Eh
 * total energy  :  -107.5399984 Eh     change       -0.1113986E-05 Eh
 * total energy  :  -107.5399991 Eh     change       -0.6660356E-06 Eh
 * total energy  :  -107.5399997 Eh     change       -0.5542832E-06 Eh
 * total energy  :  -107.5400003 Eh     change       -0.6073754E-06 Eh
 * total energy  :  -107.5400009 Eh     change       -0.6772574E-06 Eh
 * total energy  :  -107.5400016 Eh     change       -0.6666645E-06 Eh
 * total energy  :  -107.5400022 Eh     change       -0.5788224E-06 Eh
 * total energy  :  -107.5400022 Eh     change       -0.3573561E-08 Eh
   *** GEOMETRY OPTIMIZATION CONVERGED AFTER 22 ITERATIONS ***

 final structure:
================
66
 xtb: 6.7.1 (edcfbbe)
C            0.61713964151455       -0.04277189033403       -0.01088490692277
C           -0.61712009680611       -0.04228844552418       -0.01377152418954
C           -1.98582959082426       -0.03694107053168       -0.01504761149594
C           -2.72665815208083       -0.01915370743060        1.20574193101007
C           -4.09052960556319       -0.01920220015875        1.19871111075010
C           -4.80242835954471       -0.01713974355703       -0.01647420081345
N           -6.21126350206671       -0.00554422945301       -0.01502552307475
C           -6.91458402045825        1.04117429838438       -0.60256680353604
C           -6.27362605772439        2.14013395803586       -1.17358965918385
C           -7.00280660763234        3.16155349722312       -1.75577230669176
C           -8.38615470771622        3.11805884116574       -1.76968978257530
C           -9.04314650459292        2.05422080383774       -1.17216978328928
C           -8.31948148914732        1.02894133967232       -0.58707726537481
O           -9.03529566750935        0.03062898465135        0.01930126929091
C           -8.33115604347464       -0.98916504698166        0.60307742845068
C           -9.06594173159310       -1.99836685931947        1.20196283609459
C           -8.42150519325143       -3.08169584425075        1.77786245216195
C           -7.04052853574621       -3.16124586155098        1.72755667753720
C           -6.30026668992142       -2.15558961086099        1.13229002576352
C           -6.92715763560706       -1.03727970971363        0.58340487849660
C           -4.08965509272837       -0.02771134899532       -1.23089504839189
C           -2.72574364734209       -0.04719781098245       -1.23645508644370
C            1.98584616279133       -0.03782437278963       -0.00706183820437
C            2.72992029296779       -0.02102883914560       -1.22586210798835
C            4.09389073061881       -0.01946066327239       -1.21537242947238
C            4.80242374815739       -0.01539752490338        0.00164274732522
N            6.21120416787794        0.00051563982257        0.00664828324659
C            6.90623545666802        1.04883470406205        0.60113120686697
C            6.25693729204187        2.15074159935183        1.15698005151237
C            6.97734399135176        3.17376375995210        1.74707298958539
C            8.36023591136881        3.12879913638127        1.78447573302104
C            9.02603385349972        2.06209142974768        1.20196045882222
C            8.31113148860432        1.03523940506939        0.60895342895202
O            9.03547680763918        0.03344221061059        0.01875185655885
C            8.33963995535903       -0.98431517451279       -0.57843609768489
C            9.08334689377831       -1.99370832413279       -1.16591544962160
C            8.44762293544415       -3.07509191803890       -1.75492259310682
C            7.06586489360603       -3.15226435765853       -1.72960144709890
C            6.31670051873014       -2.14677381354505       -1.14514709733047
C            6.93539788883369       -1.03065972152770       -0.58277861904686
C            4.08628855551476       -0.02536969222563        1.21422355133643
C            2.72251034193266       -0.04639961219932        1.21634754483534
H           -2.18200561702765        0.00483215653291        2.13862047106029
H           -4.64258715602520        0.00931109670643        2.12815346951689
H           -5.19721951280866        2.19359846970163       -1.14965671232950
H           -6.48071358069307        3.99748800391382       -2.19513287371354
H           -8.95605124361945        3.91150750786791       -2.22650526988491
H          -10.11992477661708        2.00149866857538       -1.14124007551675
H          -10.14142814988977       -1.91766860828968        1.19935532613263
H           -8.99989300046361       -3.86246346889581        2.24573259669823
H           -6.52944379577970       -4.01317326270815        2.14880164547013
H           -5.22642406259008       -2.23589744376068        1.08073001631344
H           -4.64091336308236       -0.05052334136103       -2.16094590053592
H           -2.18058261538577       -0.07996829398642       -2.16877233998273
H            2.18764391445486        0.00139935875394       -2.16016922260962
H            4.64812172254284        0.00948373560884       -2.14348829688735
H            5.18109423396505        2.20497724982789        1.11510607804403
H            6.44884816874305        4.01195303928718        2.17428106464828
H            8.92326826943415        3.92341174686771        2.24773406189373
H           10.10311899005467        2.00816173126237        1.18938580312022
H           10.15873620492239       -1.91465978076466       -1.14398237852220
H            9.03300546476127       -3.85599897011027       -2.21377463384021
H            6.56095474995771       -4.00231811703723       -2.16194116600491
H            5.24206265726851       -2.22598565822692       -1.11240953393346
H            4.63530087465684       -0.04579708577800        2.14567490280653
H            2.17499594344929       -0.07857915635644        2.14729894427589

          :  Hamiltonian                  GFN2-xTB          :
         :: gradient norm              0.000051829868 Eh/a0 ::
         :: HOMO-LUMO gap              0.377141394765 eV    ::
         :: SCC energy              -109.478432030377 Eh    ::
         :: -> dispersion             -0.086884160991 Eh    ::
         :: -> Gsolv                  -0.045321547134 Eh    ::
         :: repulsion energy           1.938429845704 Eh    ::

    * Orbital Energies and Occupations

         #    Occupation            Energy/Eh            Energy/eV
      -------------------------------------------------------------
         1        2.0000           -0.7425808             -20.2067
       ...           ...                  ...                  ...
        88        2.0000           -0.4206383             -11.4462
        89        2.0000           -0.4202048             -11.4344
        90        2.0000           -0.4201833             -11.4338
        91        2.0000           -0.4046895             -11.0122
        92        2.0000           -0.4017483             -10.9321
        93        2.0000           -0.4017040             -10.9309
        94        2.0000           -0.3986559             -10.8480
        95        2.0000           -0.3960898             -10.7782
        96        2.0000           -0.3784421             -10.2979
        97        2.0000           -0.3631245              -9.8811
        98        1.9801           -0.3503100              -9.5324
        99        1.0199           -0.3429079              -9.3310
       100        0.9990           -0.2618258              -7.1246 (HOMO)
       101        0.0005           -0.2479656              -6.7475 (LUMO)
       102        0.0005           -0.2479648              -6.7475
       103                         -0.2373820              -6.4595
       104                         -0.2373810              -6.4595
       105                         -0.2258194              -6.1449
       106                         -0.2226278              -6.0580
       107                         -0.2136831              -5.8146
       108                         -0.2136820              -5.8146
       109                         -0.2116505              -5.7593
       110                         -0.2041015              -5.5539
       111                         -0.1982125              -5.3936
       ...                                ...                  ...
       192                          1.3963426              37.9964
      -------------------------------------------------------------
                  HL-Gap            0.0138602 Eh            0.3772 eV

     #   Z          covCN         q      C6AA      α(0)
     1   6 C        1.982    -0.063    32.758     9.243
     2   6 C        1.982    -0.063    32.758     9.243
     3   6 C        2.963     0.014    27.699     8.633
     4   6 C        2.920    -0.042    29.055     8.839
     5   6 C        2.911    -0.044    29.084     8.843
     6   6 C        2.920     0.028    27.381     8.581
     7   7 N        2.750    -0.038    21.968     6.961
     8   6 C        2.924     0.044    27.003     8.522
     9   6 C        2.922    -0.054    29.335     8.882
    10   6 C        2.918    -0.035    28.864     8.810
    11   6 C        2.919    -0.035    28.878     8.812
    12   6 C        2.918    -0.056    29.386     8.889
    13   6 C        2.884     0.126    25.231     8.235
    14   8 O        1.709    -0.249    18.132     5.749
    15   6 C        2.884     0.126    25.231     8.235
    16   6 C        2.918    -0.056    29.386     8.889
    17   6 C        2.919    -0.035    28.879     8.812
    18   6 C        2.918    -0.035    28.864     8.810
    19   6 C        2.922    -0.054    29.331     8.881
    20   6 C        2.924     0.044    27.004     8.522
    21   6 C        2.911    -0.044    29.086     8.844
    22   6 C        2.920    -0.043    29.056     8.840
    23   6 C        2.963     0.014    27.699     8.633
    24   6 C        2.920    -0.043    29.056     8.839
    25   6 C        2.911    -0.044    29.085     8.843
    26   6 C        2.920     0.028    27.381     8.581
    27   7 N        2.750    -0.038    21.968     6.961
    28   6 C        2.924     0.044    27.003     8.522
    29   6 C        2.922    -0.054    29.334     8.882
    30   6 C        2.918    -0.035    28.864     8.810
    31   6 C        2.919    -0.035    28.878     8.812
    32   6 C        2.918    -0.056    29.386     8.889
    33   6 C        2.884     0.126    25.231     8.235
    34   8 O        1.709    -0.249    18.132     5.749
    35   6 C        2.884     0.126    25.231     8.235
    36   6 C        2.918    -0.056    29.386     8.889
    37   6 C        2.919    -0.035    28.879     8.812
    38   6 C        2.918    -0.035    28.864     8.810
    39   6 C        2.922    -0.054    29.334     8.882
    40   6 C        2.924     0.044    27.003     8.522
    41   6 C        2.911    -0.044    29.085     8.843
    42   6 C        2.920    -0.042    29.056     8.839
    43   1 H        0.926     0.021     2.717     2.578
    44   1 H        0.925     0.024     2.677     2.559
    45   1 H        0.926     0.051     2.309     2.376
    46   1 H        0.926     0.048     2.342     2.393
    47   1 H        0.926     0.050     2.321     2.382
    48   1 H        0.926     0.055     2.256     2.349
    49   1 H        0.926     0.055     2.256     2.349
    50   1 H        0.926     0.050     2.321     2.383
    51   1 H        0.926     0.048     2.342     2.393
    52   1 H        0.926     0.051     2.312     2.378
    53   1 H        0.925     0.024     2.672     2.556
    54   1 H        0.926     0.021     2.716     2.577
    55   1 H        0.926     0.021     2.717     2.577
    56   1 H        0.925     0.024     2.674     2.557
    57   1 H        0.926     0.051     2.311     2.377
    58   1 H        0.926     0.048     2.342     2.393
    59   1 H        0.926     0.050     2.321     2.382
    60   1 H        0.926     0.055     2.256     2.349
    61   1 H        0.926     0.055     2.256     2.349
    62   1 H        0.926     0.050     2.321     2.383
    63   1 H        0.926     0.048     2.342     2.393
    64   1 H        0.926     0.051     2.311     2.377
    65   1 H        0.925     0.024     2.675     2.557
    66   1 H        0.926     0.021     2.717     2.578

molecular dipole:
                 x           y           z       tot (Debye)
 q only:        0.000       0.014      -0.004
   full:        0.000       0.015      -0.002       0.037

 projected vibrational frequencies (cm⁻¹)
eigval :       -0.00    -0.00    -0.00    -0.00     0.00     0.00
eigval :        9.83    10.80    18.94    24.79    25.87    39.55
eigval :       61.41    64.96    65.60    72.79    85.89    92.63
eigval :      106.65   119.19   119.85   126.35   187.51   194.04
eigval :      197.25   202.26   242.38   249.52   257.56   273.36
eigval :      274.70   278.68   297.74   333.54   360.55   373.28
eigval :      373.42   374.19   375.80   384.31   392.89   419.00
eigval :      420.46   420.81   435.57   436.27   441.96   448.66
eigval :      456.47   458.81   466.85   476.98   502.46   502.73
eigval :      526.90   527.11   530.01   537.23   538.11   581.69
eigval :      581.86   594.88   605.96   608.97   618.76   635.13
eigval :      637.63   657.00   663.48   665.38   666.69   666.74
eigval :      679.55   714.12   774.77   775.69   777.40   778.45
eigval :      786.19   787.25   790.67   798.78   820.44   828.62
eigval :      838.48   853.62   853.94   865.06   865.38   865.58
eigval :      866.44   897.39   897.67   897.86   898.45   900.92
eigval :      901.32   905.32   905.63   912.02   912.43   912.46
eigval :      912.95   916.93   917.91   919.02   919.90   981.60
eigval :      985.43  1085.16  1085.79  1086.23  1087.03  1109.30
eigval :     1109.86  1116.06  1117.15  1126.45  1129.97  1154.08
eigval :     1158.91  1168.01  1170.48  1171.15  1174.57  1180.97
eigval :     1186.06  1199.37  1204.28  1205.58  1214.31  1229.00
eigval :     1235.18  1236.04  1245.46  1250.79  1253.74  1254.91
eigval :     1296.07  1298.26  1300.29  1307.79  1310.91  1312.32
eigval :     1321.54  1323.45  1339.48  1344.17  1384.48  1384.83
eigval :     1387.16  1413.44  1413.51  1424.27  1438.31  1438.99
eigval :     1447.49  1447.68  1468.55  1468.95  1473.37  1476.61
eigval :     1513.70  1534.06  1549.93  1549.94  1556.19  1556.21
eigval :     1566.61  1571.26  1579.76  1583.76  1599.31  2144.37
eigval :     3060.73  3060.75  3062.84  3063.01  3077.09  3077.35
eigval :     3080.11  3081.30  3089.97  3091.32  3091.80  3091.92
eigval :     3099.54  3099.80  3100.08  3100.37  3109.60  3109.73
eigval :     3110.02  3110.09  3113.49  3113.50  3113.78  3113.91

   temp. (K)  partition function   enthalpy   heat capacity  entropy
                                   cal/mol     cal/K/mol   cal/K/mol   J/K/mol
 298.15  VIB  0.781E+15            19214.733    123.389    118.811
         ROT  0.920E+08              888.752      2.981     39.421
         INT  0.718E+23            20103.485    126.370    158.232
         TR   0.122E+29             1481.254      4.968     44.728
         TOT                       21584.7393   131.3381   202.9596   849.1830

       T/K    H(0)-H(T)+PV         H(T)/Eh          T*S/Eh         G(T)/Eh
   ------------------------------------------------------------------------
    298.15    0.343975E-01    0.526275E+00    0.964327E-01    0.429842E+00
   ------------------------------------------------------------------------

         :::::::::::::::::::::::::::::::::::::::::::::::::::::
         ::                  THERMODYNAMIC                  ::
         :::::::::::::::::::::::::::::::::::::::::::::::::::::
         :: total free energy        -107.110159712298 Eh   ::
         ::.................................................::
         :: total energy             -107.540002185373 Eh   ::
         :: zero point energy           0.491877660021 Eh   ::
         :: G(RRHO) w/o ZPVE           -0.062035186946 Eh   ::
         :: G(RRHO) contrib.            0.429842473075 Eh   ::
         :::::::::::::::::::::::::::::::::::::::::::::::::::::

           -------------------------------------------------
          | TOTAL ENERGY             -107.540002185373 Eh   |
          | TOTAL ENTHALPY           -107.013727053816 Eh   |
          | TOTAL FREE ENERGY        -107.110159712298 Eh   |
          | GRADIENT NORM               0.000051745541 Eh/α |
          | HOMO-LUMO GAP               0.377154962080 eV   |
           -------------------------------------------------

 * finished run on 2025/09/13 at 22:58:41.480
