   * xtb version 6.7.1 (edcfbbe) compiled by 'albert@albert-system' on 2024-07-22

   ID    Z sym.   atoms
    1    6 C      1-6, 8-13, 15-26, 28-33, 35-42
    2    7 N      7, 27
    3    8 O      14, 34
    4    1 H      43-66

          program call               : xtb data2507/toluene/DPE/DPE_toluene_S0_crest.xyz --gfn 2 --gbsa toluene --ohess vtight --parallel 40 --molden --ceasefiles --namespace data2507/toluene/DPE/DPE_toluene_S0_finalOpt
      * Solvation model:               GBSA
        Solvent                        toluene
        Solvent mass                       9.2140E+01 g/mol
          :  Hamiltonian                  GFN2-xTB          :
 * total energy  :  -107.6207557 Eh     change       -0.1308776E-07 Eh
 * total energy  :  -107.6208053 Eh     change       -0.4959549E-04 Eh
 * total energy  :  -107.6208275 Eh     change       -0.2217392E-04 Eh
 * total energy  :  -107.6208335 Eh     change       -0.5984640E-05 Eh
 * total energy  :  -107.6208403 Eh     change       -0.6851007E-05 Eh
 * total energy  :  -107.6208468 Eh     change       -0.6504642E-05 Eh
 * total energy  :  -107.6208528 Eh     change       -0.5992409E-05 Eh
 * total energy  :  -107.6208595 Eh     change       -0.6683763E-05 Eh
 * total energy  :  -107.6208671 Eh     change       -0.7588077E-05 Eh
 * total energy  :  -107.6208714 Eh     change       -0.4278902E-05 Eh
 * total energy  :  -107.6209182 Eh     change       -0.6732061E-06 Eh
 * total energy  :  -107.6209188 Eh     change       -0.6008605E-06 Eh
 * total energy  :  -107.6209193 Eh     change       -0.5216248E-06 Eh
 * total energy  :  -107.6209198 Eh     change       -0.4291578E-06 Eh
 * total energy  :  -107.6209201 Eh     change       -0.3464028E-06 Eh
 * total energy  :  -107.6209204 Eh     change       -0.2907423E-06 Eh
 * total energy  :  -107.6209207 Eh     change       -0.2676508E-06 Eh
 * total energy  :  -107.6209209 Eh     change       -0.2861950E-06 Eh
 * total energy  :  -107.6209209 Eh     change       -0.1949502E-08 Eh
   *** GEOMETRY OPTIMIZATION CONVERGED AFTER 44 ITERATIONS ***

 final structure:
================
66
 xtb: 6.7.1 (edcfbbe)
C            0.60418706007552        0.01594406603787       -0.01707388409665
C           -0.60431215723927        0.01630696434682       -0.01839613859321
C           -2.01469126887450        0.01418533577532       -0.01596795372677
C           -2.71778219972395        0.09764805758521        1.18924485812844
C           -4.09709150649829        0.09675354718964        1.19092091673977
C           -4.79940664644707        0.00364731267755       -0.00825925267478
N           -6.21437690701942       -0.00431171975782       -0.00325083333817
C           -6.93242163336736        1.04513915964009       -0.57869406487969
C           -6.30780004957722        2.15185383806174       -1.14115235418927
C           -7.05078517275172        3.17767603101900       -1.70626980500121
C           -8.42967261324767        3.12085781394641       -1.71027204028057
C           -9.07006693148910        2.03606842720205       -1.12739414559277
C           -8.33369194829851        1.01206473373518       -0.56225753504589
O           -9.04123250420310       -0.01593364025165        0.01953014167709
C           -8.31614395530655       -1.03853414948128        0.58900880182259
C           -9.03477351208746       -2.06896037245357        1.16524885208286
C           -8.37603828232271       -3.14877999083288        1.73682200085321
C           -6.99699014375876       -3.19436617534603        1.71004889714579
C           -6.27181850095823       -2.16204923659439        1.13381376277699
C           -6.91460986184521       -1.05998103686681        0.58277590434256
C           -4.10317512599121       -0.08290514904985       -1.21139320390342
C           -2.72375842123517       -0.07321174192246       -1.21729293869854
C            2.01457364053373        0.01392263270185       -0.01453499507901
C            2.72367810320037        0.08673357705118       -1.21681297389783
C            4.10310353821409        0.08784023488614       -1.21141793363178
C            4.79926889588623        0.00737744747243       -0.00780861876574
N            6.21427564090748        0.00382438944017       -0.00388345254007
C            6.92406661913211        1.05948018191795        0.57044476625098
C            6.29118923374916        2.17231435244695        1.11121336778458
C            7.02578735299787        3.20437582917348        1.67586971488377
C            8.40445350121086        3.14758194126569        1.70118311339213
C            9.05339830611023        2.05660057047701        1.13969680597155
C            8.32538444029059        1.02644083439058        0.57491002784827
O            9.04114064381646       -0.00786905004015        0.01482680908919
C            8.32426264568776       -1.03520108924509       -0.55659927389643
C            9.05127605135564       -2.07019659772185       -1.11378536873269
C            8.40101443637878       -3.15494867104732       -1.68570381397925
C            7.02172860322722       -3.20053400693583       -1.67867716263928
C            6.28813148179051       -2.16362937663344       -1.12160978528678
C            6.92275007135045       -1.05688256132945       -0.57052434454406
C            4.09691415586393       -0.06948356528973        1.19247109123578
C            2.71759347998338       -0.06185327632160        1.19121205448464
H           -2.17299409657479        0.17015151480967        2.11889905442404
H           -4.64213822861088        0.16849527871739        2.12091931530404
H           -5.23116135129773        2.21517426654955       -1.13248429642262
H           -6.53779864916451        4.02225142317582       -2.14054877171147
H           -9.01354080317868        3.91334678107576       -2.15145465949810
H          -10.14638194854754        1.96800787241012       -1.09764707439933
H          -10.11195239578840       -2.00974943827257        1.15325051375432
H           -8.94609141612787       -3.94627689469020        2.18695128566952
H           -6.46994877258740       -4.03492990709725        2.13511133205610
H           -5.19497759629007       -2.21653104237850        1.10773738000132
H           -4.65269055863278       -0.15916909976699       -2.13838824199954
H           -2.18359064259937       -0.14166440095843       -2.14996328641836
H            2.18355479235829        0.14978599594714       -2.14988500277649
H            4.65279788003698        0.15208631405668       -2.13921522082357
H            5.21478304263087        2.23535382788235        1.08601633459762
H            6.50650323567736        4.05373869373589        2.09295417837542
H            8.98177210476775        3.94485528601658        2.14235549686155
H           10.13002781259227        1.98827957743315        1.12683029787167
H           10.12815997793221       -2.01068345981483       -1.08652239254634
H            8.97762858563157       -3.95603037181068       -2.12084420396867
H            6.50106296448007       -4.04486734322511       -2.10416997006669
H            5.21104420163078       -2.21819133978781       -1.11050893858396
H            4.64186287364931       -0.13599442974047        2.12291162326419
H            2.17271717679587       -0.12238035249837        2.12167351983160

          :  Hamiltonian                  GFN2-xTB          :
         :: gradient norm              0.000035038670 Eh/a0 ::
         :: HOMO-LUMO gap              1.929804621204 eV    ::
         :: SCC energy              -109.578966234385 Eh    ::
         :: -> dispersion             -0.086692993217 Eh    ::
         :: -> Gsolv                  -0.045569902119 Eh    ::
         :: repulsion energy           1.958045290181 Eh    ::

    * Orbital Energies and Occupations

         #    Occupation            Energy/Eh            Energy/eV
      -------------------------------------------------------------
         1        2.0000           -0.7290595             -19.8387
       ...           ...                  ...                  ...
        87        2.0000           -0.4212181             -11.4619
        88        2.0000           -0.4173380             -11.3563
        89        2.0000           -0.4172953             -11.3552
        90        2.0000           -0.4154956             -11.3062
        91        2.0000           -0.4154926             -11.3061
        92        2.0000           -0.4122238             -11.2172
        93        2.0000           -0.4121693             -11.2157
        94        2.0000           -0.4079544             -11.1010
        95        2.0000           -0.3919934             -10.6667
        96        2.0000           -0.3904647             -10.6251
        97        2.0000           -0.3836289             -10.4391
        98        2.0000           -0.3432535              -9.3404
        99        2.0000           -0.3418782              -9.3030 (HOMO)
       100                         -0.2709592              -7.3732 (LUMO)
       101                         -0.2383222              -6.4851
       102                         -0.2383198              -6.4850
       103                         -0.2353099              -6.4031
       104                         -0.2353071              -6.4030
       105                         -0.2294166              -6.2427
       106                         -0.2294140              -6.2427
       107                         -0.2283885              -6.2148
       108                         -0.2152620              -5.8576
       109                         -0.2130357              -5.7970
       110                         -0.1962304              -5.3397
       ...                                ...                  ...
       192                          1.4244361              38.7609
      -------------------------------------------------------------
                  HL-Gap            0.0709190 Eh            1.9298 eV

     #   Z          covCN         q      C6AA      α(0)
     1   6 C        1.982    -0.040    32.124     9.153
     2   6 C        1.982    -0.040    32.124     9.153
     3   6 C        2.971     0.038    27.156     8.548
     4   6 C        2.926    -0.028    28.707     8.787
     5   6 C        2.920    -0.039    28.971     8.826
     6   6 C        2.920     0.064    26.562     8.452
     7   7 N        2.751    -0.076    22.724     7.080
     8   6 C        2.922     0.044    27.024     8.525
     9   6 C        2.924    -0.061    29.527     8.911
    10   6 C        2.919    -0.040    28.986     8.829
    11   6 C        2.919    -0.042    29.048     8.838
    12   6 C        2.919    -0.059    29.459     8.901
    13   6 C        2.882     0.121    25.333     8.251
    14   8 O        1.708    -0.276    18.579     5.820
    15   6 C        2.882     0.121    25.333     8.251
    16   6 C        2.919    -0.059    29.459     8.901
    17   6 C        2.919    -0.042    29.048     8.838
    18   6 C        2.919    -0.040    28.986     8.829
    19   6 C        2.924    -0.061    29.526     8.911
    20   6 C        2.922     0.043    27.025     8.525
    21   6 C        2.919    -0.039    28.972     8.827
    22   6 C        2.926    -0.028    28.707     8.787
    23   6 C        2.971     0.038    27.156     8.548
    24   6 C        2.926    -0.028    28.707     8.787
    25   6 C        2.919    -0.039    28.971     8.827
    26   6 C        2.920     0.064    26.562     8.452
    27   7 N        2.751    -0.076    22.724     7.080
    28   6 C        2.922     0.043    27.025     8.525
    29   6 C        2.924    -0.061    29.526     8.911
    30   6 C        2.919    -0.040    28.986     8.829
    31   6 C        2.919    -0.042    29.048     8.838
    32   6 C        2.919    -0.059    29.459     8.901
    33   6 C        2.882     0.121    25.333     8.251
    34   8 O        1.708    -0.276    18.579     5.820
    35   6 C        2.882     0.121    25.333     8.251
    36   6 C        2.919    -0.059    29.459     8.901
    37   6 C        2.919    -0.042    29.048     8.838
    38   6 C        2.919    -0.040    28.986     8.829
    39   6 C        2.924    -0.061    29.527     8.911
    40   6 C        2.922     0.044    27.025     8.525
    41   6 C        2.920    -0.039    28.971     8.826
    42   6 C        2.926    -0.028    28.707     8.787
    43   1 H        0.926     0.044     2.396     2.420
    44   1 H        0.926     0.041     2.431     2.438
    45   1 H        0.926     0.039     2.459     2.452
    46   1 H        0.926     0.040     2.450     2.448
    47   1 H        0.926     0.040     2.449     2.447
    48   1 H        0.926     0.045     2.379     2.412
    49   1 H        0.926     0.045     2.379     2.412
    50   1 H        0.926     0.040     2.449     2.447
    51   1 H        0.926     0.040     2.450     2.448
    52   1 H        0.926     0.039     2.460     2.453
    53   1 H        0.926     0.041     2.429     2.437
    54   1 H        0.926     0.044     2.395     2.420
    55   1 H        0.926     0.044     2.395     2.420
    56   1 H        0.926     0.041     2.429     2.437
    57   1 H        0.926     0.039     2.460     2.453
    58   1 H        0.926     0.040     2.450     2.448
    59   1 H        0.926     0.040     2.449     2.447
    60   1 H        0.926     0.045     2.379     2.412
    61   1 H        0.926     0.045     2.379     2.412
    62   1 H        0.926     0.040     2.449     2.447
    63   1 H        0.926     0.040     2.450     2.448
    64   1 H        0.926     0.039     2.459     2.452
    65   1 H        0.926     0.041     2.431     2.438
    66   1 H        0.926     0.044     2.396     2.420

molecular dipole:
                 x           y           z       tot (Debye)
 q only:       -0.001       0.007      -0.012
   full:       -0.001       0.007      -0.010       0.030

 projected vibrational frequencies (cm⁻¹)
eigval :       -0.00    -0.00    -0.00     0.00     0.00     0.00
eigval :        7.70     9.45    16.88    21.23    25.67    37.59
eigval :       51.63    55.05    58.31    61.79    65.14    92.78
eigval :      110.50   114.07   115.75   119.56   190.19   193.17
eigval :      194.29   207.96   245.37   252.11   256.19   269.13
eigval :      272.29   273.01   300.01   363.23   364.29   371.87
eigval :      372.61   376.60   390.73   394.81   403.44   419.61
eigval :      429.62   429.73   431.07   432.45   440.93   442.03
eigval :      456.55   468.27   496.47   504.29   509.73   509.83
eigval :      521.03   521.16   539.27   548.87   553.04   586.67
eigval :      587.38   595.82   612.69   615.21   623.17   657.68
eigval :      658.94   659.20   659.35   662.06   681.62   682.49
eigval :      688.00   724.87   777.79   777.91   777.98   778.14
eigval :      790.29   800.33   811.45   816.40   851.81   852.08
eigval :      853.08   861.79   861.87   863.13   863.14   869.08
eigval :      869.48   895.42   895.53   896.59   896.65   911.88
eigval :      912.00   913.53   913.57   914.57   914.65   916.89
eigval :      921.96   922.12   929.29   929.63   933.34  1012.11
eigval :     1022.37  1088.73  1089.14  1090.01  1090.39  1105.11
eigval :     1105.54  1117.14  1117.53  1128.78  1131.18  1159.56
eigval :     1169.95  1170.12  1173.43  1173.50  1179.19  1180.40
eigval :     1186.97  1191.38  1195.79  1196.88  1216.17  1222.65
eigval :     1241.31  1242.15  1259.05  1260.09  1260.84  1263.68
eigval :     1293.48  1303.58  1304.68  1304.79  1306.80  1308.73
eigval :     1334.65  1334.82  1345.14  1353.88  1362.78  1398.59
eigval :     1402.14  1422.04  1422.22  1440.86  1441.24  1467.89
eigval :     1481.13  1481.26  1495.28  1503.87  1505.52  1545.08
eigval :     1548.36  1565.40  1565.41  1578.48  1579.12  1579.13
eigval :     1586.43  1587.82  1591.00  1602.60  1602.70  2315.67
eigval :     3080.17  3080.22  3081.65  3081.83  3084.62  3086.12
eigval :     3086.15  3086.23  3091.62  3091.66  3093.73  3094.21
eigval :     3094.56  3094.59  3094.62  3094.67  3103.40  3103.46
eigval :     3103.75  3103.79  3107.69  3107.72  3108.56  3108.60

   temp. (K)  partition function   enthalpy   heat capacity  entropy
                                   cal/mol     cal/K/mol   cal/K/mol   J/K/mol
 298.15  VIB  0.298E+16            19136.606    121.440    119.440
         ROT  0.460E+08              888.752      2.981     38.045
         INT  0.137E+24            20025.358    124.421    157.485
         TR   0.122E+29             1481.254      4.968     44.728
         TOT                       21506.6122   129.3890   202.2129   846.0587

       T/K    H(0)-H(T)+PV         H(T)/Eh          T*S/Eh         G(T)/Eh
   ------------------------------------------------------------------------
    298.15    0.342730E-01    0.529237E+00    0.960779E-01    0.433159E+00
   ------------------------------------------------------------------------

         :::::::::::::::::::::::::::::::::::::::::::::::::::::
         ::                  THERMODYNAMIC                  ::
         :::::::::::::::::::::::::::::::::::::::::::::::::::::
         :: total free energy        -107.187761566712 Eh   ::
         ::.................................................::
         :: total energy             -107.620920943715 Eh   ::
         :: zero point energy           0.494964279402 Eh   ::
         :: G(RRHO) w/o ZPVE           -0.061804902399 Eh   ::
         :: G(RRHO) contrib.            0.433159377003 Eh   ::
         :::::::::::::::::::::::::::::::::::::::::::::::::::::

           -------------------------------------------------
          | TOTAL ENERGY             -107.620920943715 Eh   |
          | TOTAL ENTHALPY           -107.091683696183 Eh   |
          | TOTAL FREE ENERGY        -107.187761566712 Eh   |
          | GRADIENT NORM               0.000035035120 Eh/α |
          | HOMO-LUMO GAP               1.929804227294 eV   |
           -------------------------------------------------

 * finished run on 2025/09/13 at 22:54:58.227
