   * xtb version 6.7.1 (edcfbbe) compiled by 'albert@albert-system' on 2024-07-22

   ID    Z sym.   atoms
    1    6 C      1-6, 8-13, 15-26, 28-33, 35-42
    2    7 N      7, 27
    3    8 O      14, 34
    4    1 H      43-66

          program call               : xtb data2507/toluene/DPE/DPE_toluene_S0_finalOpt.xtbopt.xyz --gfn 2 --uhf 2 --gbsa toluene --ohess vtight --parallel 40 --molden --ceasefiles --namespace data2507/toluene/DPE/DPE_toluene_T1_preOpt
      * Solvation model:               GBSA
        Solvent                        toluene
        Solvent mass                       9.2140E+01 g/mol
          :  Hamiltonian                  GFN2-xTB          :
 * total energy  :  -107.5329834 Eh     change        0.9303577E-08 Eh
 * total energy  :  -107.5379586 Eh     change       -0.4975209E-02 Eh
 * total energy  :  -107.5395768 Eh     change       -0.1618265E-02 Eh
 * total energy  :  -107.5397036 Eh     change       -0.1267688E-03 Eh
 * total energy  :  -107.5398135 Eh     change       -0.1098561E-03 Eh
 * total energy  :  -107.5398564 Eh     change       -0.4293837E-04 Eh
 * total energy  :  -107.5398891 Eh     change       -0.3273837E-04 Eh
 * total energy  :  -107.5399157 Eh     change       -0.2650963E-04 Eh
 * total energy  :  -107.5399415 Eh     change       -0.2579398E-04 Eh
 * total energy  :  -107.5399577 Eh     change       -0.1624845E-04 Eh
 * total energy  :  -107.5399911 Eh     change       -0.3614073E-05 Eh
 * total energy  :  -107.5399934 Eh     change       -0.2324916E-05 Eh
 * total energy  :  -107.5399952 Eh     change       -0.1814441E-05 Eh
 * total energy  :  -107.5399968 Eh     change       -0.1571650E-05 Eh
 * total energy  :  -107.5399980 Eh     change       -0.1284534E-05 Eh
 * total energy  :  -107.5399985 Eh     change       -0.4626382E-06 Eh
 * total energy  :  -107.5399987 Eh     change       -0.2405089E-06 Eh
 * total energy  :  -107.5399991 Eh     change       -0.3115483E-06 Eh
 * total energy  :  -107.5399991 Eh     change       -0.5129394E-08 Eh
   *** GEOMETRY OPTIMIZATION CONVERGED AFTER 22 ITERATIONS ***

 final structure:
================
66
 xtb: 6.7.1 (edcfbbe)
C            0.61706613982598        0.01227124280381       -0.01299559676294
C           -0.61716960442188        0.01139897616891       -0.01256297389446
C           -1.98586796773539        0.00885067033076       -0.01033406742852
C           -2.72352189535537        0.01857371899709        1.21246382610394
C           -4.08735770065773        0.00402762407279        1.20915197551470
C           -4.80231865036845        0.00049810581386       -0.00412331764940
N           -6.21119821424341       -0.00479981230473       -0.00033238751025
C           -6.92677053486771        1.03440928410565       -0.58607784478381
C           -6.29865611150080        2.14680461512335       -1.14528452524688
C           -7.03932824084217        3.16035586896823       -1.72659199439931
C           -8.42169528999973        3.09495514413112       -1.75179825678192
C           -9.06653073399298        2.01744422407575       -1.16560505080242
C           -8.33134489792380        1.00010428819164       -0.58108286040846
O           -9.03552483944988       -0.01317668019799        0.01397454373429
C           -8.31945029692129       -1.02285008410893        0.60088706319155
C           -9.04255082356701       -2.04493251542050        1.19216421434166
C           -8.38532708429449       -3.11903216881457        1.77083699707625
C           -7.00293422214397       -3.17632223421853        1.73115105374074
C           -6.27431142808952       -2.15795747341195        1.14313419221165
C           -6.91473440716228       -1.04879670851878        0.59145926436488
C           -4.09278296538978        0.00166355612196       -1.22052748362497
C           -2.72882083754496       -0.00448785079978       -1.22984305180353
C            1.98577658240332        0.01184068707726       -0.01171078658815
C            2.72789023705117        0.01164037656558       -1.23179650949800
C            4.09182267296210       -0.00060568637385       -1.22333016103113
C            4.80220681371504        0.00784103168275       -0.00747532114213
N            6.21112108080119        0.00483327500497       -0.00463042153965
C            6.92128053434315        1.04998223034920        0.57704800841507
C            6.28786150601810        2.16882081087666        1.11714503784537
C            7.02292643077756        3.18825062125039        1.69521421849621
C            8.40489606911880        3.12221661883871        1.73625709820420
C            9.05533232768610        2.03801618906288        1.16885522306677
C            8.32578132196475        1.01481385063599        0.58754958332049
O            9.03542311670232       -0.00557490725599        0.01142016050007
C            8.32480038109485       -1.01978738333104       -0.57435795263361
C            9.05351917240674       -2.04756996425061       -1.14863433686723
C            8.40182033640303       -3.12614408262203       -1.72519404307135
C            7.01903228217668       -3.18189762692652       -1.70052966317052
C            6.28480562193724       -2.15800389397058       -1.12925493857868
C            6.92003424841325       -1.04467144503826       -0.58007079906086
C            4.08815357889761        0.01927962960038        1.20626396114465
C            2.72425515962070        0.01098133520908        1.21062403396946
H           -2.17658759147039        0.04638640450439        2.14389242821209
H           -4.63715693208765        0.02508925986685        2.14011925497297
H           -5.22337505580864        2.21658005870902       -1.11260186822727
H           -6.52727643052908        4.00737596068223       -2.15646842358088
H           -9.00046454253756        3.88211124684099       -2.20834363331787
H          -10.14255070578420        1.94766925393024       -1.14359802711087
H          -10.11913370060469       -1.98150628158145        1.18140769205951
H           -8.95469701618760       -3.90988927229066        2.23277003888529
H           -6.48142766586244       -4.02060956536018        2.15493932600342
H           -5.19901825238971       -2.22133102168038        1.09947595512528
H           -4.64646863618278       -0.02289633216842       -2.14909853675193
H           -2.18582385451303       -0.02887560104558       -2.16367946925052
H            2.18436249632351        0.03018054704990       -2.16545456038596
H            4.64498041835182        0.01317931939269       -2.15243538072963
H            5.21300945122407        2.23870011158993        1.07221407258755
H            6.50690608268920        4.04036148711590        2.10999422112911
H            8.97926156880997        3.91392863861633        2.19046393125966
H           10.13147506681687        1.96732366844889        1.15943986565835
H           10.12996664484601       -1.98489015838741       -1.12641723713247
H            8.97558882996469       -3.92140347279378       -2.17391912178444
H            6.50153744357235       -4.02942045134098       -2.12280476746324
H            5.20906024936409       -2.22024809733389       -1.09681215737232
H            4.63853595381824        0.00460492066099        2.13700681285954
H            2.17787384669852       -0.00561946546212        2.14264182524110

          :  Hamiltonian                  GFN2-xTB          :
         :: gradient norm              0.000045468799 Eh/a0 ::
         :: HOMO-LUMO gap              0.376634303479 eV    ::
         :: SCC energy              -109.478570852439 Eh    ::
         :: -> dispersion             -0.086886151929 Eh    ::
         :: -> Gsolv                  -0.045315665249 Eh    ::
         :: repulsion energy           1.938571786683 Eh    ::

    * Orbital Energies and Occupations

         #    Occupation            Energy/Eh            Energy/eV
      -------------------------------------------------------------
         1        2.0000           -0.7425872             -20.2068
       ...           ...                  ...                  ...
        88        2.0000           -0.4206493             -11.4465
        89        2.0000           -0.4202149             -11.4346
        90        2.0000           -0.4201854             -11.4338
        91        2.0000           -0.4046447             -11.0109
        92        2.0000           -0.4017557             -10.9323
        93        2.0000           -0.4017123             -10.9311
        94        2.0000           -0.3986663             -10.8483
        95        2.0000           -0.3961251             -10.7791
        96        2.0000           -0.3784394             -10.2979
        97        2.0000           -0.3630862              -9.8801
        98        1.9798           -0.3503071              -9.5323
        99        1.0202           -0.3429341              -9.3317
       100        0.9990           -0.2618174              -7.1244 (HOMO)
       101        0.0005           -0.2479761              -6.7478 (LUMO)
       102        0.0005           -0.2479688              -6.7476
       103                         -0.2373888              -6.4597
       104                         -0.2373843              -6.4596
       105                         -0.2257979              -6.1443
       106                         -0.2226325              -6.0581
       107                         -0.2136761              -5.8144
       108                         -0.2136738              -5.8144
       109                         -0.2116448              -5.7591
       110                         -0.2041032              -5.5539
       111                         -0.1982363              -5.3943
       ...                                ...                  ...
       192                          1.3965075              38.0009
      -------------------------------------------------------------
                  HL-Gap            0.0138413 Eh            0.3766 eV

     #   Z          covCN         q      C6AA      α(0)
     1   6 C        1.982    -0.063    32.759     9.243
     2   6 C        1.982    -0.063    32.759     9.243
     3   6 C        2.963     0.014    27.700     8.633
     4   6 C        2.920    -0.042    29.056     8.839
     5   6 C        2.911    -0.044    29.085     8.843
     6   6 C        2.920     0.028    27.381     8.581
     7   7 N        2.750    -0.038    21.968     6.961
     8   6 C        2.924     0.044    27.003     8.522
     9   6 C        2.922    -0.054    29.334     8.882
    10   6 C        2.918    -0.035    28.864     8.810
    11   6 C        2.919    -0.035    28.878     8.812
    12   6 C        2.918    -0.056    29.386     8.889
    13   6 C        2.884     0.126    25.231     8.235
    14   8 O        1.709    -0.249    18.132     5.749
    15   6 C        2.884     0.126    25.231     8.235
    16   6 C        2.918    -0.056    29.386     8.889
    17   6 C        2.919    -0.035    28.878     8.812
    18   6 C        2.918    -0.035    28.864     8.810
    19   6 C        2.922    -0.054    29.333     8.882
    20   6 C        2.924     0.044    27.003     8.522
    21   6 C        2.911    -0.044    29.085     8.843
    22   6 C        2.920    -0.043    29.056     8.839
    23   6 C        2.963     0.014    27.700     8.633
    24   6 C        2.920    -0.043    29.056     8.839
    25   6 C        2.911    -0.044    29.085     8.843
    26   6 C        2.920     0.028    27.381     8.581
    27   7 N        2.750    -0.038    21.968     6.961
    28   6 C        2.924     0.044    27.003     8.522
    29   6 C        2.922    -0.054    29.333     8.882
    30   6 C        2.918    -0.035    28.864     8.810
    31   6 C        2.919    -0.035    28.879     8.812
    32   6 C        2.918    -0.056    29.386     8.889
    33   6 C        2.884     0.126    25.231     8.235
    34   8 O        1.709    -0.249    18.132     5.749
    35   6 C        2.884     0.126    25.231     8.235
    36   6 C        2.918    -0.056    29.386     8.889
    37   6 C        2.919    -0.035    28.878     8.812
    38   6 C        2.918    -0.035    28.864     8.810
    39   6 C        2.922    -0.054    29.334     8.882
    40   6 C        2.924     0.044    27.003     8.522
    41   6 C        2.911    -0.044    29.085     8.843
    42   6 C        2.920    -0.042    29.056     8.839
    43   1 H        0.926     0.021     2.717     2.578
    44   1 H        0.925     0.024     2.675     2.558
    45   1 H        0.926     0.051     2.311     2.377
    46   1 H        0.926     0.048     2.342     2.393
    47   1 H        0.926     0.050     2.321     2.382
    48   1 H        0.926     0.055     2.256     2.349
    49   1 H        0.926     0.055     2.256     2.349
    50   1 H        0.926     0.050     2.321     2.382
    51   1 H        0.926     0.048     2.342     2.393
    52   1 H        0.926     0.051     2.311     2.377
    53   1 H        0.925     0.024     2.674     2.557
    54   1 H        0.926     0.021     2.717     2.578
    55   1 H        0.926     0.021     2.717     2.578
    56   1 H        0.925     0.024     2.674     2.557
    57   1 H        0.926     0.051     2.311     2.377
    58   1 H        0.926     0.048     2.342     2.393
    59   1 H        0.926     0.050     2.321     2.383
    60   1 H        0.926     0.055     2.256     2.349
    61   1 H        0.926     0.055     2.256     2.349
    62   1 H        0.926     0.050     2.321     2.382
    63   1 H        0.926     0.048     2.342     2.393
    64   1 H        0.926     0.051     2.311     2.377
    65   1 H        0.925     0.024     2.676     2.558
    66   1 H        0.926     0.021     2.717     2.578

molecular dipole:
                 x           y           z       tot (Debye)
 q only:       -0.002      -0.004       0.001
   full:       -0.001      -0.004       0.002       0.012

 projected vibrational frequencies (cm⁻¹)
eigval :       -0.00    -0.00    -0.00    -0.00    -0.00    -0.00
eigval :       10.68    10.90    19.33    25.07    26.18    39.68
eigval :       61.73    65.61    66.60    73.17    85.76    92.64
eigval :      106.86   119.20   119.70   126.30   187.49   194.00
eigval :      197.47   202.45   242.34   249.59   257.58   273.50
eigval :      274.85   278.58   297.81   333.57   360.56   373.23
eigval :      373.47   373.72   375.76   384.10   392.09   419.01
eigval :      420.51   420.71   435.28   436.26   441.85   448.51
eigval :      456.44   458.87   466.89   477.11   502.25   502.56
eigval :      526.90   527.01   529.82   537.35   538.18   581.71
eigval :      581.89   594.91   606.00   609.02   618.79   635.11
eigval :      637.62   657.05   663.62   665.28   666.38   666.67
eigval :      679.24   714.22   775.21   775.63   777.80   778.38
eigval :      786.03   787.06   791.00   799.00   819.93   828.44
eigval :      838.55   853.93   853.98   865.31   865.56   865.97
eigval :      866.38   897.58   897.73   898.10   898.52   901.07
eigval :      901.38   905.44   905.61   912.11   912.45   912.51
eigval :      912.69   917.10   917.36   919.17   919.30   981.65
eigval :      985.59  1085.78  1085.81  1086.44  1087.11  1110.01
eigval :     1110.10  1116.43  1117.43  1126.60  1130.13  1154.29
eigval :     1159.67  1168.39  1171.14  1171.37  1175.17  1181.68
eigval :     1186.39  1199.51  1205.54  1205.60  1214.26  1229.05
eigval :     1235.81  1236.33  1245.68  1250.98  1254.64  1255.00
eigval :     1296.26  1298.46  1300.39  1307.81  1310.97  1312.37
eigval :     1321.61  1323.52  1339.81  1344.19  1384.62  1385.07
eigval :     1387.27  1413.59  1413.68  1424.47  1438.42  1439.11
eigval :     1447.65  1447.72  1468.63  1469.03  1472.93  1476.85
eigval :     1513.84  1534.19  1550.03  1550.07  1556.24  1556.29
eigval :     1566.71  1571.31  1579.76  1583.88  1599.38  2144.57
eigval :     3060.76  3060.89  3062.90  3063.11  3077.18  3077.43
eigval :     3080.13  3081.35  3091.70  3091.81  3091.87  3092.02
eigval :     3099.93  3100.16  3100.20  3100.33  3109.68  3109.82
eigval :     3110.08  3110.15  3113.46  3113.49  3113.75  3113.81

   temp. (K)  partition function   enthalpy   heat capacity  entropy
                                   cal/mol     cal/K/mol   cal/K/mol   J/K/mol
 298.15  VIB  0.664E+15            19209.081    123.418    118.658
         ROT  0.230E+08              888.752      2.981     36.666
         INT  0.153E+23            20097.833    126.398    155.323
         TR   0.122E+29             1481.254      4.968     44.728
         TOT                       21579.0868   131.3666   200.0513   837.0145

       T/K    H(0)-H(T)+PV         H(T)/Eh          T*S/Eh         G(T)/Eh
   ------------------------------------------------------------------------
    298.15    0.343885E-01    0.526316E+00    0.950508E-01    0.431265E+00
   ------------------------------------------------------------------------

         :::::::::::::::::::::::::::::::::::::::::::::::::::::
         ::                  THERMODYNAMIC                  ::
         :::::::::::::::::::::::::::::::::::::::::::::::::::::
         :: total free energy        -107.108734112329 Eh   ::
         ::.................................................::
         :: total energy             -107.539999065102 Eh   ::
         :: zero point energy           0.491927306435 Eh   ::
         :: G(RRHO) w/o ZPVE           -0.060662353662 Eh   ::
         :: G(RRHO) contrib.            0.431264952773 Eh   ::
         :::::::::::::::::::::::::::::::::::::::::::::::::::::

           -------------------------------------------------
          | TOTAL ENERGY             -107.539999065102 Eh   |
          | TOTAL ENTHALPY           -107.013683294896 Eh   |
          | TOTAL FREE ENERGY        -107.108734112329 Eh   |
          | GRADIENT NORM               0.000045004636 Eh/α |
          | HOMO-LUMO GAP               0.376639990876 eV   |
           -------------------------------------------------

 * finished run on 2025/09/13 at 22:55:02.094
