   * xtb version 6.7.1 (edcfbbe) compiled by 'albert@albert-system' on 2024-07-22

   ID    Z sym.   atoms
    1    6 C      1-6, 8-13, 15-22, 24-29, 31-36, 38-47, 49, 50
    2    8 O      7, 37
    3    7 N      14, 23, 30, 48
    4    1 H      51-76

          program call               : xtb data2507/toluene/POZDBPHZ/POZDBPHZ_toluene_T1_crest.xyz --gfn 2 --uhf 2 --gbsa toluene --ohess vtight --parallel 40 --molden --ceasefiles --namespace data2507/toluene/POZDBPHZ/POZDBPHZ_toluene_T1_finalOpt
      * Solvation model:               GBSA
        Solvent                        toluene
        Solvent mass                       9.2140E+01 g/mol
          :  Hamiltonian                  GFN2-xTB          :
 * total energy  :  -127.3999811 Eh     change       -0.3072839E-07 Eh
 * total energy  :  -127.4000571 Eh     change       -0.7605478E-04 Eh
 * total energy  :  -127.4000915 Eh     change       -0.3435828E-04 Eh
 * total energy  :  -127.4000971 Eh     change       -0.5582096E-05 Eh
 * total energy  :  -127.4001000 Eh     change       -0.2959333E-05 Eh
 * total energy  :  -127.4001031 Eh     change       -0.3102239E-05 Eh
 * total energy  :  -127.4001075 Eh     change       -0.4376870E-05 Eh
 * total energy  :  -127.4001118 Eh     change       -0.4319023E-05 Eh
 * total energy  :  -127.4001138 Eh     change       -0.1990793E-05 Eh
 * total energy  :  -127.4001150 Eh     change       -0.1187895E-05 Eh
 * total energy  :  -127.4001212 Eh     change       -0.1038626E-05 Eh
 * total energy  :  -127.4001220 Eh     change       -0.7886112E-06 Eh
 * total energy  :  -127.4001229 Eh     change       -0.9294146E-06 Eh
 * total energy  :  -127.4001240 Eh     change       -0.1099136E-05 Eh
 * total energy  :  -127.4001248 Eh     change       -0.7616166E-06 Eh
 * total energy  :  -127.4001251 Eh     change       -0.3169412E-06 Eh
 * total energy  :  -127.4001254 Eh     change       -0.2972883E-06 Eh
 * total energy  :  -127.4001256 Eh     change       -0.2318705E-06 Eh
 * total energy  :  -127.4001256 Eh     change       -0.3037172E-08 Eh
   *** GEOMETRY OPTIMIZATION CONVERGED AFTER 22 ITERATIONS ***

 final structure:
================
76
 xtb: 6.7.1 (edcfbbe)
C            7.28314471312357       -4.07695902457619        1.69729371517126
C            6.10173253911374       -3.45166557169586        2.05302647255384
C            5.69127023154963       -2.30190843179364        1.39937267527561
C            6.45493187809786       -1.76090673164860        0.36895668666583
C            7.66278934291215       -2.39170045444563        0.02972065627044
C            8.06676361722230       -3.54039739171192        0.68715872361776
O            8.49278875874302       -1.90309320288617       -0.94709125917365
C            8.10686738029817       -0.75712921485223       -1.59517311581434
C            8.95465990982460       -0.27033584415316       -2.57463641461286
C            8.61808585910269        0.87342702270346       -3.28206798199757
C            7.42551176137784        1.51970656545879       -3.01102185850616
C            6.57275762518540        1.03865654429379       -2.03175869121797
C            6.90264100173799       -0.09771323730792       -1.29878978328791
N            6.07223095368285       -0.60978617625208       -0.30896873519091
C            4.84135841198434        0.02560379551948        0.00539681195497
C            3.63079495557631       -0.61087522182717       -0.33749820891111
C            2.43955645200753       -0.01169934885452       -0.03699723912327
C            2.39789944198653        1.23916981584683        0.60670996519989
C            3.61844837768500        1.88519175070499        0.94916767705058
C            3.58157458971172        3.13836116117953        1.59539809922512
C            2.39099955698286        3.73940789327731        1.89948213438896
C            1.16067356115430        3.13143530490202        1.57938843475113
N            0.00087600603681        3.72140506876149        1.88062984271759
C           -1.15905028569501        3.13299509344549        1.57688071898064
C           -2.38924514391497        3.74334695579973        1.89295119160201
C           -3.57997219358759        3.14357102206825        1.58696910432428
C           -3.61713511748057        1.88879092601103        0.94391435466346
C           -4.83109481507807        1.24888054587013        0.62912052334983
C           -4.84029550519323        0.02777482119737        0.00359447903161
N           -6.07167225149753       -0.60624399541371       -0.31231534845980
C           -6.89329254714313       -0.10050141707249       -1.31246288726826
C           -6.55264401995057        1.02624160530672       -2.05526939043424
C           -7.39691510738082        1.50150933573535       -3.04466078923076
C           -8.59148498138318        0.85893667429392       -3.31581489031587
C           -8.93873318209821       -0.27534235884233       -2.59827291343300
C           -8.09944876125882       -0.75641860688311       -1.60873687635954
O           -8.49544032366957       -1.89309651927251       -0.95038927695994
C           -7.67392042718848       -2.37537832906980        0.03675708085782
C           -8.08794115553304       -3.51445291098188        0.70454918252906
C           -7.31311014265751       -4.04385482454466        1.72522957296523
C           -6.13018466622379       -3.42124367474971        2.08068518709302
C           -5.70948507844675       -2.28122521318513        1.41653028740038
C           -6.46457477635264       -1.74746537005944        0.37610745678327
C           -3.63001337115245       -0.61216370570207       -0.33344825125235
C           -2.43861417563422       -0.01321506895927       -0.03295918553701
C           -2.39673718547397        1.24013662275018        0.60586203345100
C           -1.15754527645456        1.86217878456045        0.92003532056846
N            0.00059032759904        1.27793568510708        0.61190244081734
C            1.15887170608757        1.86141530555747        0.92101130552064
C            4.83226085120010        1.24440869234770        0.63552661384554
H            7.60345200329799       -4.97363556701417        2.20365887491551
H            5.49050514105646       -3.85380042946591        2.84607178566328
H            4.77387519564550       -1.81451604688899        1.68904458409762
H            8.99914275553015       -3.99668918910553        0.39438510984536
H            9.87118425026413       -0.80444798530470       -2.76948700144948
H            9.28443668413681        1.24767830865735       -4.04294650539682
H            7.14837807321557        2.40442710706328       -3.56306927160709
H            5.64078798324757        1.54329477694436       -1.83238260782793
H            3.66264429833731       -1.56705526517515       -0.83784006156718
H            1.50140729042453       -0.48028388810026       -0.29138577871564
H            4.51338010423176        3.62110248523572        1.85076844188142
H            2.35785386743191        4.69831723987509        2.39439997428666
H           -2.35588046681975        4.70310163199006        2.38621229735502
H           -4.51169102772966        3.62834416576740        1.83877246477223
H           -5.76248128742204        1.73258125180230        0.88730059894600
H           -5.61906016158378        1.52774112142897       -1.85534733848125
H           -7.11167368898383        2.37878719268119       -3.60439829019825
H           -9.25129690476089        1.22874937507666       -4.08452629845881
H           -9.85719000468598       -0.80625291448448       -2.79278212808963
H           -9.02109911925060       -3.96893183719737        0.41144992754775
H           -7.64145503733983       -4.93285930526997        2.23993416547510
H           -5.52581583370258       -3.81788568805945        2.88171003001996
H           -4.79087831417338       -1.79568337055441        1.70556217683551
H           -3.66216688572904       -1.57058932768541       -0.82945486793329
H           -1.50049931738559       -0.48413581321762       -0.28313251239182
H            5.76362928211222        1.72563554564493        0.89834075403486

          :  Hamiltonian                  GFN2-xTB          :
         :: gradient norm              0.000067226004 Eh/a0 ::
         :: HOMO-LUMO gap              0.704838144238 eV    ::
         :: SCC energy              -129.620742123706 Eh    ::
         :: -> dispersion             -0.108731492674 Eh    ::
         :: -> Gsolv                  -0.053943127941 Eh    ::
         :: repulsion energy           2.220616484511 Eh    ::

    * Orbital Energies and Occupations

         #    Occupation            Energy/Eh            Energy/eV
      -------------------------------------------------------------
         1        2.0000           -0.7406620             -20.1544
       ...           ...                  ...                  ...
       106        2.0000           -0.4209322             -11.4541
       107        2.0000           -0.4203231             -11.4376
       108        2.0000           -0.4139169             -11.2633
       109        2.0000           -0.4109884             -11.1836
       110        2.0000           -0.4072681             -11.0823
       111        2.0000           -0.3985946             -10.8463
       112        2.0000           -0.3985647             -10.8455
       113        2.0000           -0.3845011             -10.4628
       114        2.0000           -0.3829602             -10.4209
       115        1.8725           -0.3512513              -9.5580
       116        1.7862           -0.3506615              -9.5420
       117        1.3414           -0.3488001              -9.4913
       118        1.0000           -0.2978320              -8.1044 (HOMO)
       119        0.0000           -0.2719295              -7.3996 (LUMO)
       120                         -0.2491838              -6.7806
       121                         -0.2474027              -6.7322
       122                         -0.2471651              -6.7257
       123                         -0.2378021              -6.4709
       124                         -0.2371491              -6.4532
       125                         -0.2366068              -6.4384
       126                         -0.2237726              -6.0892
       127                         -0.2224709              -6.0537
       128                         -0.2130455              -5.7973
       129                         -0.2049013              -5.5756
       ...                                ...                  ...
       226                          0.7118714              19.3710
      -------------------------------------------------------------
                  HL-Gap            0.0259025 Eh            0.7048 eV

     #   Z          covCN         q      C6AA      α(0)
     1   6 C        2.919    -0.036    28.899     8.815
     2   6 C        2.918    -0.035    28.864     8.810
     3   6 C        2.922    -0.056    29.381     8.889
     4   6 C        2.924     0.045    26.980     8.518
     5   6 C        2.883     0.126    25.244     8.237
     6   6 C        2.918    -0.055    29.374     8.888
     7   8 O        1.709    -0.253    18.184     5.758
     8   6 C        2.883     0.126    25.244     8.237
     9   6 C        2.918    -0.055    29.372     8.887
    10   6 C        2.919    -0.036    28.901     8.816
    11   6 C        2.918    -0.035    28.862     8.810
    12   6 C        2.922    -0.056    29.389     8.890
    13   6 C        2.923     0.045    26.985     8.519
    14   7 N        2.752    -0.052    22.241     7.004
    15   6 C        2.918     0.056    26.745     8.481
    16   6 C        2.916    -0.047    29.166     8.856
    17   6 C        2.919    -0.028    28.697     8.785
    18   6 C        2.986    -0.014    28.354     8.735
    19   6 C        2.983     0.003    27.957     8.673
    20   6 C        2.914    -0.047    29.171     8.857
    21   6 C        2.915    -0.059    29.454     8.900
    22   6 C        2.941     0.085    26.111     8.381
    23   7 N        1.848    -0.271    27.877     7.825
    24   6 C        2.941     0.085    26.111     8.381
    25   6 C        2.915    -0.059    29.454     8.900
    26   6 C        2.914    -0.047    29.171     8.857
    27   6 C        2.983     0.003    27.957     8.673
    28   6 C        2.921    -0.047    29.157     8.855
    29   6 C        2.918     0.056    26.745     8.481
    30   7 N        2.752    -0.052    22.242     7.004
    31   6 C        2.923     0.045    26.985     8.519
    32   6 C        2.922    -0.056    29.389     8.890
    33   6 C        2.918    -0.035    28.862     8.810
    34   6 C        2.919    -0.036    28.901     8.816
    35   6 C        2.918    -0.055    29.372     8.887
    36   6 C        2.883     0.126    25.244     8.237
    37   8 O        1.709    -0.253    18.185     5.758
    38   6 C        2.883     0.126    25.244     8.237
    39   6 C        2.918    -0.055    29.374     8.888
    40   6 C        2.919    -0.036    28.899     8.815
    41   6 C        2.918    -0.035    28.864     8.810
    42   6 C        2.922    -0.056    29.381     8.889
    43   6 C        2.924     0.046    26.979     8.518
    44   6 C        2.916    -0.047    29.165     8.856
    45   6 C        2.919    -0.028    28.696     8.785
    46   6 C        2.986    -0.014    28.354     8.735
    47   6 C        2.945     0.082    26.176     8.391
    48   7 N        1.847    -0.259    27.588     7.784
    49   6 C        2.945     0.082    26.176     8.391
    50   6 C        2.921    -0.047    29.159     8.855
    51   1 H        0.926     0.050     2.325     2.385
    52   1 H        0.926     0.048     2.347     2.396
    53   1 H        0.926     0.046     2.376     2.411
    54   1 H        0.926     0.055     2.256     2.349
    55   1 H        0.926     0.055     2.255     2.348
    56   1 H        0.926     0.049     2.326     2.385
    57   1 H        0.926     0.048     2.350     2.397
    58   1 H        0.926     0.045     2.383     2.414
    59   1 H        0.926     0.042     2.419     2.432
    60   1 H        0.926     0.049     2.328     2.386
    61   1 H        0.926     0.037     2.487     2.466
    62   1 H        0.926     0.040     2.448     2.447
    63   1 H        0.926     0.040     2.448     2.447
    64   1 H        0.926     0.037     2.487     2.466
    65   1 H        0.926     0.042     2.416     2.431
    66   1 H        0.926     0.045     2.384     2.415
    67   1 H        0.926     0.048     2.350     2.397
    68   1 H        0.926     0.049     2.326     2.385
    69   1 H        0.926     0.055     2.255     2.348
    70   1 H        0.926     0.055     2.256     2.349
    71   1 H        0.926     0.050     2.325     2.385
    72   1 H        0.926     0.048     2.347     2.396
    73   1 H        0.926     0.045     2.377     2.411
    74   1 H        0.926     0.042     2.419     2.432
    75   1 H        0.926     0.049     2.328     2.386
    76   1 H        0.926     0.042     2.416     2.431

molecular dipole:
                 x           y           z       tot (Debye)
 q only:        0.001      -1.469      -0.719
   full:        0.001      -1.330      -0.652       3.764

 projected vibrational frequencies (cm⁻¹)
eigval :       -0.00    -0.00    -0.00    -0.00     0.00     0.00
eigval :        7.76    10.72    17.76    20.64    27.22    27.97
eigval :       40.38    46.59    51.90    63.93    71.34   103.84
eigval :      109.30   112.60   127.18   134.82   137.97   154.15
eigval :      162.82   179.37   194.17   229.15   237.53   246.12
eigval :      247.30   258.97   260.05   269.15   272.75   297.31
eigval :      327.74   341.03   353.30   371.93   373.52   385.30
eigval :      391.29   395.64   398.89   407.06   419.35   425.69
eigval :      429.01   429.28   429.95   438.57   456.22   457.40
eigval :      489.83   495.96   500.89   503.76   504.27   506.81
eigval :      514.50   518.36   519.11   526.74   527.79   549.16
eigval :      561.59   570.53   575.51   592.95   606.27   612.35
eigval :      619.99   640.27   641.81   660.41   663.29   664.16
eigval :      664.29   665.54   666.04   673.49   707.90   709.49
eigval :      713.42   755.33   764.03   764.16   775.98   776.54
eigval :      776.99   777.50   796.43   797.37   798.68   799.13
eigval :      820.22   820.65   849.78   853.11   853.51   853.65
eigval :      863.75   864.11   865.37   865.55   873.93   874.34
eigval :      880.76   882.02   897.66   898.36   899.54   900.13
eigval :      908.37   912.11   915.44   915.70   915.79   916.26
eigval :      916.54   917.54   987.88   989.91   995.25  1020.79
eigval :     1083.75  1084.59  1086.63  1086.90  1107.04  1108.88
eigval :     1109.05  1110.19  1115.01  1116.90  1143.07  1149.70
eigval :     1158.99  1161.03  1171.72  1172.02  1176.89  1178.19
eigval :     1190.34  1192.29  1200.96  1201.29  1209.78  1220.41
eigval :     1226.38  1229.24  1238.09  1238.35  1240.93  1247.98
eigval :     1254.91  1255.68  1269.54  1286.94  1289.70  1296.78
eigval :     1300.04  1308.00  1308.33  1317.68  1322.78  1325.31
eigval :     1334.03  1340.50  1347.61  1357.09  1378.04  1378.82
eigval :     1405.31  1418.67  1418.73  1421.83  1424.74  1440.63
eigval :     1440.92  1457.14  1457.27  1464.39  1468.67  1472.52
eigval :     1483.09  1489.50  1504.38  1515.05  1541.63  1544.47
eigval :     1559.92  1559.98  1568.51  1568.59  1574.56  1576.57
eigval :     1578.35  1580.20  1590.11  1592.47  3076.32  3076.46
eigval :     3078.52  3078.62  3086.16  3086.64  3090.10  3090.51
eigval :     3091.19  3091.54  3092.06  3092.16  3099.18  3099.21
eigval :     3099.27  3099.29  3099.70  3100.60  3106.51  3106.82
eigval :     3107.38  3107.41  3111.16  3111.29  3111.39  3111.82

   temp. (K)  partition function   enthalpy   heat capacity  entropy
                                   cal/mol     cal/K/mol   cal/K/mol   J/K/mol
 298.15  VIB  0.619E+17            21794.226    141.821    133.340
         ROT  0.130E+09              888.752      2.981     40.106
         INT  0.803E+25            22682.979    144.802    173.446
         TR   0.158E+29             1481.254      4.968     45.243
         TOT                       24164.2325   149.7702   218.6892   914.9956

       T/K    H(0)-H(T)+PV         H(T)/Eh          T*S/Eh         G(T)/Eh
   ------------------------------------------------------------------------
    298.15    0.385082E-01    0.600023E+00    0.103906E+00    0.496116E+00
   ------------------------------------------------------------------------

         :::::::::::::::::::::::::::::::::::::::::::::::::::::
         ::                  THERMODYNAMIC                  ::
         :::::::::::::::::::::::::::::::::::::::::::::::::::::
         :: total free energy        -126.904009141345 Eh   ::
         ::.................................................::
         :: total energy             -127.400125640195 Eh   ::
         :: zero point energy           0.561514642111 Eh   ::
         :: G(RRHO) w/o ZPVE           -0.065398143261 Eh   ::
         :: G(RRHO) contrib.            0.496116498850 Eh   ::
         :::::::::::::::::::::::::::::::::::::::::::::::::::::

           -------------------------------------------------
          | TOTAL ENERGY             -127.400125640195 Eh   |
          | TOTAL ENTHALPY           -126.800102842521 Eh   |
          | TOTAL FREE ENERGY        -126.904009141345 Eh   |
          | GRADIENT NORM               0.000069420008 Eh/α |
          | HOMO-LUMO GAP               0.704841824676 eV   |
           -------------------------------------------------

 * finished run on 2025/09/10 at 03:58:06.933
