   * xtb version 6.7.1 (edcfbbe) compiled by 'albert@albert-system' on 2024-07-22

   ID    Z sym.   atoms
    1    6 C      1-6, 8-13, 15-22, 24-29, 31-36, 38-47, 49, 50
    2    8 O      7, 37
    3    7 N      14, 23, 30, 48
    4    1 H      51-76

          program call               : xtb data2507/toluene/POZDBPHZ/POZDBPHZ_toluene_S0_finalOpt.xtbopt.xyz --gfn 2 --uhf 2 --gbsa toluene --ohess vtight --parallel 40 --molden --ceasefiles --namespace data2507/toluene/POZDBPHZ/POZDBPHZ_toluene_T1_preOpt
      * Solvation model:               GBSA
        Solvent                        toluene
        Solvent mass                       9.2140E+01 g/mol
          :  Hamiltonian                  GFN2-xTB          :
 * total energy  :  -127.3966566 Eh     change       -0.1465449E-07 Eh
 * total energy  :  -127.3990384 Eh     change       -0.2381776E-02 Eh
 * total energy  :  -127.3996907 Eh     change       -0.6523096E-03 Eh
 * total energy  :  -127.3997673 Eh     change       -0.7662078E-04 Eh
 * total energy  :  -127.3998133 Eh     change       -0.4600022E-04 Eh
 * total energy  :  -127.3998293 Eh     change       -0.1597048E-04 Eh
 * total energy  :  -127.3998436 Eh     change       -0.1429301E-04 Eh
 * total energy  :  -127.3998730 Eh     change       -0.2946475E-04 Eh
 * total energy  :  -127.3998899 Eh     change       -0.1691040E-04 Eh
 * total energy  :  -127.3999162 Eh     change       -0.2629620E-04 Eh
 * total energy  :  -127.4000414 Eh     change       -0.7306202E-06 Eh
 * total energy  :  -127.4000422 Eh     change       -0.8678656E-06 Eh
 * total energy  :  -127.4000431 Eh     change       -0.9195718E-06 Eh
 * total energy  :  -127.4000440 Eh     change       -0.8864070E-06 Eh
 * total energy  :  -127.4000448 Eh     change       -0.7651833E-06 Eh
 * total energy  :  -127.4000454 Eh     change       -0.6246648E-06 Eh
 * total energy  :  -127.4000459 Eh     change       -0.5056630E-06 Eh
 * total energy  :  -127.4000464 Eh     change       -0.4423935E-06 Eh
 * total energy  :  -127.4000464 Eh     change       -0.2837027E-08 Eh
   *** GEOMETRY OPTIMIZATION CONVERGED AFTER 44 ITERATIONS ***

 final structure:
================
76
 xtb: 6.7.1 (edcfbbe)
C            7.21607654742732       -4.16312531142188        1.53073269382022
C            6.03156981878462       -3.54711075482439        1.89223339809751
C            5.64231478632117       -2.36392467812796        1.28714203435751
C            6.43020944654310       -1.77934422555833        0.29963960268077
C            7.64085091851973       -2.40184897240872       -0.04492646435753
C            8.02382046122453       -3.58400266253971        0.56409174115312
O            8.49452320327705       -1.87239084103836       -0.97901690039530
C            8.12657996275996       -0.69709055520083       -1.58342746468476
C            8.99462270101216       -0.17376561637868       -2.52563699672716
C            8.67656896792477        1.00085521024776       -3.18967581789062
C            7.48201315873535        1.64120768727121       -2.91338301692655
C            6.60922051816292        1.12375156321100       -1.97107456899897
C            6.92041211365066       -0.04419806912722       -1.28078581286356
N            6.06921189664017       -0.59362682248743       -0.32923217657318
C            4.83903699434959        0.03781819456410       -0.00558214276728
C            3.62836707179611       -0.57778507984063       -0.38476467296244
C            2.43753626289062        0.01535225836819       -0.07139518580612
C            2.39625975140792        1.24023554943679        0.62052377503080
C            3.61677925498956        1.86780427724551        0.99565094279674
C            3.57975889006453        3.09655579741454        1.68727208341363
C            2.38917638983746        3.68903501622937        2.00805627318499
C            1.15881905825852        3.09531770347277        1.66239845822362
N           -0.00121806500606        3.67211032245243        1.98737547819603
C           -1.16097372867244        3.09327693584440        1.66502539001636
C           -2.39157168459292        3.68441190759468        2.01421337651295
C           -3.58183772322288        3.09020267965625        1.69546331057888
C           -3.61828708899515        1.86245295367305        1.00202925992950
C           -4.83132086891195        1.22587527606765        0.67696843766902
C           -4.83967165056662        0.03242860581879       -0.00027088584155
N           -6.06958868480757       -0.60017948749166       -0.32248526232956
C           -6.92477123268890       -0.04876109395528       -1.26933252164932
C           -6.61650697714233        1.12072042321502       -1.95835168233247
C           -7.49319104201474        1.64015517518136       -2.89594624873361
C           -8.68879750864555        1.00027730089073       -3.16878502816052
C           -9.00397191223562       -0.17588337116309       -2.50610607591623
C           -8.13202372143530       -0.70119106005383       -1.56860944849538
O           -8.49726153384864       -1.87796708936003       -0.96544570199165
C           -7.63899031083964       -2.41019552810388       -0.03716619666799
C           -8.01862947675489       -3.59459315317441        0.56958468196272
C           -7.20614310105209       -4.17671908684359        1.53041957962041
C           -6.02021714196191       -3.56143080570623        1.88849727022929
C           -5.63441830754674       -2.37587476583705        1.28584646836223
C           -6.42708248107522       -1.78826029059849        0.30397794224948
C           -3.62878122777838       -0.58039404009590       -0.38327977028776
C           -2.43826613670451        0.01385697081553       -0.07081539702258
C           -2.39752772600913        1.23740842342490        0.62349227027811
C           -1.15893312036926        1.85084903686509        0.95589791996903
N           -0.00066213127042        1.28229956976885        0.62041478109037
C            1.15735449025291        1.85241000893995        0.95410972821741
C            4.83018844739611        1.23260240884131        0.66925476390676
H            7.52005253994240       -5.08563707465520        1.99934759381264
H            5.40118958224115       -3.98265773350260        2.65196011918334
H            4.72253451083245       -1.88440373334750        1.58215699161582
H            8.95920118099276       -4.03242955028215        0.26866652102785
H            9.91192967580017       -0.70430651244258       -2.72649256003023
H            9.35862250202208        1.40364952831957       -3.92149850844912
H            7.21891806810825        2.54976816421089       -3.43260653316171
H            5.67582292291992        1.62427366620955       -1.76799465999244
H            3.65979407172060       -1.51359906613286       -0.92226201045382
H            1.49942344499392       -0.43817033889283       -0.35181275959635
H            4.51152308885930        3.56679218408142        1.96520259605914
H            2.35606196835105        4.62858704127909        2.53879998474857
H           -2.35888719775570        4.62338470169368        2.54600590086683
H           -4.51379134038874        3.55835739679198        1.97625947429871
H           -5.76277549606415        1.68947350212808        0.96942732991349
H           -5.68230630775820        1.62086724489776       -1.75803233423333
H           -7.23226461129499        2.54982952492188       -3.41431769164007
H           -9.37388112446947        1.40460148950875       -3.89692427329109
H           -9.92200973978633       -0.70611289221142       -2.70443450578267
H           -8.95521881575318       -4.04236768002208        0.27701328173414
H           -7.50749615137369       -5.10102139744504        1.99718683595924
H           -5.38598583425204       -3.99934685024145        2.64364685482620
H           -4.71360149023091       -1.89688410647130        1.57845819164052
H           -3.65975703347827       -1.51494573499951       -0.92299338009544
H           -1.49999808906490       -0.43755295775854       -0.35410803053212
H            5.76148859600321        1.69825922368449        0.95891066472935

          :  Hamiltonian                  GFN2-xTB          :
         :: gradient norm              0.000053275910 Eh/a0 ::
         :: HOMO-LUMO gap              0.705407053479 eV    ::
         :: SCC energy              -129.620620899688 Eh    ::
         :: -> dispersion             -0.108756064091 Eh    ::
         :: -> Gsolv                  -0.053880261665 Eh    ::
         :: repulsion energy           2.220574527312 Eh    ::

    * Orbital Energies and Occupations

         #    Occupation            Energy/Eh            Energy/eV
      -------------------------------------------------------------
         1        2.0000           -0.7406760             -20.1548
       ...           ...                  ...                  ...
       106        2.0000           -0.4209194             -11.4538
       107        2.0000           -0.4202641             -11.4360
       108        2.0000           -0.4139156             -11.2632
       109        2.0000           -0.4109868             -11.1835
       110        2.0000           -0.4072684             -11.0823
       111        2.0000           -0.3985411             -10.8449
       112        2.0000           -0.3985200             -10.8443
       113        2.0000           -0.3844684             -10.4619
       114        2.0000           -0.3829146             -10.4196
       115        1.8743           -0.3512531              -9.5581
       116        1.7857           -0.3506447              -9.5415
       117        1.3400           -0.3487806              -9.4908
       118        1.0000           -0.2977953              -8.1034 (HOMO)
       119        0.0000           -0.2718720              -7.3980 (LUMO)
       120                         -0.2491281              -6.7791
       121                         -0.2474082              -6.7323
       122                         -0.2471860              -6.7263
       123                         -0.2378301              -6.4717
       124                         -0.2371485              -6.4531
       125                         -0.2365905              -6.4380
       126                         -0.2238590              -6.0915
       127                         -0.2224365              -6.0528
       128                         -0.2130043              -5.7961
       129                         -0.2049444              -5.5768
       ...                                ...                  ...
       226                          0.7118913              19.3715
      -------------------------------------------------------------
                  HL-Gap            0.0259232 Eh            0.7054 eV

     #   Z          covCN         q      C6AA      α(0)
     1   6 C        2.919    -0.036    28.898     8.815
     2   6 C        2.918    -0.035    28.865     8.810
     3   6 C        2.922    -0.056    29.382     8.889
     4   6 C        2.924     0.045    26.981     8.518
     5   6 C        2.883     0.126    25.244     8.237
     6   6 C        2.918    -0.055    29.374     8.888
     7   8 O        1.709    -0.253    18.184     5.757
     8   6 C        2.883     0.126    25.244     8.237
     9   6 C        2.918    -0.055    29.372     8.887
    10   6 C        2.919    -0.036    28.901     8.816
    11   6 C        2.918    -0.035    28.863     8.810
    12   6 C        2.922    -0.056    29.389     8.890
    13   6 C        2.923     0.045    26.986     8.519
    14   7 N        2.752    -0.052    22.239     7.004
    15   6 C        2.918     0.056    26.746     8.481
    16   6 C        2.916    -0.047    29.167     8.856
    17   6 C        2.919    -0.028    28.698     8.785
    18   6 C        2.986    -0.014    28.355     8.735
    19   6 C        2.983     0.003    27.957     8.673
    20   6 C        2.914    -0.047    29.172     8.857
    21   6 C        2.915    -0.059    29.455     8.900
    22   6 C        2.941     0.085    26.111     8.381
    23   7 N        1.848    -0.271    27.877     7.825
    24   6 C        2.941     0.085    26.111     8.381
    25   6 C        2.915    -0.059    29.455     8.900
    26   6 C        2.914    -0.047    29.172     8.857
    27   6 C        2.983     0.003    27.957     8.673
    28   6 C        2.921    -0.047    29.161     8.855
    29   6 C        2.918     0.056    26.746     8.481
    30   7 N        2.752    -0.052    22.239     7.004
    31   6 C        2.923     0.045    26.987     8.519
    32   6 C        2.922    -0.056    29.389     8.890
    33   6 C        2.918    -0.035    28.863     8.810
    34   6 C        2.919    -0.036    28.901     8.816
    35   6 C        2.918    -0.055    29.372     8.887
    36   6 C        2.883     0.126    25.244     8.237
    37   8 O        1.709    -0.253    18.184     5.757
    38   6 C        2.883     0.126    25.244     8.237
    39   6 C        2.918    -0.055    29.374     8.888
    40   6 C        2.919    -0.036    28.898     8.815
    41   6 C        2.918    -0.035    28.865     8.810
    42   6 C        2.922    -0.056    29.383     8.889
    43   6 C        2.924     0.045    26.981     8.518
    44   6 C        2.916    -0.047    29.168     8.856
    45   6 C        2.919    -0.028    28.698     8.785
    46   6 C        2.986    -0.014    28.355     8.735
    47   6 C        2.945     0.082    26.175     8.391
    48   7 N        1.847    -0.259    27.586     7.784
    49   6 C        2.945     0.082    26.175     8.391
    50   6 C        2.921    -0.047    29.161     8.855
    51   1 H        0.926     0.050     2.325     2.385
    52   1 H        0.926     0.048     2.347     2.396
    53   1 H        0.926     0.046     2.374     2.409
    54   1 H        0.926     0.055     2.256     2.349
    55   1 H        0.926     0.055     2.255     2.348
    56   1 H        0.926     0.049     2.326     2.385
    57   1 H        0.926     0.048     2.350     2.397
    58   1 H        0.926     0.045     2.382     2.414
    59   1 H        0.926     0.042     2.418     2.431
    60   1 H        0.926     0.049     2.329     2.386
    61   1 H        0.926     0.037     2.487     2.466
    62   1 H        0.926     0.040     2.448     2.447
    63   1 H        0.926     0.040     2.448     2.447
    64   1 H        0.926     0.037     2.487     2.466
    65   1 H        0.926     0.042     2.417     2.431
    66   1 H        0.926     0.045     2.382     2.414
    67   1 H        0.926     0.048     2.350     2.397
    68   1 H        0.926     0.049     2.326     2.385
    69   1 H        0.926     0.055     2.255     2.348
    70   1 H        0.926     0.055     2.256     2.349
    71   1 H        0.926     0.050     2.325     2.385
    72   1 H        0.926     0.048     2.347     2.396
    73   1 H        0.926     0.046     2.373     2.409
    74   1 H        0.926     0.042     2.417     2.431
    75   1 H        0.926     0.049     2.329     2.386
    76   1 H        0.926     0.042     2.416     2.431

molecular dipole:
                 x           y           z       tot (Debye)
 q only:        0.001      -1.460      -0.766
   full:        0.000      -1.323      -0.694       3.797

 projected vibrational frequencies (cm⁻¹)
eigval :       -0.00    -0.00    -0.00    -0.00     0.00     0.00
eigval :        6.36     9.17    18.23    22.53    30.02    35.72
eigval :       43.15    51.10    54.39    64.75    70.93   105.34
eigval :      110.59   114.66   131.90   135.67   139.23   157.34
eigval :      164.00   182.17   195.31   229.07   240.71   245.49
eigval :      246.45   259.34   261.64   269.60   272.85   297.77
eigval :      329.40   341.26   354.54   372.13   373.19   387.88
eigval :      391.74   395.62   402.73   407.47   419.20   425.93
eigval :      428.70   428.97   429.88   438.50   456.51   457.74
eigval :      490.29   497.43   502.01   503.40   503.59   508.17
eigval :      515.98   519.50   519.77   527.01   527.71   549.25
eigval :      561.63   571.71   576.09   594.99   606.34   614.11
eigval :      620.02   640.31   644.66   660.33   662.55   663.81
eigval :      665.48   665.61   667.70   673.43   707.93   713.64
eigval :      717.95   755.37   763.94   764.18   775.75   776.08
eigval :      777.60   777.79   798.17   798.66   798.83   799.32
eigval :      821.56   822.07   849.85   853.11   853.70   853.72
eigval :      865.54   865.60   866.18   866.37   875.71   875.98
eigval :      882.81   883.54   898.19   898.26   900.03   900.27
eigval :      909.76   913.17   915.70   915.81   916.01   916.22
eigval :      916.70   916.79   987.98   990.01   995.27  1020.96
eigval :     1084.84  1085.00  1086.72  1086.85  1107.76  1109.11
eigval :     1109.20  1110.74  1115.39  1117.56  1143.99  1150.51
eigval :     1159.63  1161.23  1171.21  1171.36  1177.40  1178.18
eigval :     1190.29  1192.53  1201.36  1201.43  1210.23  1220.81
eigval :     1226.76  1229.94  1238.58  1238.69  1240.90  1248.24
eigval :     1254.94  1255.94  1270.26  1287.03  1289.80  1296.99
eigval :     1300.04  1307.91  1308.28  1317.40  1322.51  1325.17
eigval :     1334.53  1340.37  1347.64  1357.50  1378.15  1379.25
eigval :     1405.49  1418.49  1418.57  1421.61  1424.80  1440.47
eigval :     1440.71  1457.35  1457.47  1464.41  1468.61  1472.93
eigval :     1483.31  1489.52  1504.63  1515.12  1541.80  1544.62
eigval :     1560.08  1560.11  1568.55  1568.57  1574.62  1576.51
eigval :     1578.33  1580.16  1589.95  1592.48  3076.17  3076.34
eigval :     3078.97  3079.06  3085.61  3086.10  3089.81  3090.22
eigval :     3091.60  3091.66  3091.67  3091.80  3098.86  3099.23
eigval :     3099.25  3099.68  3099.97  3099.99  3107.36  3107.56
eigval :     3108.72  3108.88  3111.43  3111.61  3112.43  3112.71

   temp. (K)  partition function   enthalpy   heat capacity  entropy
                                   cal/mol     cal/K/mol   cal/K/mol   J/K/mol
 298.15  VIB  0.416E+17            21722.203    142.048    133.040
         ROT  0.130E+09              888.752      2.981     40.102
         INT  0.539E+25            22610.956    145.029    173.142
         TR   0.158E+29             1481.254      4.968     45.243
         TOT                       24092.2095   149.9973   218.3852   913.7238

       T/K    H(0)-H(T)+PV         H(T)/Eh          T*S/Eh         G(T)/Eh
   ------------------------------------------------------------------------
    298.15    0.383934E-01    0.600185E+00    0.103762E+00    0.496423E+00
   ------------------------------------------------------------------------

         :::::::::::::::::::::::::::::::::::::::::::::::::::::
         ::                  THERMODYNAMIC                  ::
         :::::::::::::::::::::::::::::::::::::::::::::::::::::
         :: total free energy        -126.903623470565 Eh   ::
         ::.................................................::
         :: total energy             -127.400046374954 Eh   ::
         :: zero point energy           0.561791396464 Eh   ::
         :: G(RRHO) w/o ZPVE           -0.065368492075 Eh   ::
         :: G(RRHO) contrib.            0.496422904389 Eh   ::
         :::::::::::::::::::::::::::::::::::::::::::::::::::::

           -------------------------------------------------
          | TOTAL ENERGY             -127.400046374954 Eh   |
          | TOTAL ENTHALPY           -126.799861598866 Eh   |
          | TOTAL FREE ENERGY        -126.903623470565 Eh   |
          | GRADIENT NORM               0.000054326445 Eh/α |
          | HOMO-LUMO GAP               0.705407183050 eV   |
           -------------------------------------------------

 * finished run on 2025/09/10 at 03:51:58.073
