   * xtb version 6.7.1 (edcfbbe) compiled by 'albert@albert-system' on 2024-07-22

   ID    Z sym.   atoms
    1    6 C      1-6, 8-13, 15-22, 24-29, 31-36, 38-47, 49, 50
    2    8 O      7, 37
    3    7 N      14, 23, 30, 48
    4    1 H      51-76

          program call               : xtb data2507/toluene/POZDBPHZ/POZDBPHZ_toluene_S0_crest.xyz --gfn 2 --gbsa toluene --ohess vtight --parallel 40 --molden --ceasefiles --namespace data2507/toluene/POZDBPHZ/POZDBPHZ_toluene_S0_finalOpt
      * Solvation model:               GBSA
        Solvent                        toluene
        Solvent mass                       9.2140E+01 g/mol
          :  Hamiltonian                  GFN2-xTB          :
 * total energy  :  -127.4463035 Eh     change       -0.1165944E-08 Eh
 * total energy  :  -127.4463446 Eh     change       -0.4104925E-04 Eh
 * total energy  :  -127.4463567 Eh     change       -0.1218475E-04 Eh
 * total energy  :  -127.4463594 Eh     change       -0.2677156E-05 Eh
 * total energy  :  -127.4463616 Eh     change       -0.2201630E-05 Eh
 * total energy  :  -127.4463637 Eh     change       -0.2079054E-05 Eh
 * total energy  :  -127.4463663 Eh     change       -0.2637459E-05 Eh
 * total energy  :  -127.4463688 Eh     change       -0.2479901E-05 Eh
 * total energy  :  -127.4463706 Eh     change       -0.1792143E-05 Eh
 * total energy  :  -127.4463719 Eh     change       -0.1307261E-05 Eh
 * total energy  :  -127.4463763 Eh     change       -0.7960885E-06 Eh
 * total energy  :  -127.4463768 Eh     change       -0.4872012E-06 Eh
 * total energy  :  -127.4463772 Eh     change       -0.4082244E-06 Eh
 * total energy  :  -127.4463776 Eh     change       -0.3862698E-06 Eh
 * total energy  :  -127.4463780 Eh     change       -0.3567112E-06 Eh
 * total energy  :  -127.4463783 Eh     change       -0.3398657E-06 Eh
 * total energy  :  -127.4463786 Eh     change       -0.2626564E-06 Eh
 * total energy  :  -127.4463788 Eh     change       -0.2213565E-06 Eh
 * total energy  :  -127.4463788 Eh     change       -0.5794746E-08 Eh
   *** GEOMETRY OPTIMIZATION CONVERGED AFTER 22 ITERATIONS ***

 final structure:
================
76
 xtb: 6.7.1 (edcfbbe)
C            7.20413619342651       -4.23266992538508        1.47653335341409
C            6.00972660640019       -3.63580276793466        1.82623173121587
C            5.62943173373275       -2.43449064534517        1.24688507933316
C            6.43253291414317       -1.81569839418938        0.29631554470420
C            7.65720715254219       -2.41474866939673       -0.02806854698865
C            8.03254439672666       -3.61219047229535        0.55225389681457
O            8.54515667189567       -1.84675036701838       -0.91232488535892
C            8.18532901335651       -0.65076848535824       -1.48957188249866
C            9.08123695070335       -0.09549890565248       -2.38435753487460
C            8.77860857408514        1.09376810537168       -3.03198512993379
C            7.56789608858549        1.71017935279931       -2.78832186326617
C            6.66690673865564        1.15760478322502       -1.89039256116873
C            6.96642622517422       -0.01724833046842       -1.21111775264623
N            6.08034378847256       -0.60394000252587       -0.30382187010304
C            4.84559501319762        0.01060399548912       -0.00092344210861
C            3.64553992809707       -0.63803186638501       -0.33076291389502
C            2.44167746479581       -0.04881047044036       -0.03832777813212
C            2.39125991734734        1.20475626441345        0.58597902274537
C            3.59487788375771        1.86655373521341        0.91495183494209
C            3.55130955721089        3.14595561055563        1.55188942441449
C            2.37821887452418        3.74845479526812        1.85032991824997
C            1.13933791832485        3.11583691067732        1.53495775489556
N           -0.00140527937141        3.72956024113190        1.84230637402142
C           -1.14172699666735        3.11318331358716        1.53879650343819
C           -2.38099032873592        3.74263536984470        1.85898109333640
C           -3.55367387896607        3.13765593709485        1.56402053043556
C           -3.59642458140652        1.85919780768730        0.92512695390381
C           -4.81538519993385        1.23734478265090        0.62723402334066
C           -4.84613917732623        0.00342809745857        0.00736744930421
N           -6.08057905872986       -0.61146546398032       -0.29560690634782
C           -6.97039869942213       -0.02016892121666       -1.19635139948234
C           -6.67444612010417        1.15903842767456       -1.86964957947552
C           -7.57964886309990        1.71685400749005       -2.76004907696945
C           -8.79111195424113        1.10136159650435       -3.00232315246625
C           -9.08989733314436       -0.09255307756628       -2.36152972400895
C           -8.18967568985917       -0.65312751212489       -1.47439792050736
O           -8.54568560744680       -1.85372672209490       -0.90447272679810
C           -7.65408086288555       -2.42630188763047       -0.02688683724328
C           -8.02573074166079       -3.62835814737597        0.54623866664585
C           -7.19381347926844       -4.25357104152516        1.46413425770363
C           -5.99973388140091       -3.65672140124133        1.81501725388702
C           -5.62302242494262       -2.45092379214008        1.24268320364107
C           -6.42944888029262       -1.82743270451175        0.29800438491539
C           -3.64569251700340       -0.64201795015612       -0.32736788471940
C           -2.44217378115031       -0.05149052162900       -0.03613959858076
C           -2.39240886594583        1.20056982675869        0.59125780710362
C           -1.14175039436828        1.83527662659645        0.90343236991627
N           -0.00057771145182        1.22323578079908        0.59817943014968
C            1.14018406940575        1.83752792147327        0.90045205508935
C            4.81425538734036        1.24640509057591        0.61505176571156
H            7.50418203694610       -5.16847802455163        1.92105137185659
H            5.36221117640370       -4.09595721121924        2.55682700997329
H            4.70128830616133       -1.97136261820604        1.54235254902297
H            8.98140903850482       -4.04100727731885        0.27014106062193
H           10.00981885763681       -0.61405940577718       -2.56518185847254
H            9.48508911530049        1.52047816160086       -3.72639806593692
H            7.30902380059463        2.62592618601036       -3.29747795927167
H            5.71787334070575        1.64188497497224       -1.72274324268908
H            3.68415327399534       -1.59950550134040       -0.82076761420342
H            1.51071361946558       -0.53184836127933       -0.28872685473932
H            4.49019477647353        3.62402607679768        1.79088899326104
H            2.33393499263051        4.71392350089957        2.33057702774046
H           -2.33728752263377        4.70779353104660        2.33990293333587
H           -4.49286653241683        3.61323139756087        1.80677386272208
H           -5.74047077798293        1.73038590687822        0.88885267804296
H           -5.72494037026818        1.64281159467582       -1.70324377830533
H           -7.32346846939270        2.63600958351955       -3.26440395660159
H           -9.50101973951689        1.53229991452498       -3.69060166392900
H          -10.01877774917264       -0.61074541221701       -2.54185077796652
H           -8.97458992368212       -4.05690182810880        0.26370786788702
H           -7.49096153690629       -5.19296704584110        1.90298797166998
H           -5.34972202613224       -4.12042906966994        2.54113651335365
H           -4.69508956244348       -1.98796222697325        1.53907375430038
H           -3.68370696160492       -1.60189167727413       -0.82054129110468
H           -1.51099950767348       -0.53205943103422       -0.29048423891318
H            5.73913068543305        1.74194293817109        0.87266220964375

          :  Hamiltonian                  GFN2-xTB          :
         :: gradient norm              0.000049482265 Eh/a0 ::
         :: HOMO-LUMO gap              0.995999036400 eV    ::
         :: SCC energy              -129.667409612897 Eh    ::
         :: -> dispersion             -0.108779306996 Eh    ::
         :: -> Gsolv                  -0.052416224356 Eh    ::
         :: repulsion energy           2.221030800977 Eh    ::

    * Orbital Energies and Occupations

         #    Occupation            Energy/Eh            Energy/eV
      -------------------------------------------------------------
         1        2.0000           -0.7307350             -19.8843
       ...           ...                  ...                  ...
       105        2.0000           -0.4184746             -11.3873
       106        2.0000           -0.4182482             -11.3811
       107        2.0000           -0.4170709             -11.3491
       108        2.0000           -0.4170507             -11.3485
       109        2.0000           -0.4141499             -11.2696
       110        2.0000           -0.4141238             -11.2689
       111        2.0000           -0.3992574             -10.8643
       112        2.0000           -0.3966243             -10.7927
       113        2.0000           -0.3917806             -10.6609
       114        2.0000           -0.3912606             -10.6467
       115        2.0000           -0.3586114              -9.7583
       116        2.0000           -0.3452571              -9.3949
       117        2.0000           -0.3450324              -9.3888 (HOMO)
       118                         -0.3084301              -8.3928 (LUMO)
       119                         -0.2822034              -7.6791
       120                         -0.2580323              -7.0214
       121                         -0.2482257              -6.7546
       122                         -0.2397946              -6.5251
       123                         -0.2397688              -6.5244
       124                         -0.2313095              -6.2943
       125                         -0.2312681              -6.2931
       126                         -0.2275597              -6.1922
       127                         -0.2183207              -5.9408
       128                         -0.2148221              -5.8456
       ...                                ...                  ...
       226                          0.7110033              19.3474
      -------------------------------------------------------------
                  HL-Gap            0.0366023 Eh            0.9960 eV

     #   Z          covCN         q      C6AA      α(0)
     1   6 C        2.919    -0.041    29.017     8.834
     2   6 C        2.919    -0.039    28.969     8.826
     3   6 C        2.924    -0.061    29.507     8.908
     4   6 C        2.922     0.042    27.050     8.529
     5   6 C        2.882     0.122    25.311     8.248
     6   6 C        2.919    -0.058    29.439     8.898
     7   8 O        1.708    -0.272    18.512     5.809
     8   6 C        2.882     0.122    25.310     8.248
     9   6 C        2.919    -0.058    29.438     8.897
    10   6 C        2.919    -0.041    29.020     8.834
    11   6 C        2.919    -0.039    28.970     8.826
    12   6 C        2.924    -0.061    29.513     8.909
    13   6 C        2.921     0.042    27.053     8.529
    14   7 N        2.751    -0.072    22.631     7.065
    15   6 C        2.917     0.068    26.471     8.437
    16   6 C        2.919    -0.039    28.969     8.826
    17   6 C        2.919    -0.026    28.662     8.779
    18   6 C        2.986    -0.005    28.147     8.703
    19   6 C        2.983     0.013    27.714     8.636
    20   6 C        2.914    -0.032    28.790     8.799
    21   6 C        2.912    -0.045    29.109     8.847
    22   6 C        2.963     0.085    26.106     8.381
    23   7 N        1.849    -0.261    27.627     7.790
    24   6 C        2.963     0.085    26.105     8.381
    25   6 C        2.912    -0.045    29.109     8.847
    26   6 C        2.914    -0.032    28.790     8.798
    27   6 C        2.983     0.013    27.715     8.636
    28   6 C        2.924    -0.046    29.143     8.853
    29   6 C        2.917     0.068    26.471     8.437
    30   7 N        2.751    -0.072    22.629     7.065
    31   6 C        2.921     0.042    27.054     8.530
    32   6 C        2.924    -0.061    29.512     8.909
    33   6 C        2.919    -0.039    28.970     8.826
    34   6 C        2.919    -0.041    29.019     8.834
    35   6 C        2.919    -0.058    29.438     8.897
    36   6 C        2.882     0.122    25.310     8.248
    37   8 O        1.708    -0.272    18.512     5.809
    38   6 C        2.882     0.122    25.311     8.248
    39   6 C        2.919    -0.058    29.439     8.898
    40   6 C        2.919    -0.041    29.017     8.833
    41   6 C        2.919    -0.039    28.968     8.826
    42   6 C        2.924    -0.061    29.506     8.908
    43   6 C        2.922     0.042    27.051     8.529
    44   6 C        2.919    -0.039    28.970     8.826
    45   6 C        2.919    -0.026    28.662     8.779
    46   6 C        2.986    -0.005    28.147     8.703
    47   6 C        2.961     0.082    26.165     8.390
    48   7 N        1.847    -0.257    27.528     7.776
    49   6 C        2.961     0.082    26.165     8.390
    50   6 C        2.924    -0.046    29.142     8.853
    51   1 H        0.926     0.042     2.421     2.433
    52   1 H        0.926     0.041     2.429     2.437
    53   1 H        0.926     0.040     2.453     2.449
    54   1 H        0.926     0.048     2.350     2.397
    55   1 H        0.926     0.048     2.349     2.397
    56   1 H        0.926     0.042     2.422     2.434
    57   1 H        0.926     0.041     2.434     2.439
    58   1 H        0.926     0.039     2.463     2.454
    59   1 H        0.926     0.051     2.301     2.372
    60   1 H        0.926     0.062     2.175     2.306
    61   1 H        0.926     0.053     2.277     2.360
    62   1 H        0.926     0.056     2.250     2.345
    63   1 H        0.926     0.056     2.250     2.346
    64   1 H        0.926     0.053     2.277     2.360
    65   1 H        0.926     0.051     2.305     2.374
    66   1 H        0.926     0.039     2.463     2.454
    67   1 H        0.926     0.041     2.433     2.439
    68   1 H        0.926     0.042     2.422     2.434
    69   1 H        0.926     0.048     2.348     2.396
    70   1 H        0.926     0.048     2.349     2.397
    71   1 H        0.926     0.042     2.421     2.433
    72   1 H        0.926     0.041     2.429     2.437
    73   1 H        0.926     0.040     2.452     2.449
    74   1 H        0.926     0.051     2.301     2.372
    75   1 H        0.926     0.062     2.175     2.306
    76   1 H        0.926     0.051     2.305     2.374

molecular dipole:
                 x           y           z       tot (Debye)
 q only:       -0.005       0.226       0.125
   full:       -0.005       0.323       0.165       0.923

 projected vibrational frequencies (cm⁻¹)
eigval :       -0.00    -0.00     0.00     0.00     0.00     0.00
eigval :        4.20    11.45    18.22    22.79    30.39    32.62
eigval :       41.66    46.26    49.75    66.02    68.69   103.68
eigval :      113.39   118.98   130.90   136.74   140.56   164.43
eigval :      168.67   179.39   196.04   228.90   246.92   247.73
eigval :      248.51   259.61   261.80   269.08   272.44   295.25
eigval :      331.51   337.55   342.87   368.82   372.15   388.73
eigval :      396.15   399.88   402.23   406.88   420.78   424.09
eigval :      428.68   429.01   429.35   438.98   450.15   456.25
eigval :      490.36   492.57   507.43   508.26   509.77   510.06
eigval :      517.99   519.32   525.22   526.38   543.25   560.54
eigval :      563.44   573.01   578.66   595.60   610.06   621.54
eigval :      622.74   646.55   658.69   659.03   659.65   660.41
eigval :      660.62   667.20   673.81   690.89   719.70   736.91
eigval :      757.28   766.40   766.43   774.28   777.14   777.70
eigval :      778.41   778.86   801.80   808.17   812.30   821.59
eigval :      844.58   845.29   852.06   852.68   852.77   853.16
eigval :      864.59   864.69   865.79   866.02   885.34   886.12
eigval :      896.39   896.71   898.48   898.64   913.47   914.20
eigval :      915.33   915.76   916.29   916.30   922.66   923.23
eigval :      926.08   928.54   992.02   993.47  1012.11  1014.06
eigval :     1088.59  1089.01  1090.22  1090.35  1105.94  1105.99
eigval :     1112.67  1113.47  1120.83  1123.55  1144.61  1151.19
eigval :     1160.94  1162.48  1173.09  1173.20  1180.33  1181.16
eigval :     1187.07  1189.62  1197.56  1197.62  1222.22  1225.43
eigval :     1227.99  1231.24  1241.72  1241.83  1249.26  1259.45
eigval :     1259.55  1260.06  1278.45  1290.26  1299.06  1304.18
eigval :     1304.25  1314.58  1327.47  1330.71  1331.08  1347.01
eigval :     1349.71  1354.55  1363.23  1372.86  1375.78  1418.09
eigval :     1420.67  1421.99  1437.78  1437.84  1443.11  1444.69
eigval :     1458.22  1470.89  1480.01  1480.18  1487.32  1492.87
eigval :     1501.24  1502.01  1527.40  1541.40  1565.68  1565.72
eigval :     1578.50  1578.57  1581.06  1581.85  1588.20  1588.46
eigval :     1592.21  1601.69  1601.74  1603.77  3079.56  3079.66
eigval :     3085.23  3085.31  3087.06  3087.13  3087.23  3087.33
eigval :     3090.62  3090.93  3095.38  3095.77  3095.86  3095.95
eigval :     3098.37  3099.17  3103.90  3103.93  3104.71  3105.50
eigval :     3108.64  3108.69  3109.77  3110.02  3111.01  3112.51

   temp. (K)  partition function   enthalpy   heat capacity  entropy
                                   cal/mol     cal/K/mol   cal/K/mol   J/K/mol
 298.15  VIB  0.570E+17            21621.612    140.816    132.611
         ROT  0.129E+09              888.752      2.981     40.099
         INT  0.737E+25            22510.364    143.797    172.710
         TR   0.158E+29             1481.254      4.968     45.243
         TOT                       23991.6181   148.7647   217.9532   911.9161

       T/K    H(0)-H(T)+PV         H(T)/Eh          T*S/Eh         G(T)/Eh
   ------------------------------------------------------------------------
    298.15    0.382331E-01    0.602694E+00    0.103557E+00    0.499137E+00
   ------------------------------------------------------------------------

         :::::::::::::::::::::::::::::::::::::::::::::::::::::
         ::                  THERMODYNAMIC                  ::
         :::::::::::::::::::::::::::::::::::::::::::::::::::::
         :: total free energy        -126.947241336996 Eh   ::
         ::.................................................::
         :: total energy             -127.446378811529 Eh   ::
         :: zero point energy           0.564460987627 Eh   ::
         :: G(RRHO) w/o ZPVE           -0.065323513094 Eh   ::
         :: G(RRHO) contrib.            0.499137474533 Eh   ::
         :::::::::::::::::::::::::::::::::::::::::::::::::::::

           -------------------------------------------------
          | TOTAL ENERGY             -127.446378811529 Eh   |
          | TOTAL ENTHALPY           -126.843684746891 Eh   |
          | TOTAL FREE ENERGY        -126.947241336996 Eh   |
          | GRADIENT NORM               0.000049459217 Eh/α |
          | HOMO-LUMO GAP               0.995998977387 eV   |
           -------------------------------------------------

 * finished run on 2025/09/10 at 03:51:49.785
