   * xtb version 6.7.1 (edcfbbe) compiled by 'albert@albert-system' on 2024-07-22

   ID    Z sym.   atoms
    1    6 C      1-6, 8-13, 15-22, 24-29, 31-36, 38-47, 49, 50
    2    8 O      7, 37
    3    7 N      14, 23, 30, 48
    4    1 H      51-76

          program call               : xtb data2507/toluene/POZDBPHZ/POZDBPHZ.xyz --gfn 2 --gbsa toluene --ohess vtight --parallel 40 --molden --ceasefiles --namespace data2507/toluene/POZDBPHZ/POZDBPHZ_toluene_S0_preOpt
      * Solvation model:               GBSA
        Solvent                        toluene
        Solvent mass                       9.2140E+01 g/mol
          :  Hamiltonian                  GFN2-xTB          :
 * total energy  :  -127.4204072 Eh     change       -0.2398934E-08 Eh
 * total energy  :  -127.4370701 Eh     change       -0.1666291E-01 Eh
 * total energy  :  -127.4419221 Eh     change       -0.4852020E-02 Eh
 * total energy  :  -127.4430576 Eh     change       -0.1135463E-02 Eh
 * total energy  :  -127.4438951 Eh     change       -0.8375486E-03 Eh
 * total energy  :  -127.4442089 Eh     change       -0.3138029E-03 Eh
 * total energy  :  -127.4443486 Eh     change       -0.1396970E-03 Eh
 * total energy  :  -127.4444467 Eh     change       -0.9808283E-04 Eh
 * total energy  :  -127.4445312 Eh     change       -0.8451200E-04 Eh
 * total energy  :  -127.4445967 Eh     change       -0.6549161E-04 Eh
 * total energy  :  -127.4446377 Eh     change       -0.1627131E-05 Eh
 * total energy  :  -127.4446386 Eh     change       -0.9769695E-06 Eh
 * total energy  :  -127.4446397 Eh     change       -0.1020413E-05 Eh
 * total energy  :  -127.4446411 Eh     change       -0.1444087E-05 Eh
 * total energy  :  -127.4446432 Eh     change       -0.2097889E-05 Eh
 * total energy  :  -127.4446452 Eh     change       -0.1953967E-05 Eh
 * total energy  :  -127.4446459 Eh     change       -0.7065064E-06 Eh
 * total energy  :  -127.4446461 Eh     change       -0.2028015E-06 Eh
 * total energy  :  -127.4446462 Eh     change       -0.9302450E-07 Eh
   *** GEOMETRY OPTIMIZATION CONVERGED AFTER 21 ITERATIONS ***

 final structure:
================
76
 xtb: 6.7.1 (edcfbbe)
C            8.05177450802620       -3.57649684285310       -1.60951244767170
C            6.81055583932030       -3.61012311911629       -1.00754909618151
C            6.15139209310783       -2.43002199914922       -0.69420916771162
C            6.72809763124271       -1.19991814712806       -0.98181803623174
C            7.98801365239960       -1.17489245673375       -1.59540716179913
C            8.64017261257568       -2.35301673219191       -1.90377638331283
O            8.62800250760213        0.00284198625553       -1.91530907885055
C            7.98636105076349        1.17977107265368       -1.59573967037021
C            8.63697518352054        2.35870698762996       -1.90427306475302
C            8.04707021345266        3.58145568324624       -1.60999039238871
C            6.80596659749161        3.61353261468742       -1.00770621255751
C            6.14834867617426        2.43261134678470       -0.69420187739168
C            6.72644106135397        1.20322247353122       -0.98209295458098
N            6.09063409992165        0.00124775077671       -0.68318327616426
C            4.84465652646460        0.00045436123441        0.00044370747759
C            3.65125844822452        0.00275313612886       -0.73242939465561
C            2.44476071038154        0.00187754961369       -0.07595795086225
C            2.39408333132782       -0.00118047013387        1.32391304967198
C            3.59531303350615       -0.00334051042782        2.06657105508429
C            3.55144170606793       -0.00608336902291        3.49564412913709
C            2.37823850941553       -0.00665116356909        4.16723433432431
C            1.14051892214163       -0.00475316940216        3.45817056349454
N            0.00000272907267       -0.00539846653580        4.14404024549188
C           -1.14051457179718       -0.00391215120375        3.45817359768575
C           -2.37823284210419       -0.00450417041777        4.16724186108079
C           -3.55143736986364       -0.00350221681726        3.49565443292174
C           -3.59531117823385       -0.00189425933810        2.06657982176653
C           -4.81631403637880       -0.00130429274810        1.37846123008713
C           -4.84465982804560        0.00012318413551        0.00045303981807
N           -6.09064070602909        0.00054880366632       -0.68316862800689
C           -6.72767210977870        1.20226387664283       -0.98050474820620
C           -6.15068809558385        2.43186088033792       -0.69127946345598
C           -6.80944804989424        3.61252317741718       -1.00335637998277
C           -8.05056349611135        3.57997250866532       -1.60558982505664
C           -8.63931717037845        2.35701199817280       -1.90129743481295
C           -7.98756841218857        1.17833327902135       -1.59418227042292
O           -8.62801335702721        0.00117057587463       -1.91528481196146
C           -7.98681675405503       -1.17632891253165       -1.59694011293594
C           -8.63783432545836       -2.35470678471745       -1.90675138572962
C           -8.04827218009831       -3.57797563416989       -1.61394649660221
C           -6.80706936709545       -3.61113013393112       -1.01192623548998
C           -6.14905804375826       -2.43077422387608       -0.69712769317783
C           -6.72687392897691       -1.20087676581504       -0.98338689395669
C           -3.65126339525191        0.00111611320301       -0.73242544014033
C           -2.44476396889742        0.00060292531714       -0.07595638819085
C           -2.39408297099227       -0.00097150107940        1.32391707772380
C           -1.14091212509427       -0.00186314247895        2.03108444702035
N            0.00000039271975       -0.00087491740214        1.34777136002202
C            1.14091391254421       -0.00219243089499        2.03108231480666
C            4.81631427471840       -0.00258295122491        1.37844974285348
H            8.56983068365451       -4.49040670460750       -1.85454627248295
H            6.34198215334310       -4.55414180553953       -0.77464296357730
H            5.18116158757032       -2.46188809483411       -0.22265048477010
H            9.60940813714729       -2.29473779251651       -2.37407836365353
H            9.60625777759515        2.30163247838756       -2.37462960620931
H            8.56389900315795        4.49600907405312       -1.85520109291988
H            6.33629741899189        4.55696580391206       -0.77463765943806
H            5.17828254292002        2.46329350650486       -0.22222318142688
H            3.69560543759070        0.00513866955403       -1.81116491964150
H            1.51430386150255        0.00346274100481       -0.62079340736837
H            4.49031040673741       -0.00757504606879        4.02980088453770
H            2.33200288588392       -0.00855209946242        5.24532552395694
H           -2.33199525143491       -0.00583155757879        5.24533384252925
H           -4.49030523398353       -0.00398636950509        4.02981448604053
H           -5.74218430564586       -0.00203617158174        1.93518535007487
H           -5.18056038487657        2.46290572325363       -0.21944864469501
H           -6.34063242018905        4.55612876534121       -0.76926500301911
H           -8.56827876127188        4.49432160893201       -1.84969555766834
H           -9.60854071058609        2.29957203900872       -2.37172873846260
H           -9.60713380404768       -2.29678908980729       -2.37696989945629
H           -8.56544598934586       -4.49208833940433       -1.86008419728199
H           -6.33763226432072       -4.55497755011249       -0.78006943761902
H           -5.17887647150563       -2.46229290505555       -0.22544488890262
H           -3.69561355039408        0.00222793022689       -1.81116301396524
H           -1.51430843368738        0.00126161809654       -0.62079602096499
H            5.74218574474839       -0.00434878228898        1.93516962952522

          :  Hamiltonian                  GFN2-xTB          :
         :: gradient norm              0.000036583028 Eh/a0 ::
         :: HOMO-LUMO gap              0.841257085348 eV    ::
         :: SCC energy              -129.666998273283 Eh    ::
         :: -> dispersion             -0.108388880126 Eh    ::
         :: -> Gsolv                  -0.052974596917 Eh    ::
         :: repulsion energy           2.222352116237 Eh    ::

    * Orbital Energies and Occupations

         #    Occupation            Energy/Eh            Energy/eV
      -------------------------------------------------------------
         1        2.0000           -0.7284625             -19.8225
       ...           ...                  ...                  ...
       105        2.0000           -0.4217882             -11.4774
       106        2.0000           -0.4213344             -11.4651
       107        2.0000           -0.4155998             -11.3090
       108        2.0000           -0.4155920             -11.3088
       109        2.0000           -0.4131155             -11.2414
       110        2.0000           -0.4129635             -11.2373
       111        2.0000           -0.4024385             -10.9509
       112        2.0000           -0.3990304             -10.8582
       113        2.0000           -0.3911178             -10.6429
       114        2.0000           -0.3911061             -10.6425
       115        2.0000           -0.3620764              -9.8526
       116        2.0000           -0.3430804              -9.3357
       117        2.0000           -0.3430683              -9.3354 (HOMO)
       118        0.0000           -0.3121527              -8.4941 (LUMO)
       119                         -0.2860727              -7.7844
       120                         -0.2615982              -7.1185
       121                         -0.2513762              -6.8403
       122                         -0.2381091              -6.4793
       123                         -0.2380508              -6.4777
       124                         -0.2299845              -6.2582
       125                         -0.2299041              -6.2560
       126                         -0.2285744              -6.2198
       127                         -0.2165919              -5.8938
       128                         -0.2153788              -5.8608
       ...                                ...                  ...
       226                          0.7077948              19.2601
      -------------------------------------------------------------
                  HL-Gap            0.0309156 Eh            0.8413 eV

     #   Z          covCN         q      C6AA      α(0)
     1   6 C        2.919    -0.043    29.058     8.840
     2   6 C        2.919    -0.039    28.978     8.827
     3   6 C        2.923    -0.062    29.539     8.913
     4   6 C        2.923     0.044    27.021     8.525
     5   6 C        2.880     0.121    25.333     8.251
     6   6 C        2.919    -0.059    29.456     8.900
     7   8 O        1.708    -0.276    18.576     5.819
     8   6 C        2.880     0.121    25.333     8.251
     9   6 C        2.919    -0.059    29.456     8.900
    10   6 C        2.919    -0.043    29.058     8.840
    11   6 C        2.919    -0.039    28.978     8.827
    12   6 C        2.923    -0.062    29.539     8.913
    13   6 C        2.923     0.044    27.021     8.525
    14   7 N        2.753    -0.080    22.786     7.090
    15   6 C        2.918     0.071    26.411     8.427
    16   6 C        2.918    -0.036    28.898     8.815
    17   6 C        2.919    -0.025    28.630     8.774
    18   6 C        2.986    -0.002    28.068     8.691
    19   6 C        2.983     0.015    27.675     8.629
    20   6 C        2.914    -0.030    28.748     8.792
    21   6 C        2.912    -0.043    29.076     8.842
    22   6 C        2.963     0.086    26.087     8.378
    23   7 N        1.849    -0.255    27.498     7.772
    24   6 C        2.963     0.086    26.087     8.378
    25   6 C        2.912    -0.043    29.076     8.842
    26   6 C        2.914    -0.030    28.748     8.792
    27   6 C        2.983     0.015    27.675     8.629
    28   6 C        2.924    -0.042    29.043     8.838
    29   6 C        2.918     0.071    26.411     8.427
    30   7 N        2.753    -0.080    22.786     7.090
    31   6 C        2.923     0.044    27.021     8.525
    32   6 C        2.923    -0.062    29.539     8.913
    33   6 C        2.919    -0.039    28.978     8.827
    34   6 C        2.919    -0.043    29.058     8.840
    35   6 C        2.919    -0.059    29.456     8.900
    36   6 C        2.880     0.121    25.333     8.251
    37   8 O        1.708    -0.276    18.576     5.819
    38   6 C        2.880     0.121    25.333     8.251
    39   6 C        2.919    -0.059    29.456     8.900
    40   6 C        2.919    -0.043    29.058     8.840
    41   6 C        2.919    -0.039    28.978     8.827
    42   6 C        2.923    -0.062    29.539     8.913
    43   6 C        2.923     0.044    27.021     8.525
    44   6 C        2.918    -0.036    28.898     8.815
    45   6 C        2.919    -0.025    28.630     8.774
    46   6 C        2.986    -0.002    28.068     8.691
    47   6 C        2.961     0.082    26.168     8.391
    48   7 N        1.846    -0.250    27.362     7.752
    49   6 C        2.961     0.082    26.168     8.391
    50   6 C        2.924    -0.042    29.043     8.838
    51   1 H        0.926     0.040     2.445     2.445
    52   1 H        0.926     0.040     2.455     2.450
    53   1 H        0.926     0.034     2.524     2.484
    54   1 H        0.926     0.046     2.370     2.408
    55   1 H        0.926     0.046     2.370     2.408
    56   1 H        0.926     0.040     2.445     2.445
    57   1 H        0.926     0.040     2.455     2.450
    58   1 H        0.926     0.034     2.524     2.484
    59   1 H        0.926     0.054     2.268     2.355
    60   1 H        0.926     0.065     2.137     2.286
    61   1 H        0.926     0.056     2.244     2.343
    62   1 H        0.926     0.059     2.213     2.326
    63   1 H        0.926     0.059     2.213     2.326
    64   1 H        0.926     0.056     2.244     2.343
    65   1 H        0.926     0.052     2.289     2.366
    66   1 H        0.926     0.034     2.524     2.484
    67   1 H        0.926     0.040     2.455     2.450
    68   1 H        0.926     0.040     2.445     2.445
    69   1 H        0.926     0.046     2.370     2.408
    70   1 H        0.926     0.046     2.370     2.408
    71   1 H        0.926     0.040     2.445     2.445
    72   1 H        0.926     0.040     2.455     2.450
    73   1 H        0.926     0.034     2.524     2.484
    74   1 H        0.926     0.054     2.268     2.355
    75   1 H        0.926     0.065     2.137     2.286
    76   1 H        0.926     0.052     2.289     2.366

molecular dipole:
                 x           y           z       tot (Debye)
 q only:        0.000      -0.001       0.632
   full:        0.000      -0.001       0.748       1.902

 projected vibrational frequencies (cm⁻¹)
eigval :       -0.00    -0.00    -0.00    -0.00     0.00     0.00
eigval :      -20.41   -12.26    13.44    17.27    17.74    27.42
eigval :       28.70    41.29    41.69    57.95    63.06    96.78
eigval :      112.27   112.52   119.46   134.40   138.98   159.50
eigval :      159.83   165.57   190.02   226.18   240.73   249.23
eigval :      249.56   256.05   257.63   266.86   271.61   294.58
eigval :      329.34   332.44   339.76   368.97   373.17   385.51
eigval :      396.29   396.71   401.65   407.27   420.41   422.54
eigval :      423.68   426.14   430.12   433.51   447.37   455.00
eigval :      490.52   495.01   501.14   507.09   509.92   509.95
eigval :      516.72   517.84   521.03   523.44   540.41   560.24
eigval :      564.10   571.50   577.65   595.99   609.82   621.05
eigval :      624.40   646.43   656.87   657.10   657.51   657.55
eigval :      661.20   666.73   673.93   692.53   720.28   738.94
eigval :      757.63   766.46   767.84   774.32   778.50   778.62
eigval :      778.95   779.06   800.62   807.75   809.15   818.29
eigval :      843.38   844.72   850.39   850.43   853.25   854.39
eigval :      863.01   863.08   863.20   863.23   879.00   879.65
eigval :      896.23   896.28   897.69   897.72   914.36   914.51
eigval :      914.92   914.93   917.84   918.22   921.96   923.00
eigval :      924.04   925.06   992.16   993.13  1012.19  1013.78
eigval :     1086.57  1086.62  1087.79  1087.96  1104.63  1104.68
eigval :     1111.30  1111.99  1119.93  1123.15  1142.54  1148.29
eigval :     1160.95  1162.64  1174.14  1174.15  1178.13  1178.50
eigval :     1186.06  1188.40  1193.33  1193.48  1221.59  1224.02
eigval :     1226.19  1231.84  1240.59  1240.75  1247.69  1259.03
eigval :     1259.12  1259.35  1276.01  1291.31  1302.10  1305.68
eigval :     1305.71  1314.15  1326.60  1339.92  1339.99  1344.67
eigval :     1353.82  1356.54  1361.16  1371.55  1372.12  1418.59
eigval :     1422.61  1422.64  1436.95  1437.77  1442.80  1443.67
eigval :     1458.70  1470.90  1484.39  1484.54  1493.73  1494.31
eigval :     1504.90  1505.70  1529.07  1543.39  1564.90  1564.92
eigval :     1579.72  1579.73  1584.94  1585.55  1588.90  1589.25
eigval :     1593.81  1603.39  1603.43  1604.99  3081.47  3081.57
eigval :     3085.41  3085.45  3085.48  3085.53  3086.34  3086.40
eigval :     3091.94  3092.22  3093.91  3093.93  3093.98  3093.99
eigval :     3100.04  3100.28  3100.31  3100.67  3100.73  3100.87
eigval :     3107.14  3107.16  3107.98  3108.01  3111.38  3112.77

   temp. (K)  partition function   enthalpy   heat capacity  entropy
                                   cal/mol     cal/K/mol   cal/K/mol   J/K/mol
 298.15  VIB  0.119E+17            21246.636    139.196    128.910
         ROT  0.649E+08              888.752      2.981     38.728
         INT  0.771E+24            22135.388    142.177    167.639
         TR   0.158E+29             1481.254      4.968     45.243
         TOT                       23616.6418   147.1447   212.8818   890.6975

       T/K    H(0)-H(T)+PV         H(T)/Eh          T*S/Eh         G(T)/Eh
   ------------------------------------------------------------------------
    298.15    0.376355E-01    0.601532E+00    0.101147E+00    0.500385E+00
   ------------------------------------------------------------------------

         :::::::::::::::::::::::::::::::::::::::::::::::::::::
         ::                  THERMODYNAMIC                  ::
         :::::::::::::::::::::::::::::::::::::::::::::::::::::
         :: total free energy        -126.944260730115 Eh   ::
         ::.................................................::
         :: total energy             -127.444646156958 Eh   ::
         :: zero point energy           0.563896925117 Eh   ::
         :: G(RRHO) w/o ZPVE           -0.063511498274 Eh   ::
         :: G(RRHO) contrib.            0.500385426843 Eh   ::
         :::::::::::::::::::::::::::::::::::::::::::::::::::::

           -------------------------------------------------
          | TOTAL ENERGY             -127.444646156958 Eh   |
          | TOTAL ENTHALPY           -126.843113717542 Eh   |
          | TOTAL FREE ENERGY        -126.944260730115 Eh   |
          | GRADIENT NORM               0.000036578394 Eh/α |
          | HOMO-LUMO GAP               0.841256900319 eV   |
           -------------------------------------------------

 * finished run on 2025/09/10 at 03:47:41.878
