   * xtb version 6.7.1 (edcfbbe) compiled by 'albert@albert-system' on 2024-07-22

   ID    Z sym.   atoms
    1    6 C      1-4, 6-23, 25-40, 42-57, 59-76
    2    7 N      5, 24, 41, 58
    3    1 H      77-118

          program call               : xtb data2507/gas/C-BPyIA/C-BPyIA.xyz --gfn 2 --ohess vtight --parallel 40 --molden --ceasefiles --namespace data2507/gas/C-BPyIA/C-BPyIA_gas_S0_preOpt
          :  Hamiltonian                  GFN2-xTB          :
 * total energy  :  -187.4154770 Eh     change       -0.3969149E-08 Eh
 * total energy  :  -187.4375448 Eh     change       -0.2206787E-01 Eh
 * total energy  :  -187.4437214 Eh     change       -0.6176561E-02 Eh
 * total energy  :  -187.4450441 Eh     change       -0.1322665E-02 Eh
 * total energy  :  -187.4460190 Eh     change       -0.9749363E-03 Eh
 * total energy  :  -187.4465968 Eh     change       -0.5777922E-03 Eh
 * total energy  :  -187.4472023 Eh     change       -0.6054793E-03 Eh
 * total energy  :  -187.4479046 Eh     change       -0.7023394E-03 Eh
 * total energy  :  -187.4484969 Eh     change       -0.5922887E-03 Eh
 * total energy  :  -187.4489838 Eh     change       -0.4868639E-03 Eh
 * total energy  :  -187.4519732 Eh     change       -0.2457710E-05 Eh
 * total energy  :  -187.4519744 Eh     change       -0.1138138E-05 Eh
 * total energy  :  -187.4519750 Eh     change       -0.6623318E-06 Eh
 * total energy  :  -187.4519756 Eh     change       -0.5478624E-06 Eh
 * total energy  :  -187.4519760 Eh     change       -0.4423227E-06 Eh
 * total energy  :  -187.4519764 Eh     change       -0.3617447E-06 Eh
 * total energy  :  -187.4519768 Eh     change       -0.3731173E-06 Eh
 * total energy  :  -187.4519772 Eh     change       -0.3990765E-06 Eh
 * total energy  :  -187.4519772 Eh     change       -0.4302933E-08 Eh
   *** GEOMETRY OPTIMIZATION CONVERGED AFTER 44 ITERATIONS ***

 final structure:
================
118
 xtb: 6.7.1 (edcfbbe)
C            6.49849743142041       -3.89965702723134        2.19552551836137
C            6.18485835459535       -3.66972959426478        0.86641217998130
C            6.68286598215294       -2.55527544159347        0.21626519205526
C            7.49743013835860       -1.66340105318895        0.90416821808313
N            7.95781305201162       -0.50164324343958        0.25545149589808
C            7.14056681733612        0.47927292209230       -0.26383433495947
C            5.68798206970294        0.43935620150572       -0.20699878677708
C            4.99741880012596       -0.01614977084469        0.91467114122521
C            3.61856956945684       -0.07204908183427        0.90660818377542
C            2.89507192734766        0.33208057592588       -0.21199618819396
C            1.42269371727561        0.22413693186314       -0.22413313006888
C            0.63178499299747        1.38165556163299       -0.24599440418255
C            1.20701252101213        2.67971038498710       -0.22750163329819
C            0.43034406352428        3.79600880419015       -0.27262604229619
C           -0.97250263225699        3.68346827215105       -0.34269531051502
C           -1.56452071735229        2.45833061422366       -0.33680824492694
C           -0.79314265272797        1.26813331380729       -0.26659356555367
C           -1.39231683123819        0.00044960740586       -0.23447376779112
C           -2.86438844018375       -0.11400146294523       -0.23292329545762
C           -3.60317522982837        0.31954096942202        0.86417398946493
C           -4.98060429735160        0.22920498939667        0.87036302183266
C           -5.65518271975258       -0.29025641079333       -0.23313998640250
C           -7.10337966618779       -0.40278384076695       -0.28869962637788
N           -7.72647190173462       -1.41070841473783       -0.84560278936858
C           -9.05295561887688       -1.16635215900362       -0.68762379062497
C          -10.14532383569194       -1.98530999145430       -1.09380808423847
C           -9.97487835911622       -3.20917818812783       -1.73039175043067
C          -11.07682379882074       -3.96970796884152       -2.08226547980678
C          -12.35213690063992       -3.51786896677461       -1.80734670288101
C          -12.55993277628164       -2.28873659225575       -1.17489559614784
C          -13.87128600741180       -1.80475455051915       -0.89843048989511
C          -14.06019516287120       -0.60147556966548       -0.31261795775091
C          -12.95846286874875        0.22488069416802        0.05701693736115
C          -13.16237017004176        1.48112576544930        0.63408024899870
C          -12.09111910557136        2.28433743996310        0.96186424677736
C          -10.79372261565854        1.84764110042639        0.75425986126012
C          -10.54192822444934        0.58849945327114        0.21254183222518
C          -11.63884961171231       -0.23561566246735       -0.17535123669099
C          -11.44400008040534       -1.49804629591984       -0.80454310707937
C           -9.24538452728273        0.04577255481732       -0.02264839663722
N           -7.98001906130391        0.52139539958981        0.23719968941637
C           -7.59851122714268        1.70872643218041        0.89112139920397
C           -7.91556573196222        1.90196950664355        2.23234731147963
C           -7.49961024883562        3.05358856032361        2.87448180001196
C           -6.76308696841109        4.00678478614245        2.18951125344081
C           -6.44528523582024        3.81046765057386        0.85597968441565
C           -6.86157512594127        2.66492083806366        0.20227822069227
C           -4.91450312453410       -0.75193221405101       -1.32159464624207
C           -3.53830567671673       -0.66285148682361       -1.32151813622486
C           -0.60135204053833       -1.15709027018139       -0.19909605578923
C           -1.17699847064956       -2.45338118657428       -0.13137504863854
C           -0.40044638798770       -3.57061116252868       -0.12135126689060
C            1.00290842048336       -3.46095954992281       -0.18269664799060
C            1.59516137275671       -2.23658671191178       -0.22267223646044
C            0.82364250187771       -1.04433977079134       -0.20961916774946
C            3.58537681450198        0.82915787684521       -1.31482977239184
C            4.96381387515107        0.88489680278519       -1.31230372474698
N            7.82384698632938        1.44953249001187       -0.81515478848543
C            9.13325519272445        1.12133706298960       -0.66010424588422
C           10.27474578503538        1.87197426567987       -1.06308989688341
C           10.18151717059106        3.10876249972201       -1.69071431750974
C           11.32901393177756        3.79972532411178       -2.04041647725812
C           12.57351715166324        3.26530499156709       -1.77242859588907
C           12.70379744079154        2.02098483205101       -1.14907163507168
C           13.98220919894241        1.45202300741818       -0.88008382730871
C           14.09538471936881        0.23476951958421       -0.30367691063864
C           12.94400315366047       -0.52215754107473        0.06326595384240
C           13.06829292363111       -1.79352379925661        0.62974917583377
C           11.94855541081771       -2.52910210926464        0.95438336882179
C           10.68134721671234       -2.00826992975252        0.75458724470759
C           10.50974288089738       -0.73107598736722        0.22393082683554
C           11.65605376201574        0.02391365216525       -0.16133470018916
C           11.54046344700187        1.30076392786631       -0.78083294211839
C            9.25007157290304       -0.10474026352482       -0.00328920660497
C            7.81083328247084       -1.89055399860126        2.24084618888532
C            7.31330852572184       -3.01153105651359        2.87920665688748
H            6.10769972763965       -4.77020478060952        2.70004670270248
H            5.55097028458892       -4.36096882422936        0.33178308078908
H            6.44340586158704       -2.36601614930423       -0.81969519509634
H            5.53417969968595       -0.31347341493094        1.80294373787333
H            3.08899388760695       -0.42859370282091        1.77845228552894
H            2.28185013098768        2.76694332137291       -0.17361220724778
H            0.88296948539749        4.77657354287386       -0.25873267875856
H           -1.57299273880664        4.57982278127773       -0.39703562802030
H           -2.64002233439108        2.37365261892403       -0.38801581797487
H           -3.08663886938604        0.72116827354445        1.72420605870494
H           -5.52644256760452        0.54528722824356        1.74638990688332
H           -8.97080891029319       -3.54632221815818       -1.93501265469306
H          -10.93794831142468       -4.92165657690560       -2.57411559230585
H          -13.21077660238840       -4.11333581745716       -2.08412777081005
H          -14.71266887807426       -2.42347518421226       -1.17733013197242
H          -15.05675101179160       -0.23307451864068       -0.11322959937152
H          -14.17295851161254        1.82166747086793        0.80821590783181
H          -12.25888268082150        3.26401205897302        1.38556249982248
H           -9.97380877870345        2.50120792676717        1.00657160003365
H           -8.48478655295490        1.14902239816741        2.75807015088185
H           -7.74683327311690        3.20372039351455        3.91471541281297
H           -6.43648666173296        4.90199310388822        2.69652168114215
H           -5.87226905528403        4.55245392681389        0.32069952529286
H           -6.61792728020251        2.50091350038165       -0.83698279288366
H           -5.44174743644550       -1.17548532418929       -2.16213673367206
H           -2.97183760678391       -1.00945032144277       -2.17386830581546
H           -2.25225466280003       -2.53889962741895       -0.08462336610418
H           -0.85369841368834       -4.54963757983640       -0.07027267446484
H            1.60372139778783       -4.35868969128808       -0.19363108103117
H            2.67117521400835       -2.15500419235384       -0.26713666063204
H            3.03063515820326        1.15651183767479       -2.18236831869626
H            5.50385231507120        1.26296452525353       -2.16642554579987
H            9.20059300074200        3.51085307453785       -1.89021694481904
H           11.25013532945747        4.76206735325695       -2.52526676204666
H           13.46780238779044        3.80648731605640       -2.04779132325981
H           14.86072271624557        2.01768572094374       -1.15715637573764
H           15.06686364241703       -0.19812696439422       -0.11019687270299
H           14.05537589784069       -2.19968110227083        0.79795670653220
H           12.05424400723842       -3.52108750180141        1.36939403445879
H            9.82160902940289       -2.60982831438290        1.00387366996700
H            8.44052063578082       -1.18731820135800        2.76650685172395
H            7.55777020571980       -3.18787462351855        3.91598032448603

          :  Hamiltonian                  GFN2-xTB          :
         :: gradient norm              0.000053002817 Eh/a0 ::
         :: HOMO-LUMO gap              1.971139430023 eV    ::
         :: SCC energy              -191.027458919188 Eh    ::
         :: -> dispersion             -0.185914372215 Eh    ::
         :: repulsion energy           3.575481762393 Eh    ::

    * Orbital Energies and Occupations

         #    Occupation            Energy/Eh            Energy/eV
      -------------------------------------------------------------
         1        2.0000           -0.6857440             -18.6600
       ...           ...                  ...                  ...
       163        2.0000           -0.4020865             -10.9413
       164        2.0000           -0.4010553             -10.9133
       165        2.0000           -0.4004330             -10.8963
       166        2.0000           -0.4003171             -10.8932
       167        2.0000           -0.3871232             -10.5342
       168        2.0000           -0.3862395             -10.5101
       169        2.0000           -0.3818289             -10.3901
       170        2.0000           -0.3816814             -10.3861
       171        2.0000           -0.3749367             -10.2025
       172        2.0000           -0.3749267             -10.2023
       173        2.0000           -0.3605852              -9.8120
       174        2.0000           -0.3558660              -9.6836
       175        2.0000           -0.3548645              -9.6564 (HOMO)
       176                         -0.2824264              -7.6852 (LUMO)
       177                         -0.2687271              -7.3124
       178                         -0.2684562              -7.3051
       179                         -0.2533518              -6.8941
       180                         -0.2524053              -6.8683
       181                         -0.2433882              -6.6229
       182                         -0.2431793              -6.6172
       183                         -0.2426655              -6.6033
       184                         -0.2424682              -6.5979
       185                         -0.2338118              -6.3623
       186                         -0.2337358              -6.3603
       ...                                ...                  ...
       346                          0.7361017              20.0303
      -------------------------------------------------------------
                  HL-Gap            0.0724380 Eh            1.9711 eV

     #   Z          covCN         q      C6AA      α(0)
     1   6 C        2.920    -0.030    28.745     8.792
     2   6 C        2.920    -0.025    28.639     8.776
     3   6 C        2.922    -0.038    28.936     8.821
     4   6 C        2.913     0.069    26.461     8.435
     5   7 N        2.842    -0.045    22.105     6.983
     6   6 C        3.194     0.127    24.744     8.111
     7   6 C        2.974     0.001    28.010     8.681
     8   6 C        2.921    -0.035    28.861     8.810
     9   6 C        2.924    -0.032    28.807     8.802
    10   6 C        2.977     0.017    27.636     8.623
    11   6 C        2.977    -0.006    28.175     8.707
    12   6 C        2.983     0.007    27.862     8.659
    13   6 C        2.917    -0.035    28.860     8.809
    14   6 C        2.914    -0.030    28.747     8.792
    15   6 C        2.914    -0.030    28.748     8.792
    16   6 C        2.917    -0.035    28.866     8.810
    17   6 C        2.984     0.006    27.871     8.660
    18   6 C        2.977    -0.006    28.173     8.707
    19   6 C        2.977     0.017    27.637     8.623
    20   6 C        2.924    -0.032    28.809     8.802
    21   6 C        2.921    -0.035    28.872     8.812
    22   6 C        2.974     0.000    28.015     8.682
    23   6 C        3.193     0.127    24.759     8.114
    24   7 N        1.895    -0.291    28.382     7.898
    25   6 C        3.207     0.057    26.137     8.325
    26   6 C        2.979     0.002    27.969     8.675
    27   6 C        2.919    -0.032    28.796     8.800
    28   6 C        2.915    -0.030    28.747     8.792
    29   6 C        2.921    -0.038    28.950     8.823
    30   6 C        2.983     0.012    27.749     8.641
    31   6 C        2.914    -0.035    28.881     8.812
    32   6 C        2.915    -0.037    28.932     8.820
    33   6 C        2.983     0.013    27.728     8.638
    34   6 C        2.921    -0.039    28.973     8.827
    35   6 C        2.914    -0.032    28.795     8.799
    36   6 C        2.918    -0.042    29.053     8.839
    37   6 C        2.973    -0.002    28.081     8.692
    38   6 C        2.995    -0.002    28.059     8.689
    39   6 C        2.995    -0.004    28.112     8.697
    40   6 C        3.073     0.019    27.497     8.598
    41   7 N        2.841    -0.045    22.104     6.983
    42   6 C        2.913     0.069    26.457     8.435
    43   6 C        2.921    -0.037    28.909     8.817
    44   6 C        2.920    -0.027    28.676     8.781
    45   6 C        2.920    -0.030    28.744     8.792
    46   6 C        2.920    -0.025    28.639     8.776
    47   6 C        2.922    -0.038    28.933     8.821
    48   6 C        2.926    -0.029    28.716     8.788
    49   6 C        2.922    -0.031    28.775     8.797
    50   6 C        2.984     0.007    27.863     8.659
    51   6 C        2.917    -0.035    28.861     8.810
    52   6 C        2.914    -0.030    28.748     8.792
    53   6 C        2.914    -0.030    28.748     8.792
    54   6 C        2.917    -0.035    28.869     8.811
    55   6 C        2.984     0.006    27.872     8.660
    56   6 C        2.922    -0.031    28.778     8.797
    57   6 C        2.926    -0.029    28.714     8.788
    58   7 N        1.894    -0.290    28.374     7.897
    59   6 C        3.208     0.057    26.131     8.323
    60   6 C        2.979     0.002    27.968     8.675
    61   6 C        2.919    -0.032    28.796     8.800
    62   6 C        2.915    -0.030    28.747     8.792
    63   6 C        2.921    -0.038    28.951     8.823
    64   6 C        2.983     0.012    27.749     8.641
    65   6 C        2.914    -0.035    28.881     8.812
    66   6 C        2.915    -0.037    28.932     8.820
    67   6 C        2.983     0.013    27.729     8.638
    68   6 C        2.921    -0.039    28.973     8.827
    69   6 C        2.914    -0.032    28.795     8.799
    70   6 C        2.918    -0.042    29.053     8.839
    71   6 C        2.973    -0.002    28.081     8.692
    72   6 C        2.995    -0.002    28.059     8.689
    73   6 C        2.995    -0.004    28.112     8.697
    74   6 C        3.073     0.019    27.499     8.598
    75   6 C        2.921    -0.037    28.910     8.817
    76   6 C        2.920    -0.027    28.676     8.782
    77   1 H        0.926     0.039     2.456     2.451
    78   1 H        0.926     0.040     2.451     2.448
    79   1 H        0.926     0.039     2.463     2.454
    80   1 H        0.926     0.027     2.628     2.535
    81   1 H        0.926     0.032     2.555     2.500
    82   1 H        0.926     0.034     2.526     2.485
    83   1 H        0.926     0.030     2.583     2.513
    84   1 H        0.926     0.028     2.618     2.530
    85   1 H        0.926     0.030     2.593     2.518
    86   1 H        0.926     0.032     2.558     2.501
    87   1 H        0.926     0.027     2.629     2.536
    88   1 H        0.926     0.050     2.326     2.385
    89   1 H        0.926     0.030     2.583     2.513
    90   1 H        0.926     0.029     2.595     2.519
    91   1 H        0.926     0.031     2.578     2.511
    92   1 H        0.926     0.030     2.588     2.516
    93   1 H        0.926     0.029     2.597     2.520
    94   1 H        0.926     0.026     2.640     2.541
    95   1 H        0.926     0.025     2.663     2.552
    96   1 H        0.926     0.043     2.410     2.428
    97   1 H        0.926     0.040     2.446     2.446
    98   1 H        0.926     0.039     2.456     2.451
    99   1 H        0.926     0.040     2.449     2.447
   100   1 H        0.926     0.039     2.458     2.452
   101   1 H        0.926     0.052     2.299     2.371
   102   1 H        0.926     0.037     2.492     2.469
   103   1 H        0.926     0.034     2.525     2.485
   104   1 H        0.926     0.030     2.582     2.513
   105   1 H        0.926     0.027     2.622     2.532
   106   1 H        0.926     0.029     2.596     2.520
   107   1 H        0.926     0.037     2.491     2.468
   108   1 H        0.926     0.051     2.312     2.378
   109   1 H        0.926     0.050     2.325     2.384
   110   1 H        0.926     0.030     2.583     2.513
   111   1 H        0.926     0.029     2.595     2.519
   112   1 H        0.926     0.031     2.579     2.511
   113   1 H        0.926     0.030     2.589     2.516
   114   1 H        0.926     0.029     2.598     2.520
   115   1 H        0.926     0.026     2.640     2.541
   116   1 H        0.926     0.025     2.662     2.551
   117   1 H        0.926     0.043     2.410     2.428
   118   1 H        0.926     0.040     2.446     2.446

molecular dipole:
                 x           y           z       tot (Debye)
 q only:       -0.063       0.026       0.745
   full:       -0.088       0.015       1.185       3.020

 projected vibrational frequencies (cm⁻¹)
eigval :       -0.00    -0.00     0.00     0.00     0.00     0.00
eigval :        4.52     5.06     5.87    11.48    12.02    20.23
eigval :       25.05    29.58    31.48    36.48    42.67    47.46
eigval :       51.10    60.11    62.75    68.17    71.53    74.64
eigval :       75.22    78.32    87.92    90.53   115.53   122.55
eigval :      122.80   125.40   128.53   138.28   169.04   169.63
eigval :      178.44   185.85   193.32   206.91   210.32   211.86
eigval :      215.50   227.69   231.06   232.16   232.42   249.59
eigval :      264.50   274.50   278.26   281.31   292.73   305.81
eigval :      314.76   345.89   354.25   354.58   358.38   373.77
eigval :      374.30   376.23   378.07   379.83   386.32   386.99
eigval :      397.01   409.07   416.48   418.23   423.41   424.14
eigval :      438.19   440.72   441.30   443.06   449.38   453.98
eigval :      454.25   459.14   475.31   477.09   483.44   489.87
eigval :      489.88   496.46   507.97   522.07   523.15   529.12
eigval :      535.97   536.02   555.48   556.81   571.44   577.43
eigval :      579.84   583.13   584.00   587.18   588.42   596.66
eigval :      598.12   598.31   610.29   627.03   629.92   631.96
eigval :      638.11   640.31   645.50   657.72   664.42   666.52
eigval :      677.19   678.52   682.52   682.72   690.80   693.85
eigval :      696.65   699.61   701.11   703.50   709.66   710.97
eigval :      721.46   731.02   741.13   748.76   752.45   752.46
eigval :      764.09   764.38   775.28   775.91   776.01   776.61
eigval :      777.75   780.34   800.03   800.10   817.18   821.03
eigval :      840.14   840.17   872.85   875.14   875.87   876.03
eigval :      876.15   879.96   880.63   880.89   891.39   891.39
eigval :      893.81   893.85   898.46   902.00   902.42   904.44
eigval :      907.74   916.36   918.52   918.55   918.62   919.56
eigval :      921.82   921.84   923.48   925.82   925.83   926.91
eigval :      928.93   928.98   929.09   931.28   932.25   932.83
eigval :      932.92   932.97   935.00   937.32   957.91   958.88
eigval :      996.68   996.68  1003.71  1008.57  1029.93  1032.47
eigval :     1078.71  1078.84  1082.60  1083.58  1095.28  1095.43
eigval :     1110.14  1110.15  1115.66  1115.89  1124.32  1124.48
eigval :     1134.94  1135.91  1136.69  1138.46  1138.54  1146.83
eigval :     1160.03  1160.66  1180.29  1180.32  1181.68  1181.83
eigval :     1181.94  1185.58  1186.15  1186.22  1190.91  1191.10
eigval :     1195.06  1195.97  1202.91  1202.99  1216.05  1224.08
eigval :     1224.11  1224.63  1229.88  1234.79  1235.21  1245.55
eigval :     1245.80  1259.45  1262.24  1269.57  1271.45  1275.82
eigval :     1276.01  1300.21  1300.56  1301.94  1302.81  1312.99
eigval :     1313.63  1314.43  1314.68  1321.97  1324.47  1329.01
eigval :     1337.63  1340.23  1350.22  1365.31  1365.76  1374.50
eigval :     1377.54  1377.99  1384.79  1388.52  1388.84  1396.75
eigval :     1397.02  1400.05  1400.08  1401.87  1402.84  1418.51
eigval :     1421.65  1421.82  1429.11  1435.06  1435.21  1442.10
eigval :     1459.30  1465.11  1472.11  1477.98  1481.01  1484.48
eigval :     1486.03  1488.06  1491.83  1510.84  1511.25  1526.94
eigval :     1528.77  1532.53  1532.68  1541.28  1542.20  1544.13
eigval :     1558.25  1558.34  1567.17  1567.62  1581.50  1581.63
eigval :     1583.77  1583.90  1589.61  1589.64  1594.50  1594.62
eigval :     1597.05  1597.54  1608.47  1610.48  1610.50  1622.53
eigval :     3063.91  3063.94  3068.93  3068.94  3071.17  3071.23
eigval :     3073.26  3073.37  3077.51  3077.66  3077.85  3077.87
eigval :     3080.14  3080.34  3081.04  3081.55  3081.75  3081.75
eigval :     3081.87  3082.00  3083.62  3083.65  3083.72  3083.85
eigval :     3089.68  3089.80  3090.09  3090.24  3093.71  3094.65
eigval :     3095.00  3095.39  3095.79  3096.27  3101.90  3101.94
eigval :     3103.61  3104.87  3106.46  3106.47  3111.09  3111.79

   temp. (K)  partition function   enthalpy   heat capacity  entropy
                                   cal/mol     cal/K/mol   cal/K/mol   J/K/mol
 298.15  VIB  0.672E+28            33863.949    216.138    212.731
         ROT  0.414E+09              888.752      2.981     42.409
         INT  0.278E+37            34752.701    219.119    255.140
         TR   0.289E+29             1481.254      4.968     46.448
         TOT                       36233.9553   224.0867   301.5881  1261.8448

       T/K    H(0)-H(T)+PV         H(T)/Eh          T*S/Eh         G(T)/Eh
   ------------------------------------------------------------------------
    298.15    0.577425E-01    0.954409E+00    0.143294E+00    0.811115E+00
   ------------------------------------------------------------------------

         :::::::::::::::::::::::::::::::::::::::::::::::::::::
         ::                  THERMODYNAMIC                  ::
         :::::::::::::::::::::::::::::::::::::::::::::::::::::
         :: total free energy        -186.640862271754 Eh   ::
         ::.................................................::
         :: total energy             -187.451977156809 Eh   ::
         :: zero point energy           0.896666662572 Eh   ::
         :: G(RRHO) w/o ZPVE           -0.085551777517 Eh   ::
         :: G(RRHO) contrib.            0.811114885055 Eh   ::
         :::::::::::::::::::::::::::::::::::::::::::::::::::::

           -------------------------------------------------
          | TOTAL ENERGY             -187.451977156809 Eh   |
          | TOTAL ENTHALPY           -186.497568011034 Eh   |
          | TOTAL FREE ENERGY        -186.640862271754 Eh   |
          | GRADIENT NORM               0.000052998214 Eh/α |
          | HOMO-LUMO GAP               1.971139009639 eV   |
           -------------------------------------------------

 * finished run on 2025/09/08 at 09:27:51.655
