   * xtb version 6.7.1 (edcfbbe) compiled by 'albert@albert-system' on 2024-07-22

   ID    Z sym.   atoms
    1    6 C      1-4, 6-23, 25-40, 42-57, 59-76
    2    7 N      5, 24, 41, 58
    3    1 H      77-118

          program call               : xtb data2507/gas/C-BPyIA/C-BPyIA_gas_S0_crest.xyz --gfn 2 --ohess vtight --parallel 40 --molden --ceasefiles --namespace data2507/gas/C-BPyIA/C-BPyIA_gas_S0_finalOpt
          :  Hamiltonian                  GFN2-xTB          :
 * total energy  :  -187.4519691 Eh     change       -0.3813625E-08 Eh
 * total energy  :  -187.4519705 Eh     change       -0.1379891E-05 Eh
 * total energy  :  -187.4519725 Eh     change       -0.2017352E-05 Eh
 * total energy  :  -187.4519750 Eh     change       -0.2422670E-05 Eh
 * total energy  :  -187.4519766 Eh     change       -0.1662481E-05 Eh
 * total energy  :  -187.4519780 Eh     change       -0.1414498E-05 Eh
 * total energy  :  -187.4519795 Eh     change       -0.1431098E-05 Eh
 * total energy  :  -187.4519805 Eh     change       -0.1063346E-05 Eh
 * total energy  :  -187.4519812 Eh     change       -0.6672975E-06 Eh
 * total energy  :  -187.4519818 Eh     change       -0.5505409E-06 Eh
 * total energy  :  -187.4519858 Eh     change       -0.1054846E-05 Eh
 * total energy  :  -187.4519867 Eh     change       -0.8150639E-06 Eh
 * total energy  :  -187.4519874 Eh     change       -0.7391629E-06 Eh
 * total energy  :  -187.4519882 Eh     change       -0.7838434E-06 Eh
 * total energy  :  -187.4519890 Eh     change       -0.8207421E-06 Eh
 * total energy  :  -187.4519898 Eh     change       -0.7445600E-06 Eh
 * total energy  :  -187.4519903 Eh     change       -0.5789276E-06 Eh
 * total energy  :  -187.4519907 Eh     change       -0.3880127E-06 Eh
 * total energy  :  -187.4519907 Eh     change       -0.5176247E-08 Eh
   *** GEOMETRY OPTIMIZATION CONVERGED AFTER 22 ITERATIONS ***

 final structure:
================
118
 xtb: 6.7.1 (edcfbbe)
C            6.49924597690726       -4.00412274516746        2.25502352304851
C            6.18883865466087       -3.77563787067727        0.92490371740107
C            6.68395837552492       -2.65895656298148        0.27636364173703
C            7.49237919294083       -1.76352372084841        0.96686066877248
N            7.95029483458449       -0.60020528546814        0.31901830178896
C            7.13135384035324        0.37920288004559       -0.20026452251571
C            5.67898593700820        0.34013233975566       -0.14339489206008
C            4.98612252801755       -0.12361457694461        0.97346777062591
C            3.60700594704965       -0.17412177399321        0.96404926298568
C            2.88585451498703        0.24448929630290       -0.15059011451213
C            1.41270958053703        0.14764037890503       -0.16328571492856
C            0.63172204967517        1.31203217814065       -0.16593380082277
C            1.21818573594579        2.60459155602679       -0.12676428287685
C            0.45111319642304        3.72808246031107       -0.15274750733363
C           -0.95263739226031        3.62856961328270       -0.22412878632236
C           -1.55517316708873        2.40863644688310       -0.23822165302517
C           -0.79402582175689        1.21083702295499       -0.18724651598964
C           -1.40358121646389       -0.05239844056978       -0.17430845131392
C           -2.87655059146377       -0.15173954513762       -0.17092795446658
C           -3.60651786435194        0.27999532234683        0.93291229963454
C           -4.98507265597582        0.21490674326246        0.93830828155223
C           -5.66886542417166       -0.27776417931058       -0.17174029714909
C           -7.12007976168906       -0.34887469232321       -0.22599280203371
N           -7.77895132159255       -1.34466097563688       -0.76189465672119
C           -9.09597782441310       -1.05094696199713       -0.60465047878653
C          -10.21767702635839       -1.83887640842701       -0.99163123661419
C          -10.09242479697331       -3.07950427919673       -1.60593802013374
C          -11.22152409426958       -3.80761139580383       -1.93980448318593
C          -12.47927647640761       -3.30687988791005       -1.66863910955403
C          -12.64172339517928       -2.06000021267825       -1.05806475294355
C          -13.93434574447665       -1.52615195666328       -0.78514222400631
C          -14.07911620616420       -0.30669089406994       -0.22059316418876
C          -12.94793864566634        0.48808810936439        0.12874871724064
C          -13.10566154544362        1.76122764878754        0.68279357199234
C          -12.00587641270737        2.53370484560676        0.98937590532539
C          -10.72529734693172        2.04900806538196        0.78397868784788
C          -10.51974575944056        0.77143385958484        0.26647237653372
C          -11.64608366866043       -0.02175945833913       -0.10072926774870
C          -11.49753882540187       -1.30167706551552       -0.70673789074142
C           -9.24381352103182        0.17957592892156        0.03751392155202
N           -7.96179975940601        0.61558608399915        0.28451324288637
C           -7.53150385589737        1.80024271537439        0.91221060296263
C           -7.84232321374539        2.03914372082161        2.24746325257138
C           -7.37544449098800        3.18526854561687        2.86395772749839
C           -6.59388409218788        4.08723142243663        2.15984493992103
C           -6.28221022777171        3.84535326291512        0.83239172505158
C           -6.74954814508484        2.70535168510351        0.20411199629458
C           -4.93800459268975       -0.74272483612895       -1.26478769410031
C           -3.56015382629503       -0.67782861502233       -1.26451967465929
C           -0.62250332282094       -1.21690907007436       -0.15812489147185
C           -1.20876370444082       -2.50929118967617       -0.10986896910030
C           -0.44128947666305       -3.63280506062447       -0.11822660634161
C            0.96292983551097       -3.53376157118054       -0.17928277436508
C            1.56521661523480       -2.31383039581393       -0.20060679650932
C            0.80334760659014       -1.11579255233849       -0.16845587598547
C            3.57852591285284        0.74852709879562       -1.24875440379127
C            4.95704316664991        0.79816488953954       -1.24521707363781
N            7.81308796711947        1.34946215630289       -0.75385919466050
C            9.12284234166416        1.02253673788830       -0.60074674780769
C           10.26284065208030        1.77302589357076       -1.00813043165395
C           10.16719379915813        3.00844081472073       -1.63806825188637
C           11.31335768798867        3.69899019771937       -1.99290590725684
C           12.55884134559511        3.16535652422988       -1.72792253590072
C           12.69147100511666        1.92244544598986       -1.10224366797883
C           13.97087327203995        1.35436394162897       -0.83619647557133
C           14.08619440946563        0.13908753983400       -0.25605321851631
C           12.93621581879873       -0.61677314480408        0.11742704377658
C           13.06278726827359       -1.88564707903442        0.68897891076479
C           11.94438500504710       -2.62060472066379        1.01951840426720
C           10.67631888231505       -2.10176503411163        0.82002493721916
C           10.50248009961604       -0.82688417009376        0.28456133943871
C           11.64736548191661       -0.07225541541078       -0.10572438439797
C           11.52953916882357        1.20281687480524       -0.72847281619079
C            9.24180388320069       -0.20251429458369        0.05765919990876
C            7.80247387366792       -1.98917548044932        2.30456930408957
C            7.30779707974309       -3.11232253954053        2.94136641783161
H            6.11069149448373       -4.87640855031103        2.75827559113554
H            5.55974803436119       -4.46972958827424        0.38831154737461
H            6.44698710810728       -2.47056721923003       -0.76032783575131
H            5.52087837371408       -0.43090093345023        1.85951052722852
H            3.07546188148097       -0.53682749754324        1.83215411354223
H            2.29378827465031        2.68162773661752       -0.07255838168264
H            0.91207514246823        4.70438722460333       -0.12279036142205
H           -1.54549752956816        4.53076535431370       -0.26361632966159
H           -2.63139132840420        2.33450026825947       -0.29074432303265
H           -3.08218969507991        0.66207252767956        1.79709450115416
H           -5.52614548109264        0.53128797748096        1.81728362816029
H           -9.10150798740778       -3.45501035181449       -1.80784323631217
H          -11.11777121803466       -4.77262707216003       -2.41455156165681
H          -13.35917148698121       -3.87718424616412       -1.93128581540973
H          -14.79778357151704       -2.12050364180298       -1.04922105688475
H          -15.06149106786626        0.09923724904362       -0.02371800761546
H          -14.10305801901441        2.13929728902830        0.85554173483557
H          -12.13784370054530        3.52660543653214        1.39454582229920
H           -9.88203715139030        2.67899247086636        1.01885034289776
H           -8.44614111667588        1.32539827558366        2.78905592163020
H           -7.61798963400585        3.37083144902181        3.89956822260405
H           -6.22734335136593        4.97788022031730        2.64719461654073
H           -5.67397795103040        4.54716390007755        0.28196653650208
H           -6.51125794013190        2.50640067885722       -0.83029734911291
H           -5.47284591221366       -1.14672414377814       -2.11022079607730
H           -3.00027078892471       -1.02386587326356       -2.12144463392442
H           -2.28465038165309       -2.58660075825111       -0.06298750113006
H           -0.90240450078148       -4.60881508476902       -0.08186715386117
H            1.55625750239993       -4.43616123122334       -0.20479883972949
H            2.64183123657836       -2.23995673827924       -0.24447184290114
H            3.02530293583064        1.08687487982812       -2.11303300345272
H            5.49931164753287        1.18197090666195       -2.09532333447652
H            9.18551147298440        3.40977261922582       -1.83536202976116
H           11.23263694692261        4.66032579112674       -2.47944643644479
H           13.45209724977333        3.70613610595595       -2.00737343474636
H           14.84833402085754        1.91913276498674       -1.11836505111144
H           15.05838638567419       -0.29305221363699       -0.06449673796973
H           14.05055831612596       -2.29034988725406        0.85662267760378
H           12.05178036747131       -3.61057463986450        1.43887694770171
H            9.81765693099279       -2.70300719948829        1.07367397164047
H            8.42741140980888       -1.28318003474021        2.83219636851397
H            7.54962163041326       -3.28755501319773        3.97894627050995

          :  Hamiltonian                  GFN2-xTB          :
         :: gradient norm              0.000050678956 Eh/a0 ::
         :: HOMO-LUMO gap              1.970726968125 eV    ::
         :: SCC energy              -191.027766539045 Eh    ::
         :: -> dispersion             -0.186019028868 Eh    ::
         :: repulsion energy           3.575775816432 Eh    ::

    * Orbital Energies and Occupations

         #    Occupation            Energy/Eh            Energy/eV
      -------------------------------------------------------------
         1        2.0000           -0.6857788             -18.6610
       ...           ...                  ...                  ...
       163        2.0000           -0.4021552             -10.9432
       164        2.0000           -0.4010568             -10.9133
       165        2.0000           -0.4005261             -10.8989
       166        2.0000           -0.4003533             -10.8942
       167        2.0000           -0.3871651             -10.5353
       168        2.0000           -0.3862833             -10.5113
       169        2.0000           -0.3818473             -10.3906
       170        2.0000           -0.3817105             -10.3869
       171        2.0000           -0.3749948             -10.2041
       172        2.0000           -0.3749647             -10.2033
       173        2.0000           -0.3606496              -9.8138
       174        2.0000           -0.3558820              -9.6840
       175        2.0000           -0.3549155              -9.6577 (HOMO)
       176                         -0.2824926              -7.6870 (LUMO)
       177                         -0.2687055              -7.3118
       178                         -0.2684810              -7.3057
       179                         -0.2531866              -6.8896
       180                         -0.2524201              -6.8687
       181                         -0.2432902              -6.6203
       182                         -0.2432593              -6.6194
       183                         -0.2425751              -6.6008
       184                         -0.2425603              -6.6004
       185                         -0.2337951              -6.3619
       186                         -0.2337853              -6.3616
       ...                                ...                  ...
       346                          0.7360935              20.0301
      -------------------------------------------------------------
                  HL-Gap            0.0724229 Eh            1.9707 eV

     #   Z          covCN         q      C6AA      α(0)
     1   6 C        2.920    -0.030    28.744     8.792
     2   6 C        2.920    -0.025    28.639     8.776
     3   6 C        2.922    -0.038    28.935     8.821
     4   6 C        2.913     0.069    26.460     8.435
     5   7 N        2.841    -0.045    22.106     6.983
     6   6 C        3.194     0.127    24.745     8.111
     7   6 C        2.974     0.001    28.011     8.682
     8   6 C        2.921    -0.035    28.864     8.810
     9   6 C        2.924    -0.032    28.808     8.802
    10   6 C        2.977     0.017    27.636     8.623
    11   6 C        2.977    -0.006    28.174     8.707
    12   6 C        2.984     0.007    27.862     8.659
    13   6 C        2.917    -0.035    28.859     8.809
    14   6 C        2.914    -0.030    28.747     8.792
    15   6 C        2.914    -0.030    28.748     8.792
    16   6 C        2.917    -0.035    28.867     8.810
    17   6 C        2.984     0.006    27.872     8.660
    18   6 C        2.977    -0.006    28.174     8.707
    19   6 C        2.977     0.017    27.636     8.623
    20   6 C        2.924    -0.032    28.808     8.802
    21   6 C        2.921    -0.035    28.865     8.810
    22   6 C        2.974     0.001    28.012     8.682
    23   6 C        3.194     0.127    24.746     8.111
    24   7 N        1.894    -0.290    28.378     7.897
    25   6 C        3.208     0.057    26.131     8.323
    26   6 C        2.979     0.002    27.968     8.675
    27   6 C        2.919    -0.032    28.796     8.800
    28   6 C        2.915    -0.030    28.747     8.792
    29   6 C        2.921    -0.038    28.950     8.823
    30   6 C        2.983     0.012    27.749     8.641
    31   6 C        2.914    -0.035    28.881     8.812
    32   6 C        2.915    -0.037    28.932     8.820
    33   6 C        2.983     0.013    27.728     8.638
    34   6 C        2.921    -0.039    28.973     8.827
    35   6 C        2.914    -0.032    28.795     8.799
    36   6 C        2.918    -0.042    29.054     8.839
    37   6 C        2.973    -0.002    28.081     8.692
    38   6 C        2.995    -0.002    28.059     8.689
    39   6 C        2.995    -0.004    28.112     8.697
    40   6 C        3.073     0.019    27.498     8.598
    41   7 N        2.841    -0.045    22.104     6.983
    42   6 C        2.913     0.069    26.460     8.435
    43   6 C        2.921    -0.037    28.910     8.817
    44   6 C        2.920    -0.027    28.676     8.782
    45   6 C        2.920    -0.030    28.745     8.792
    46   6 C        2.920    -0.026    28.640     8.776
    47   6 C        2.922    -0.038    28.936     8.821
    48   6 C        2.926    -0.029    28.715     8.788
    49   6 C        2.922    -0.031    28.776     8.797
    50   6 C        2.984     0.007    27.862     8.659
    51   6 C        2.917    -0.035    28.860     8.810
    52   6 C        2.914    -0.030    28.747     8.792
    53   6 C        2.914    -0.030    28.747     8.792
    54   6 C        2.917    -0.035    28.867     8.811
    55   6 C        2.984     0.006    27.872     8.660
    56   6 C        2.922    -0.031    28.777     8.797
    57   6 C        2.926    -0.029    28.715     8.788
    58   7 N        1.894    -0.290    28.376     7.897
    59   6 C        3.208     0.057    26.131     8.323
    60   6 C        2.979     0.002    27.968     8.675
    61   6 C        2.919    -0.032    28.796     8.800
    62   6 C        2.915    -0.030    28.747     8.792
    63   6 C        2.921    -0.038    28.950     8.823
    64   6 C        2.983     0.012    27.749     8.641
    65   6 C        2.914    -0.035    28.881     8.812
    66   6 C        2.915    -0.037    28.932     8.820
    67   6 C        2.983     0.013    27.728     8.638
    68   6 C        2.921    -0.039    28.973     8.827
    69   6 C        2.914    -0.032    28.795     8.799
    70   6 C        2.918    -0.042    29.054     8.839
    71   6 C        2.973    -0.002    28.081     8.692
    72   6 C        2.995    -0.002    28.059     8.689
    73   6 C        2.995    -0.004    28.112     8.697
    74   6 C        3.073     0.019    27.498     8.598
    75   6 C        2.921    -0.037    28.910     8.817
    76   6 C        2.920    -0.027    28.676     8.782
    77   1 H        0.926     0.039     2.456     2.451
    78   1 H        0.926     0.040     2.451     2.448
    79   1 H        0.926     0.039     2.462     2.454
    80   1 H        0.926     0.027     2.627     2.535
    81   1 H        0.926     0.032     2.556     2.500
    82   1 H        0.926     0.034     2.526     2.486
    83   1 H        0.926     0.030     2.582     2.513
    84   1 H        0.926     0.028     2.620     2.531
    85   1 H        0.926     0.029     2.595     2.519
    86   1 H        0.926     0.032     2.556     2.500
    87   1 H        0.926     0.027     2.628     2.535
    88   1 H        0.926     0.050     2.325     2.384
    89   1 H        0.926     0.030     2.583     2.513
    90   1 H        0.926     0.029     2.595     2.519
    91   1 H        0.926     0.031     2.579     2.511
    92   1 H        0.926     0.030     2.589     2.516
    93   1 H        0.926     0.029     2.597     2.520
    94   1 H        0.926     0.026     2.640     2.541
    95   1 H        0.926     0.025     2.661     2.551
    96   1 H        0.926     0.043     2.410     2.428
    97   1 H        0.926     0.040     2.446     2.446
    98   1 H        0.926     0.039     2.456     2.451
    99   1 H        0.926     0.040     2.450     2.448
   100   1 H        0.926     0.039     2.461     2.453
   101   1 H        0.926     0.051     2.309     2.376
   102   1 H        0.926     0.037     2.491     2.468
   103   1 H        0.926     0.034     2.525     2.485
   104   1 H        0.926     0.030     2.582     2.513
   105   1 H        0.926     0.028     2.621     2.532
   106   1 H        0.926     0.029     2.596     2.520
   107   1 H        0.926     0.037     2.491     2.468
   108   1 H        0.926     0.051     2.308     2.376
   109   1 H        0.926     0.050     2.325     2.384
   110   1 H        0.926     0.030     2.583     2.513
   111   1 H        0.926     0.029     2.595     2.519
   112   1 H        0.926     0.031     2.579     2.511
   113   1 H        0.926     0.030     2.589     2.516
   114   1 H        0.926     0.029     2.598     2.520
   115   1 H        0.926     0.026     2.640     2.541
   116   1 H        0.926     0.025     2.662     2.551
   117   1 H        0.926     0.043     2.410     2.428
   118   1 H        0.926     0.040     2.446     2.446

molecular dipole:
                 x           y           z       tot (Debye)
 q only:       -0.020       0.017       0.730
   full:       -0.030       0.015       1.163       2.957

 projected vibrational frequencies (cm⁻¹)
eigval :       -0.00    -0.00    -0.00    -0.00     0.00     0.00
eigval :        4.36     5.06     5.79    11.31    11.99    20.15
eigval :       25.00    29.53    31.44    36.47    42.95    47.84
eigval :       51.14    60.03    63.06    68.32    71.44    74.76
eigval :       74.97    78.24    87.92    90.51   115.44   122.48
eigval :      122.76   125.35   128.56   138.21   169.11   169.49
eigval :      178.50   185.84   193.20   206.97   210.31   211.86
eigval :      215.62   227.76   231.10   232.10   232.35   249.55
eigval :      264.54   274.40   278.34   281.36   292.70   305.81
eigval :      314.75   345.86   354.24   354.55   358.30   373.90
eigval :      374.16   376.32   378.16   379.86   386.30   386.94
eigval :      397.01   409.06   416.51   418.22   423.39   424.00
eigval :      438.19   440.80   441.29   443.03   449.36   453.98
eigval :      454.25   459.12   475.34   477.07   483.37   489.88
eigval :      489.89   496.40   508.01   522.19   523.09   529.32
eigval :      535.99   536.02   555.46   556.77   571.45   577.43
eigval :      579.82   583.14   584.00   587.17   588.38   596.68
eigval :      598.13   598.19   610.25   627.03   629.93   631.89
eigval :      638.09   640.35   645.50   657.78   664.54   666.64
eigval :      677.30   678.58   682.51   682.70   690.80   693.83
eigval :      696.73   699.62   701.12   703.52   709.68   711.01
eigval :      721.50   731.13   741.12   748.85   752.44   752.46
eigval :      764.12   764.41   775.27   775.96   776.00   776.60
eigval :      777.74   780.33   800.06   800.09   817.16   821.01
eigval :      840.15   840.16   872.90   875.14   875.96   876.07
eigval :      876.10   879.93   880.82   880.88   891.38   891.39
eigval :      893.84   893.85   898.47   902.19   902.50   904.53
eigval :      907.77   916.35   918.53   918.54   918.62   919.52
eigval :      921.83   921.83   923.40   925.82   925.82   926.91
eigval :      928.90   929.08   929.10   931.21   932.17   932.89
eigval :      932.97   933.00   935.06   937.39   957.93   958.90
eigval :      996.69   996.69  1003.75  1008.59  1029.97  1032.52
eigval :     1078.81  1078.81  1082.70  1083.39  1095.32  1095.33
eigval :     1110.14  1110.15  1115.84  1115.84  1124.43  1124.52
eigval :     1134.95  1135.88  1136.52  1138.47  1138.50  1146.83
eigval :     1160.12  1160.73  1180.30  1180.32  1181.69  1181.83
eigval :     1181.94  1185.56  1186.20  1186.20  1191.03  1191.07
eigval :     1194.99  1195.83  1202.92  1202.95  1216.04  1224.08
eigval :     1224.10  1224.71  1229.86  1234.75  1235.18  1245.61
eigval :     1245.65  1259.45  1262.35  1269.49  1271.40  1275.97
eigval :     1275.98  1300.28  1300.48  1302.01  1302.73  1313.08
eigval :     1313.54  1314.50  1314.68  1321.97  1324.41  1329.09
eigval :     1337.59  1340.07  1350.24  1365.45  1365.48  1374.62
eigval :     1377.60  1378.04  1384.92  1388.65  1388.87  1396.79
eigval :     1397.06  1400.07  1400.10  1401.91  1402.83  1418.58
eigval :     1421.72  1421.84  1429.14  1435.17  1435.19  1442.19
eigval :     1459.49  1465.27  1472.14  1478.11  1481.05  1484.52
eigval :     1486.10  1488.15  1491.97  1511.18  1511.25  1526.97
eigval :     1528.98  1532.64  1532.67  1541.81  1543.49  1543.78
eigval :     1558.33  1558.43  1567.49  1567.65  1581.61  1581.63
eigval :     1583.87  1583.88  1589.66  1589.67  1594.58  1594.59
eigval :     1597.40  1597.66  1608.47  1610.48  1610.48  1622.54
eigval :     3063.96  3063.96  3068.95  3068.96  3071.20  3071.23
eigval :     3073.26  3073.31  3077.53  3077.69  3077.89  3077.89
eigval :     3080.13  3080.31  3081.02  3081.51  3081.76  3081.77
eigval :     3081.88  3081.92  3083.64  3083.66  3083.69  3083.72
eigval :     3089.62  3089.76  3090.03  3090.15  3094.01  3094.13
eigval :     3095.09  3095.14  3095.40  3096.16  3101.90  3101.92
eigval :     3103.94  3104.05  3106.46  3106.49  3111.30  3111.37

   temp. (K)  partition function   enthalpy   heat capacity  entropy
                                   cal/mol     cal/K/mol   cal/K/mol   J/K/mol
 298.15  VIB  0.715E+28            33863.946    216.148    212.806
         ROT  0.412E+09              888.752      2.981     42.403
         INT  0.295E+37            34752.699    219.129    255.209
         TR   0.289E+29             1481.254      4.968     46.448
         TOT                       36233.9525   224.0970   301.6577  1262.1357

       T/K    H(0)-H(T)+PV         H(T)/Eh          T*S/Eh         G(T)/Eh
   ------------------------------------------------------------------------
    298.15    0.577425E-01    0.954420E+00    0.143327E+00    0.811092E+00
   ------------------------------------------------------------------------

         :::::::::::::::::::::::::::::::::::::::::::::::::::::
         ::                  THERMODYNAMIC                  ::
         :::::::::::::::::::::::::::::::::::::::::::::::::::::
         :: total free energy        -186.640898451119 Eh   ::
         ::.................................................::
         :: total energy             -187.451990722608 Eh   ::
         :: zero point energy           0.896677092265 Eh   ::
         :: G(RRHO) w/o ZPVE           -0.085584820775 Eh   ::
         :: G(RRHO) contrib.            0.811092271489 Eh   ::
         :::::::::::::::::::::::::::::::::::::::::::::::::::::

           -------------------------------------------------
          | TOTAL ENERGY             -187.451990722608 Eh   |
          | TOTAL ENTHALPY           -186.497571151525 Eh   |
          | TOTAL FREE ENERGY        -186.640898451119 Eh   |
          | GRADIENT NORM               0.000050663042 Eh/α |
          | HOMO-LUMO GAP               1.970726906744 eV   |
           -------------------------------------------------

 * finished run on 2025/09/08 at 09:38:40.355
