   * xtb version 6.7.1 (edcfbbe) compiled by 'albert@albert-system' on 2024-07-22

   ID    Z sym.   atoms
    1    6 C      1-4, 6-23, 25-40, 42-57, 59-76
    2    7 N      5, 24, 41, 58
    3    1 H      77-118

          program call               : xtb data2507/gas/C-BPyIA/C-BPyIA_gas_T1_crest.xyz --gfn 2 --spinpol --tblite --uhf 2 --ohess vtight --parallel 40 --molden --ceasefiles --namespace data2507/gas/C-BPyIA/C-BPyIA_gas_T1_finalOpt
 * total energy  :  -187.3898723 Eh     change       -0.3224292E-07 Eh
 * total energy  :  -187.3899389 Eh     change       -0.6659885E-04 Eh
 * total energy  :  -187.3899690 Eh     change       -0.3013367E-04 Eh
 * total energy  :  -187.3899806 Eh     change       -0.1153359E-04 Eh
 * total energy  :  -187.3899913 Eh     change       -0.1075079E-04 Eh
 * total energy  :  -187.3899995 Eh     change       -0.8152713E-05 Eh
 * total energy  :  -187.3900083 Eh     change       -0.8855742E-05 Eh
 * total energy  :  -187.3900183 Eh     change       -0.1000904E-04 Eh
 * total energy  :  -187.3900273 Eh     change       -0.8958357E-05 Eh
 * total energy  :  -187.3900312 Eh     change       -0.3909112E-05 Eh
 * total energy  :  -187.3900797 Eh     change       -0.1753581E-05 Eh
 * total energy  :  -187.3900813 Eh     change       -0.1576071E-05 Eh
 * total energy  :  -187.3900832 Eh     change       -0.1924850E-05 Eh
 * total energy  :  -187.3900849 Eh     change       -0.1673263E-05 Eh
 * total energy  :  -187.3900866 Eh     change       -0.1719301E-05 Eh
 * total energy  :  -187.3900884 Eh     change       -0.1793396E-05 Eh
 * total energy  :  -187.3900883 Eh     change        0.1328460E-06 Eh
 * total energy  :  -187.3900884 Eh     change       -0.1474970E-06 Eh
 * total energy  :  -187.3900884 Eh     change       -0.6190533E-09 Eh
   *** GEOMETRY OPTIMIZATION CONVERGED AFTER 46 ITERATIONS ***

 final structure:
================
118
 xtb: 6.7.1 (edcfbbe)
C            6.82747602508139       -4.42148014568332        1.69725412451988
C            6.52596666349031       -4.05274854161861        0.39681563947350
C            6.92925850625854       -2.82230012075612       -0.08937253457378
C            7.63669791998614       -1.95522531859624        0.73507194618791
N            8.01060665438759       -0.68587323208788        0.25188885107523
C            7.13297124102593        0.30599639508636       -0.13619000263532
C            5.68963627208539        0.21403397776952       -0.08009168504589
C            4.99943693023453       -0.52084898496840        0.88733740950272
C            3.62410175406215       -0.57446991355629        0.87382758108156
C            2.87712400707012        0.12014162891480       -0.08562456389861
C            1.42357304518170        0.05114773287246       -0.09235209992238
C            0.64992975897696        1.25450839577032       -0.06421108461658
C            1.24937628253469        2.51163167843866        0.05338555647192
C            0.49976186681578        3.68255436474396       -0.00457627958885
C           -0.86510032454046        3.61422900736155       -0.18691204705278
C           -1.49459615201812        2.37434421346308       -0.24055152653386
C           -0.77298051799381        1.18323824190314       -0.12175515109494
C           -1.42387090318503       -0.09093961020394       -0.08671768327313
C           -2.87748410146400       -0.15852059348323       -0.07416837994145
C           -3.61951115650470        0.54037110074929        0.88602626107416
C           -4.99499325531685        0.49323387890197        0.90209260464609
C           -5.69037311595399       -0.23868305968405       -0.06391423167176
C           -7.13434312136119       -0.31800969475124       -0.12198623776073
N           -7.77337551758594       -1.37865664102300       -0.55733485442571
C           -9.09376004656537       -1.09226552838930       -0.45681907108977
C          -10.19626779462876       -1.93441072876195       -0.77971022910033
C          -10.03998588891069       -3.23206834624065       -1.25270953467335
C          -11.15115840674093       -4.00827487038132       -1.53524118767687
C          -12.42124932853608       -3.49923293332151       -1.35226469482264
C          -12.61462467017398       -2.19644717984648       -0.88293921972789
C          -13.92015672140178       -1.65570917281671       -0.70161630274792
C          -14.09405670003144       -0.38596336734252       -0.27187963955754
C          -12.98203139219458        0.45707529552586        0.02069066687390
C          -13.17033069180383        1.77812334980449        0.43660239861206
C          -12.08868420991540        2.59423169655063        0.69010390108141
C          -10.79724703258611        2.11110582253125        0.56547060811782
C          -10.56131144896231        0.79091032083414        0.18449403412655
C          -11.66856982174863       -0.05382453146220       -0.12315919856929
C          -11.48931449942626       -1.38843301406491       -0.58596123624249
C           -9.27267116404946        0.20057355444232        0.04406919456662
N           -8.00319029655858        0.68231637313223        0.26434252747190
C           -7.61854428723087        1.94768915452337        0.74969442729621
C           -7.91799080408760        2.31537913703417        2.05819750618264
C           -7.50381348217890        3.54553020504865        2.53457391939239
C           -6.78852704664209        4.40527816160045        1.71628254963782
C           -6.49010558883903        4.03631529193812        0.41518545391080
C           -6.90378545875780        2.81021022177118       -0.07320086615925
C           -4.95491484040352       -0.96170054955716       -1.00981027091691
C           -3.58067465045769       -0.92636834990322       -1.01257360397931
C           -0.65019750153752       -1.29412525786975       -0.05742656384250
C           -1.24949418044892       -2.55073832395206        0.06627320288868
C           -0.50010975740015       -3.72190975434527        0.01020666613457
C            0.86419635566937       -3.65433415251782       -0.17665176295181
C            1.49364933493848       -2.41469137611080       -0.23704600024087
C            0.77252281918944       -1.22311859278343       -0.12022763178925
C            3.57525907192561        0.88798418013541       -1.02787704297899
C            4.94925389545553        0.93034409037083       -1.02720888278817
N            7.76253269349585        1.37367815127869       -0.56807799102630
C            9.08542613320511        1.10085841315221       -0.46295866128833
C           10.18021257378867        1.95559041564817       -0.77894421962807
C           10.01205244075306        3.25249205790340       -1.24993533261057
C           11.11603064293872        4.04178386204345       -1.52426661215413
C           12.39069667039159        3.54658534710415       -1.33518849939378
C           12.59601141748658        2.24485279243784       -0.86800796134361
C           13.90645582035214        1.71821103827333       -0.68072904409424
C           14.09208183142602        0.44927351945953       -0.25352317872077
C           12.98790922949343       -0.40684356789681        0.03073523261026
C           13.18856203092895       -1.72691363696568        0.44397023078814
C           12.11465438852539       -2.55557200014807        0.68954609893178
C           10.81863578270051       -2.08621337508408        0.55989232064927
C           10.57018032003733       -0.76756760816056        0.18152645515062
C           11.66966152799240        0.08995021085560       -0.11863117265520
C           11.47816522090163        1.42360392516636       -0.57927755193826
C            9.27589105431865       -0.19073618969519        0.03687534892300
C            7.93904152461225       -2.32261481535068        2.04298546762106
C            7.53531285601614       -3.55709953960788        2.51714523275574
H            6.51048625959302       -5.38223952609829        2.07355590267149
H            5.97580012758822       -4.72564461668518       -0.24341573113250
H            6.69710296681781       -2.52288021048977       -1.10063417835020
H            5.53587926919566       -1.02922904157534        1.67381473563620
H            3.10449253785892       -1.12745166015601        1.64310550881310
H            2.31628229915300        2.58055908452342        0.19896769135895
H            0.99615961272338        4.63772521566084        0.07978767037251
H           -1.45371801427542        4.51547785980619       -0.27376292919529
H           -2.56405305338641        2.33612088271735       -0.38136607709587
H           -3.09585463668646        1.09254442035460        1.65314976579187
H           -5.52756644947117        1.00521002266477        1.68883659556851
H           -9.03964686554112       -3.61263089201914       -1.38739535559124
H          -11.02334389630461       -5.01700365955424       -1.90050933397378
H          -13.28718057436443       -4.10662571979513       -1.57506142551943
H          -14.76921540522748       -2.28668181940004       -0.92392795093735
H          -15.08598470926759        0.02408203078313       -0.14346755028470
H          -14.17660293078927        2.15654467539134        0.54490267057957
H          -12.24357897200871        3.62073919433994        0.98947901816555
H           -9.96892956487438        2.77451929248900        0.75659205791326
H           -8.47174676727312        1.63452626576794        2.68833142512291
H           -7.73605878513166        3.83075920368466        3.54966850218489
H           -6.46336993904538        5.36261752913251        2.09431359604486
H           -5.93425588875589        4.70570310687741       -0.22382645721670
H           -6.67414576276512        2.51059428087985       -1.08498586332069
H           -5.49474617311832       -1.53877244322220       -1.74422844535350
H           -3.02942665025423       -1.46062367172439       -1.77272643282668
H           -2.31599151359667       -2.61886700410906        0.21515690294964
H           -0.99623837775474       -4.67675166317333        0.09961278457103
H            1.45245788615374       -4.55593966194806       -0.26195570809651
H            2.56261293803176       -2.37705961764223       -0.38163733214622
H            3.02018298919880        1.41761306459847       -1.78848749535973
H            5.48501845294614        1.50876555866700       -1.76355031490564
H            9.00827491674062        3.62214696107426       -1.38937557787337
H           10.97898549469600        5.04992319502637       -1.88782578163392
H           13.25100295545623        4.16424771444875       -1.55144567381116
H           14.74966081930122        2.35922129879181       -0.89653931377708
H           15.08778855470542        0.04990499993643       -0.12077681463155
H           14.19836379737747       -2.09457118277170        0.55643702003632
H           12.27928620763346       -3.58121140828572        0.98669759434831
H            9.99665792769872       -2.75919063240179        0.74489946380354
H            8.48689951661369       -1.63820917361236        2.67440903702848
H            7.76991157660838       -3.84212234491681        3.53175011326225

 projected vibrational frequencies (cm⁻¹)
eigval :       -0.00    -0.00    -0.00     0.00     0.00     0.00
eigval :        4.67     5.22     6.27    13.36    13.46    20.00
eigval :       24.91    29.90    32.11    41.20    42.18    45.48
eigval :       50.44    55.32    62.02    66.99    73.47    76.04
eigval :       80.32    82.80    90.95    92.63   123.03   123.37
eigval :      124.05   124.53   141.56   145.11   173.28   173.54
eigval :      178.34   186.35   198.00   206.82   210.31   213.19
eigval :      213.85   231.08   231.90   232.47   233.21   259.94
eigval :      266.03   275.31   278.28   280.60   291.30   304.44
eigval :      317.60   345.77   354.09   354.66   357.37   364.94
eigval :      374.73   376.33   376.43   378.67   382.38   384.59
eigval :      394.76   398.56   413.31   417.72   418.17   423.17
eigval :      423.94   425.29   440.40   441.54   445.89   453.33
eigval :      453.50   471.61   472.77   474.18   485.66   489.84
eigval :      489.91   497.01   507.39   519.85   521.57   525.73
eigval :      535.21   535.23   554.92   555.58   568.24   569.75
eigval :      577.81   578.16   582.03   583.29   585.62   592.49
eigval :      597.53   598.04   604.10   616.36   622.88   631.62
eigval :      632.35   640.39   644.07   658.54   662.60   663.95
eigval :      673.59   676.27   678.29   682.06   682.33   689.94
eigval :      693.57   698.40   699.43   702.02   704.96   707.90
eigval :      718.69   721.16   729.17   745.08   750.78   752.34
eigval :      752.35   762.57   764.03   764.07   775.17   775.21
eigval :      777.87   779.78   799.30   799.33   819.09   823.45
eigval :      839.94   839.96   848.11   854.62   868.03   875.41
eigval :      875.70   876.53   879.93   879.99   891.64   891.65
eigval :      892.55   893.40   893.42   895.22   895.38   901.20
eigval :      901.80   903.09   905.75   906.48   907.15   918.40
eigval :      918.42   921.71   921.73   925.77   925.78   927.87
eigval :      928.89   928.94   929.47   932.59   932.63   934.30
eigval :      935.80   936.95   937.29   946.64   956.87   957.53
eigval :      996.30   996.31  1000.81  1004.73  1025.90  1027.67
eigval :     1078.40  1078.40  1095.74  1095.81  1103.42  1106.81
eigval :     1109.82  1109.85  1115.17  1115.18  1117.12  1122.36
eigval :     1122.43  1127.86  1138.37  1138.41  1139.80  1140.46
eigval :     1159.17  1159.27  1180.28  1180.28  1181.43  1181.60
eigval :     1182.10  1182.90  1183.51  1185.61  1185.63  1190.29
eigval :     1190.45  1192.84  1201.69  1201.97  1204.85  1205.22
eigval :     1223.83  1223.84  1233.78  1233.90  1234.33  1245.71
eigval :     1245.74  1254.75  1264.71  1270.89  1275.15  1275.26
eigval :     1275.53  1292.19  1299.81  1300.14  1301.26  1302.71
eigval :     1309.92  1312.87  1313.17  1314.60  1319.29  1322.93
eigval :     1323.73  1333.14  1333.98  1339.22  1358.82  1359.61
eigval :     1363.74  1367.95  1376.42  1376.75  1380.38  1388.43
eigval :     1388.61  1397.16  1397.16  1399.24  1399.26  1408.25
eigval :     1408.45  1411.25  1420.16  1420.53  1424.64  1434.22
eigval :     1434.23  1447.17  1447.42  1469.77  1470.75  1473.53
eigval :     1481.35  1482.14  1484.96  1485.37  1493.74  1503.94
eigval :     1503.98  1520.21  1520.60  1524.08  1530.28  1530.42
eigval :     1531.04  1542.36  1542.98  1551.38  1562.10  1562.12
eigval :     1568.76  1575.12  1578.54  1578.63  1582.32  1582.36
eigval :     1587.72  1587.86  1593.34  1593.39  1608.93  1609.01
eigval :     3064.36  3064.39  3069.40  3069.42  3071.74  3071.77
eigval :     3075.99  3076.18  3077.59  3077.71  3078.07  3078.11
eigval :     3080.63  3080.78  3082.13  3082.18  3082.23  3082.27
eigval :     3083.85  3084.10  3084.27  3084.33  3085.37  3085.58
eigval :     3090.37  3090.41  3094.24  3094.43  3095.24  3095.32
eigval :     3098.17  3098.42  3099.55  3099.91  3102.20  3102.24
eigval :     3105.00  3105.12  3106.59  3106.65  3113.90  3114.07

   temp. (K)  partition function   enthalpy   heat capacity  entropy
                                   cal/mol     cal/K/mol   cal/K/mol   J/K/mol
 298.15  VIB  0.346E+28            33905.675    217.087    212.068
         ROT  0.421E+09              888.752      2.981     42.445
         INT  0.146E+37            34794.428    220.068    254.513
         TR   0.289E+29             1481.254      4.968     46.448
         TOT                       36275.6816   225.0358   300.9616  1259.2232

       T/K    H(0)-H(T)+PV         H(T)/Eh          T*S/Eh         G(T)/Eh
   ------------------------------------------------------------------------
    298.15    0.578090E-01    0.951911E+00    0.142997E+00    0.808915E+00
   ------------------------------------------------------------------------

         :::::::::::::::::::::::::::::::::::::::::::::::::::::
         ::                  THERMODYNAMIC                  ::
         :::::::::::::::::::::::::::::::::::::::::::::::::::::
         :: total free energy        -186.581173695228 Eh   ::
         ::.................................................::
         :: total energy             -187.390088326517 Eh   ::
         :: zero point energy           0.894102210162 Eh   ::
         :: G(RRHO) w/o ZPVE           -0.085187578874 Eh   ::
         :: G(RRHO) contrib.            0.808914631289 Eh   ::
         :::::::::::::::::::::::::::::::::::::::::::::::::::::

           -------------------------------------------------
          | TOTAL ENERGY             -187.390088326517 Eh   |
          | TOTAL ENTHALPY           -186.438177138023 Eh   |
          | TOTAL FREE ENERGY        -186.581173695228 Eh   |
          | GRADIENT NORM               0.000120708008 Eh/α |
           -------------------------------------------------

 * finished run on 2025/09/08 at 09:49:18.147
