   * xtb version 6.7.1 (edcfbbe) compiled by 'albert@albert-system' on 2024-07-22

   ID    Z sym.   atoms
    1    6 C      1-4, 6-23, 25-40, 42-57, 59-76
    2    7 N      5, 24, 41, 58
    3    1 H      77-118

          program call               : xtb data2507/gas/C-BPyIA/C-BPyIA_gas_S0_finalOpt.xtbopt.xyz --gfn 2 --spinpol --tblite --uhf 2 --ohess vtight --parallel 40 --molden --ceasefiles --namespace data2507/gas/C-BPyIA/C-BPyIA_gas_T1_preOpt
 * total energy  :  -187.3807044 Eh     change        0.2234455E-07 Eh
 * total energy  :  -187.3866137 Eh     change       -0.5909313E-02 Eh
 * total energy  :  -187.3881589 Eh     change       -0.1545168E-02 Eh
 * total energy  :  -187.3883239 Eh     change       -0.1649567E-03 Eh
 * total energy  :  -187.3885516 Eh     change       -0.2277550E-03 Eh
 * total energy  :  -187.3886783 Eh     change       -0.1266510E-03 Eh
 * total energy  :  -187.3888238 Eh     change       -0.1455239E-03 Eh
 * total energy  :  -187.3889758 Eh     change       -0.1520494E-03 Eh
 * total energy  :  -187.3890803 Eh     change       -0.1044864E-03 Eh
 * total energy  :  -187.3891644 Eh     change       -0.8404843E-04 Eh
 * total energy  :  -187.3900276 Eh     change       -0.3587049E-06 Eh
 * total energy  :  -187.3900278 Eh     change       -0.2542839E-06 Eh
 * total energy  :  -187.3900282 Eh     change       -0.3688457E-06 Eh
 * total energy  :  -187.3900285 Eh     change       -0.3249437E-06 Eh
 * total energy  :  -187.3900290 Eh     change       -0.4557953E-06 Eh
 * total energy  :  -187.3900295 Eh     change       -0.4824760E-06 Eh
 * total energy  :  -187.3900300 Eh     change       -0.5544488E-06 Eh
 * total energy  :  -187.3900304 Eh     change       -0.3372528E-06 Eh
 * total energy  :  -187.3900304 Eh     change       -0.1677310E-07 Eh
   *** GEOMETRY OPTIMIZATION CONVERGED AFTER 94 ITERATIONS ***

 final structure:
================
118
 xtb: 6.7.1 (edcfbbe)
C            6.76355115349170       -4.37626709813161        1.88356177572704
C            6.48599159566591       -4.06395277578817        0.56314345885862
C            6.90474748434285       -2.85845792908204        0.02976902961191
C            7.60350721661300       -1.95955998009403        0.82701540422632
N            7.99560949761282       -0.71530764688994        0.29515124282323
C            7.13564187026065        0.27203493289277       -0.14134868701840
C            5.69066537848233        0.20084756178678       -0.09997972784226
C            4.97890969264659       -0.50205860185728        0.87568778809276
C            3.60360603130075       -0.54391455580404        0.84212269392919
C            2.87756711864891        0.13404849154544       -0.14474296006349
C            1.42344447176345        0.07241052683353       -0.16997879467301
C            0.65344495363718        1.27803829826559       -0.16562486434193
C            1.25592997887297        2.53568571968493       -0.07130147412466
C            0.50834068163368        3.70706899726953       -0.14568471352688
C           -0.85751520601892        3.63881696953474       -0.32000767753134
C           -1.48965719327892        2.39943313578952       -0.35268212524408
C           -0.76970425739018        1.20884873336991       -0.22046222468436
C           -1.42393761371196       -0.06310410476096       -0.16893457238085
C           -2.87804050410020       -0.12448889374428       -0.14301157850660
C           -3.60521678050596        0.57982254124938        0.82435571903597
C           -4.98047798838091        0.53674402704673        0.85910257893859
C           -5.69115241471685       -0.19434490691029       -0.09644850338114
C           -7.13587940389745       -0.27098331230847       -0.13507215696076
N           -7.78148958376207       -1.32579694190391       -0.57557547168528
C           -9.10022548192394       -1.04181371117589       -0.45094961888247
C          -10.20765107152837       -1.88045373218187       -0.76645980231427
C          -10.05884280738588       -3.17121216572916       -1.26026157657442
C          -11.17422451120879       -3.94521482445315       -1.53214913082119
C          -12.44123259829720       -3.44080528379577       -1.31788764218006
C          -12.62729645312970       -2.14466774107372       -0.82767148211756
C          -13.92987740240474       -1.60847511757862       -0.61442601965395
C          -14.09734813717551       -0.34464495044682       -0.16514289098665
C          -12.98108287777266        0.49620102571015        0.11730239760854
C          -13.16319990588117        1.81152034051000        0.55362741570949
C          -12.07799438413091        2.62579958602028        0.79751852141918
C          -10.78854237662034        2.14599560855129        0.64318126672364
C          -10.55818437724962        0.83106451446374        0.24113737096294
C          -11.66993249086603       -0.01093577397285       -0.05750955566041
C          -11.49755701742967       -1.33899338055738       -0.54132032373732
C           -9.27182168705951        0.24373000976869        0.07071986734370
N           -7.99940940672806        0.72328159196584        0.27804237973513
C           -7.61230560259786        1.98185363716869        0.77901603981363
C           -7.88995900368857        2.32312293308788        2.09948230496057
C           -7.47613629092412        3.54744851983221        2.59078870767057
C           -6.78299222550025        4.42767731041029        1.77519179582011
C           -6.50628791710643        4.08498601338747        0.46214985576741
C           -6.91973549165446        2.86480302497512       -0.04111339458846
C           -4.97011865126866       -0.92054160698121       -1.05116273185397
C           -3.59575531899129       -0.89100940911673       -1.07116221066429
C           -0.65393156843102       -1.26815697955357       -0.13069562504115
C           -1.25644000289862       -2.52271206336175       -0.00167867542042
C           -0.50882794074907       -3.69570733364980       -0.04315664055498
C            0.85709159895922       -3.63230974760309       -0.21878038944243
C            1.48923816812116       -2.39430095698896       -0.28558813670013
C            0.76923562241211       -1.20049999090277       -0.18671421109823
C            3.59640497517293        0.87390400805424       -1.09339677426140
C            4.97085487948092        0.90192986540292       -1.07410803955529
N            7.78487817316983        1.31325863060357       -0.60789957522323
C            9.10266050619272        1.02717137171473       -0.47745079410315
C           10.21310098902392        1.85349220060798       -0.81415543354530
C           10.06895391397489        3.13257544999706       -1.33877161041132
C           11.18714549637373        3.89528862270465       -1.63031277059679
C           12.45235179496635        3.39104945366825       -1.40525987263143
C           12.63373677898597        2.10634109656916       -0.88418027087966
C           13.93438662000216        1.57011688975436       -0.65950498177553
C           14.09727570199107        0.31676753894540       -0.18018129272189
C           12.97794637112425       -0.51247587517720        0.12364353410024
C           13.15522865571636       -1.81767867520460        0.59121881933844
C           12.06701045236949       -2.62139717170722        0.85585633422576
C           10.77933787897422       -2.14012076304422        0.69154990032452
C           10.55386806680362       -0.83429529782578        0.25827741186420
C           11.66865891596693       -0.00430178350219       -0.06182723743063
C           11.50107589726164        1.31240234170893       -0.57731627591570
C            9.26969429454614       -0.24599339963230        0.07512271206929
C            7.88205245764073       -2.27029604168177        2.15480975699557
C            7.46291251532241       -3.48023827709121        2.67632297102806
H            6.43461096439762       -5.31774246793001        2.29652535525061
H            5.94257415644064       -4.76177897986731       -0.05580466832919
H            6.69129241312776       -2.60279818227460       -0.99749428646386
H            5.49791916674873       -0.99538870436640        1.68300248743614
H            3.06716920887494       -1.07527048662765        1.61510628720916
H            2.32349360287909        2.60468256220669        0.06910404117249
H            1.00701552230033        4.66246529147224       -0.07915701548898
H           -1.44483525847418        4.53983367373361       -0.41724539311410
H           -2.55990810606100        2.36098480770946       -0.48732189435492
H           -3.06968282585921        1.13324373853706        1.58234074569861
H           -5.50015369806820        1.05151724413331        1.65246766741199
H           -9.06081133500554       -3.54846194623871       -1.41916453674777
H          -11.05209690453819       -4.94868385755519       -1.91350657611345
H          -13.31049148234700       -4.04658654136855       -1.53195715079409
H          -14.78215386984371       -2.23793513611877       -0.82855508025492
H          -15.08720100660537        0.06214721717433       -0.01265419120088
H          -14.16773132609957        2.18710758752476        0.68538937558581
H          -12.22844149100117        3.64821507793314        1.11274292659264
H           -9.95768418740259        2.80805928779057        0.82766465901711
H           -8.42709884697811        1.62657453364119        2.72680555311967
H           -7.69152157967985        3.81221691945520        3.61509324982059
H           -6.45824247684642        5.38056493659097        2.16461597958006
H           -5.96771569105871        4.77047372727184       -0.17456000103356
H           -6.70688956542144        2.58547064630840       -1.06231740031966
H           -5.52145514073096       -1.49634381079695       -1.77797919917460
H           -3.05625183442785       -1.42899453865064       -1.83711117659127
H           -2.32405060237428       -2.58782196179517        0.14020039903281
H           -1.00753810025072       -4.64888183663605        0.04973053871165
H            1.44446091198644       -4.53566416582057       -0.29072143191206
H            2.55954085320736       -2.35963226472978       -0.42082629571578
H            3.05776010465172        1.39132137706454       -1.87397917312551
H            5.52306444975293        1.45661917187905       -1.81652286397470
H            9.07227723209614        3.50992276084696       -1.50574355167387
H           11.06863812656579        4.88977318064146       -2.03559862564373
H           13.32380518958818        3.98797234585135       -1.63474349691578
H           14.78895335636392        2.19076637552663       -0.88963645261167
H           15.08565329058600       -0.09029523897411       -0.01908186972527
H           14.15838079337838       -2.19413672553396        0.73078893691867
H           12.21367888630254       -3.63656646545731        1.19535534746227
H            9.94599607092504       -2.79413042222585        0.89283373276499
H            8.42398649164300       -1.56159070155289        2.76414651612779
H            7.67899105605790       -3.72130246487830        3.70632341619992

 projected vibrational frequencies (cm⁻¹)
eigval :       -0.00    -0.00    -0.00     0.00     0.00     0.00
eigval :        4.69     5.20     5.96    12.94    13.40    20.11
eigval :       24.94    29.85    32.07    41.03    41.86    45.15
eigval :       50.26    55.47    61.73    66.73    73.65    76.03
eigval :       79.91    82.58    90.47    92.87   123.00   123.36
eigval :      123.91   124.43   141.62   143.71   173.21   173.23
eigval :      177.88   186.45   197.78   206.65   210.29   213.44
eigval :      213.66   231.00   231.92   232.63   233.38   259.36
eigval :      265.70   275.38   278.18   280.24   291.30   304.53
eigval :      317.43   345.82   354.26   354.62   357.53   365.01
eigval :      374.73   376.13   376.28   378.63   382.26   384.41
eigval :      394.56   398.91   412.93   417.76   418.04   423.29
eigval :      423.43   425.48   440.38   441.59   445.79   453.31
eigval :      453.48   471.42   472.41   473.92   485.86   489.92
eigval :      490.00   497.35   507.08   519.59   521.47   525.72
eigval :      535.21   535.21   554.93   555.62   568.08   569.81
eigval :      577.59   578.24   581.99   583.24   585.61   592.51
eigval :      597.62   598.14   604.29   616.42   623.01   631.68
eigval :      632.43   640.34   644.01   658.47   662.37   663.69
eigval :      673.41   676.15   678.27   682.06   682.35   690.07
eigval :      693.50   698.53   699.43   702.02   704.99   707.92
eigval :      718.59   721.37   729.31   745.26   750.47   752.35
eigval :      752.35   762.37   764.04   764.05   775.15   775.16
eigval :      777.94   779.85   799.28   799.30   818.98   823.23
eigval :      839.93   839.94   847.82   853.86   868.06   875.22
eigval :      875.68   876.30   879.81   879.83   891.63   891.63
eigval :      892.31   893.39   893.42   894.82   895.20   901.09
eigval :      901.60   903.07   905.79   906.49   907.09   918.40
eigval :      918.40   921.72   921.73   925.78   925.78   927.33
eigval :      928.66   928.84   928.95   932.54   932.58   934.48
eigval :      935.97   936.77   937.01   946.69   956.97   957.62
eigval :      996.52   996.53  1000.99  1004.92  1026.01  1027.75
eigval :     1078.41  1078.42  1096.25  1096.30  1103.30  1106.79
eigval :     1109.94  1109.96  1115.15  1115.17  1117.11  1122.37
eigval :     1122.42  1128.07  1138.54  1138.57  1139.79  1140.43
eigval :     1159.22  1159.32  1180.31  1180.32  1181.52  1181.69
eigval :     1182.18  1183.15  1183.61  1185.73  1185.75  1190.31
eigval :     1190.46  1192.90  1201.81  1202.08  1204.97  1205.44
eigval :     1223.90  1223.90  1234.17  1234.20  1234.57  1245.98
eigval :     1246.01  1254.84  1264.75  1270.87  1275.09  1275.21
eigval :     1275.45  1292.14  1300.03  1300.35  1301.28  1302.94
eigval :     1310.05  1312.74  1313.09  1314.63  1319.15  1323.00
eigval :     1323.78  1333.33  1334.15  1339.48  1359.04  1359.83
eigval :     1364.03  1368.20  1376.49  1376.80  1380.64  1388.69
eigval :     1388.88  1397.45  1397.46  1399.52  1399.52  1408.40
eigval :     1408.59  1411.59  1420.36  1420.67  1424.97  1434.66
eigval :     1434.68  1447.28  1447.40  1470.02  1471.01  1473.65
eigval :     1481.57  1482.38  1485.19  1485.60  1493.70  1504.03
eigval :     1504.17  1520.46  1520.85  1524.09  1530.44  1530.61
eigval :     1531.06  1542.27  1542.93  1551.47  1562.13  1562.17
eigval :     1568.94  1575.28  1578.67  1578.76  1582.38  1582.40
eigval :     1587.84  1587.97  1593.47  1593.51  1609.10  1609.17
eigval :     3064.47  3064.49  3069.47  3069.49  3071.85  3071.88
eigval :     3076.13  3076.23  3077.72  3077.83  3078.20  3078.24
eigval :     3080.66  3080.79  3082.27  3082.33  3082.39  3082.44
eigval :     3083.97  3084.20  3084.45  3084.50  3085.48  3085.65
eigval :     3090.56  3090.61  3094.47  3094.74  3095.49  3095.55
eigval :     3099.69  3099.84  3100.27  3100.35  3102.34  3102.39
eigval :     3105.31  3105.39  3106.80  3106.83  3114.50  3114.59

   temp. (K)  partition function   enthalpy   heat capacity  entropy
                                   cal/mol     cal/K/mol   cal/K/mol   J/K/mol
 298.15  VIB  0.393E+28            33914.294    217.066    212.215
         ROT  0.210E+09              888.752      2.981     41.066
         INT  0.827E+36            34803.046    220.047    253.281
         TR   0.289E+29             1481.254      4.968     46.448
         TOT                       36284.3000   225.0148   299.7293  1254.0675

       T/K    H(0)-H(T)+PV         H(T)/Eh          T*S/Eh         G(T)/Eh
   ------------------------------------------------------------------------
    298.15    0.578227E-01    0.951956E+00    0.142411E+00    0.809545E+00
   ------------------------------------------------------------------------

         :::::::::::::::::::::::::::::::::::::::::::::::::::::
         ::                  THERMODYNAMIC                  ::
         :::::::::::::::::::::::::::::::::::::::::::::::::::::
         :: total free energy        -186.580485242196 Eh   ::
         ::.................................................::
         :: total energy             -187.390030381540 Eh   ::
         :: zero point energy           0.894133497728 Eh   ::
         :: G(RRHO) w/o ZPVE           -0.084588358383 Eh   ::
         :: G(RRHO) contrib.            0.809545139344 Eh   ::
         :::::::::::::::::::::::::::::::::::::::::::::::::::::

           -------------------------------------------------
          | TOTAL ENERGY             -187.390030381540 Eh   |
          | TOTAL ENTHALPY           -186.438074171201 Eh   |
          | TOTAL FREE ENERGY        -186.580485242196 Eh   |
          | GRADIENT NORM               0.000055155369 Eh/α |
           -------------------------------------------------

 * finished run on 2025/09/08 at 09:39:11.610
