   * xtb version 6.7.1 (edcfbbe) compiled by 'albert@albert-system' on 2024-07-22

   ID    Z sym.   atoms
    1    6 C      1-20, 22-28, 30-36, 38-43, 45-51, 53-59, 61-80, 82, 83
    2    7 N      21, 29, 37, 44, 52, 60, 81, 84
    3    1 H      85-154

          program call               : xtb data2507/toluene/BTrztCz/BTrztCz_toluene_T1_crest.xyz --gfn 2 --uhf 2 --gbsa toluene --ohess vtight --parallel 40 --molden --ceasefiles --namespace data2507/toluene/BTrztCz/BTrztCz_toluene_T1_finalOpt
      * Solvation model:               GBSA
        Solvent                        toluene
        Solvent mass                       9.2140E+01 g/mol
          :  Hamiltonian                  GFN2-xTB          :
 * total energy  :  -222.0515203 Eh     change       -0.6279322E-08 Eh
 * total energy  :  -222.0517247 Eh     change       -0.2043526E-03 Eh
 * total energy  :  -222.0518709 Eh     change       -0.1461800E-03 Eh
 * total energy  :  -222.0519291 Eh     change       -0.5829936E-04 Eh
 * total energy  :  -222.0520343 Eh     change       -0.1051630E-03 Eh
 * total energy  :  -222.0521509 Eh     change       -0.1165777E-03 Eh
 * total energy  :  -222.0522482 Eh     change       -0.9729205E-04 Eh
 * total energy  :  -222.0523343 Eh     change       -0.8607232E-04 Eh
 * total energy  :  -222.0524119 Eh     change       -0.7763104E-04 Eh
 * total energy  :  -222.0524838 Eh     change       -0.7189929E-04 Eh
 * total energy  :  -222.0549813 Eh     change       -0.9145446E-06 Eh
 * total energy  :  -222.0549822 Eh     change       -0.8836684E-06 Eh
 * total energy  :  -222.0549830 Eh     change       -0.8201659E-06 Eh
 * total energy  :  -222.0549838 Eh     change       -0.7575686E-06 Eh
 * total energy  :  -222.0549845 Eh     change       -0.7512345E-06 Eh
 * total energy  :  -222.0549853 Eh     change       -0.7998765E-06 Eh
 * total energy  :  -222.0549863 Eh     change       -0.9206050E-06 Eh
 * total energy  :  -222.0549863 Eh     change        0.2695572E-08 Eh
 * total energy  :  -222.0549863 Eh     change       -0.1014604E-07 Eh
   *** GEOMETRY OPTIMIZATION CONVERGED AFTER 123 ITERATIONS ***

 final structure:
================
154
 xtb: 6.7.1 (edcfbbe)
C           -1.58225273390893       -5.97559439392510        0.12546731145411
C           -0.70557218268130       -6.10997739691302       -1.12880021303299
C           -1.51023422669932       -5.60816436171945       -2.33158010450761
C           -0.36232590084776       -7.58891294860586       -1.36655606382507
C            0.58324006069060       -5.33006581817683       -0.92199784349764
C            1.41231769377139       -5.66758395350975        0.15729337913226
C            2.60177920471116       -5.01904929576273        0.41991320377811
C            2.98675523777473       -3.99842949906100       -0.43818179222040
C            2.16362581728463       -3.62629314814337       -1.52429330570965
C            0.97112020106797       -4.29095721720928       -1.76054145161814
C            2.82637484637071       -2.52408007415955       -2.17640540843734
C            2.50256488646756       -1.72932319578265       -3.26432781651430
C            3.36571941497440       -0.71272526834670       -3.65708521855083
C            3.05535862862331        0.22462455942193       -4.81440623852325
C            1.69622913973985       -0.06564962059723       -5.45854944234368
C            3.03430705947725        1.66929327055173       -4.29105646365211
C            4.13899435675008        0.07612525688836       -5.89312122470071
C            4.56823116380171       -0.54720219546766       -2.95725560158262
C            4.91500955247434       -1.32407233686286       -1.86985321301547
C            4.01847669898268       -2.29818771357959       -1.45768949519162
N            4.09995530106052       -3.18764651245443       -0.40633920733738
C            5.08192119523386       -3.18282223117352        0.59228200139422
C            5.79368148779456       -4.34587669599205        0.86724720190949
C            6.78885707357050       -4.34447716974354        1.82820636588894
C            7.09707595845127       -3.17675795113143        2.50908920289424
C            6.39556632688536       -2.01576859890876        2.23931729539445
C            5.37104912945967       -2.00837472355916        1.30058051712652
C            4.59749937030808       -0.77870109663396        1.05870953662783
N            5.28402790546850        0.36717835264340        1.09361726494810
C            4.55785148421196        1.44934311983133        0.75968046938528
C            5.26816293222191        2.72918784753873        0.69323630980329
C            6.55025906412195        2.84953687494130        1.22648850097193
C            7.22352799976898        4.05398786332388        1.15169825161519
C            6.63036957122285        5.14525958946277        0.53565792039036
C            5.35849899026488        5.02866175218054       -0.00411861602415
C            4.67715132834314        3.82973329974713        0.07540031467245
N            3.27814576476364        1.43061635580446        0.46581321056378
C            2.63962854807567        0.24176021400598        0.51765258249579
C            1.25196029923745        0.17013463011844        0.22185209839028
C            0.57574506652778       -1.07037393070516        0.21531658471838
C           -0.75186920307688       -1.14354586637429       -0.08902253602276
C           -1.49327489277888        0.02033924515024       -0.38857978094868
C           -2.89177849649792       -0.03649444157957       -0.63298364648478
N           -3.52484303958380       -1.22653539017155       -0.69025247153035
C           -4.82455940360722       -1.21770564503558       -0.88388590710300
C           -5.52305107904944       -2.50073761464119       -0.98950700638794
C           -6.90270984245209       -2.53389708408049       -1.18893181789242
C           -7.56206751485880       -3.74412563759129       -1.28887251871038
C           -6.85426017827218       -4.93226928621128       -1.19108173862097
C           -5.48257433486191       -4.90566854969910       -0.98984488252225
C           -4.81797507855646       -3.69925350286070       -0.88970766795128
N           -5.57762501341487       -0.10527072816514       -0.96829904827385
C           -4.88472381246154        1.03153026990589       -0.86282020740534
C           -5.67067051510215        2.27671073257547       -0.84174494383550
C           -6.80704263158973        2.39958271569358       -1.63192294996541
C           -7.53013539115842        3.57844038201019       -1.65013123695059
C           -7.12978335852306        4.64644458344954       -0.86203418063046
C           -6.01886015402950        4.52945989269191       -0.04589021045895
C           -5.28420783419483        3.34853486992628       -0.02431838238424
N           -4.17707616552100        3.23382774976828        0.82704303591278
C           -3.95423769571977        2.20825445347437        1.72288166884468
C           -4.79459811132958        1.18198006950841        2.12637620237930
C           -4.29782357210118        0.25659476263287        3.02248293585203
C           -2.99905395035173        0.32456157728643        3.54386096098005
C           -2.52772620985337       -0.77293903875520        4.48585094972858
C           -1.09482764045384       -0.55017052239412        4.97951163570216
C           -3.45212486679024       -0.82713871766161        5.71175470968187
C           -2.56962560403106       -2.11442107577696        3.73780257381028
C           -2.18920524353480        1.39152707982542        3.17265377217777
C           -2.66218894642069        2.33325575694868        2.27330303555965
C           -2.08343757684427        3.51413823382884        1.68266371369854
C           -0.84914211657784        4.13007916900810        1.81005575533729
C           -0.56614526252755        5.26739531242453        1.06212135540473
C            0.76748384726604        5.99205882790805        1.14969712256976
C            1.40381944610946        6.04921159975019       -0.24687913420141
C            0.52676096009895        7.41817735523299        1.66840049101201
C            1.75524494655139        5.29741546915715        2.09212317910101
C           -1.54791340167696        5.75925230352237        0.19008227244646
C           -2.78226774426617        5.16130053862089        0.03709758479933
C           -3.05476240550153        4.03292124887798        0.79780186635780
N           -3.58172588860165        1.11962332629587       -0.76282048971180
C           -0.81486641436355        1.25931266103417       -0.39104280924257
C            0.51404843850615        1.33189735481876       -0.09537221801885
N            3.31418419902449       -0.89027847996388        0.82085934890637
H           -1.80255753118095       -4.92816793967541        0.32175551500071
H           -1.09264550079055       -6.38806658680485        1.00285096670745
H           -2.52118413484529       -6.50459226739086       -0.01872092351786
H           -0.94356655865029       -5.71456262989060       -3.25373125148122
H           -1.79576002298368       -4.56581939142867       -2.20774425385276
H           -2.42107565643677       -6.19479285047273       -2.42910831267496
H           -1.27286993740865       -8.15819998634467       -1.53953808726388
H            0.27914286930909       -7.68965802289007       -2.23962702122608
H            0.15231486534076       -8.01973604709716       -0.51249560630959
H            1.11692131314656       -6.46451947915692        0.82130260797082
H            3.20596648575041       -5.29318745796617        1.27131636690442
H            0.36068949586549       -3.97933382848515       -2.59084503676693
H            1.57475794123440       -1.90905596552263       -3.78047215637357
H            0.89041207306025        0.04450328802066       -4.73561765150975
H            1.66743878899356       -1.06835623097851       -5.87839650362843
H            1.52211590807699        0.64167496132266       -6.26665821571767
H            3.99701527998277        1.95999443870378       -3.87895621374531
H            2.78759070867082        2.35498079633504       -5.09867097343765
H            2.28557573369721        1.77295127251476       -3.50765484199612
H            5.12111235341596        0.33360126329632       -5.50675611148388
H            3.91944657921286        0.73211239054823       -6.73238206889316
H            4.17152508837669       -0.94991599052332       -6.25355710963548
H            5.26013861030820        0.22234023090259       -3.26424987408579
H            5.85041737300222       -1.16227956514073       -1.35257553457173
H            5.57321371694376       -5.24141746022937        0.30550030717768
H            7.33392312340179       -5.25283331174863        2.03434132966634
H            7.88173090706664       -3.17137860949933        3.24987312135209
H            6.61690262522749       -1.09858787418292        2.76377139341671
H            7.00012915205566        1.98741507577781        1.69452457063134
H            8.21511855512593        4.14226725959779        1.57089505086694
H            7.16015178949890        6.08436457795361        0.47364125477867
H            4.90010619956755        5.87532780717733       -0.49309492622464
H            3.68825941476084        3.72068259015697       -0.34186464524730
H            1.13945993783814       -1.95883169908360        0.45818404559962
H           -1.26904757623730       -2.09155919122576       -0.09236237257439
H           -7.43790798480687       -1.59955277865601       -1.25955979543592
H           -8.63098487162205       -3.76224379551948       -1.44373573685178
H           -7.37114210122335       -5.87726530983337       -1.26970883043457
H           -4.93152303016495       -5.83055983947567       -0.91169282064583
H           -3.75163839581504       -3.66061477431744       -0.73232396268764
H           -7.09921158492330        1.55872921660527       -2.24269871019527
H           -8.40319849164871        3.66464982618780       -2.27842655571226
H           -7.69126108829562        5.56807684265125       -0.87114398435707
H           -5.72170322730205        5.34365950771773        0.59826360640636
H           -5.80082801628779        1.09211378726460        1.74143202806381
H           -4.94680281682907       -0.55384957358978        3.31773895652042
H           -0.39289747689587       -0.53312338491030        4.14808855166928
H           -0.81098278400208       -1.36582389158503        5.64115992515847
H           -1.01296526976293        0.37996652801574        5.53710184920106
H           -3.45412741379487        0.13352562719087        6.22256018449817
H           -3.10335945067924       -1.58828836755078        6.40595759735695
H           -4.47336966909403       -1.06655085856416        5.42965967319236
H           -1.91104745059242       -2.07843203336547        2.87181513713146
H           -3.57283378949669       -2.34690894520938        3.39000476234882
H           -2.23860504880597       -2.91775749714338        4.39225717508037
H           -1.18886159877091        1.49803026205992        3.55694442872683
H           -0.12384325920962        3.70263595443099        2.48122913950670
H            1.52912236182889        5.04361559113437       -0.64314688206404
H            2.38086711029981        6.52198580196519       -0.18661963110829
H            0.79341954207014        6.61578553704406       -0.94394502632956
H           -0.11817147018379        7.97903975999018        0.99791729519470
H            1.47363707471889        7.94618488064285        1.75533803963039
H            0.05656617169258        7.38667213865297        2.64909007421947
H            1.37369903320514        5.26893270775375        3.11022282309544
H            1.96761077362860        4.28247952792363        1.76226352616580
H            2.69483916950540        5.84590408198604        2.10176403715591
H           -1.33937090612252        6.63896190697009       -0.39801635709857
H           -3.50488442417157        5.55494700061774       -0.66128551654522
H           -1.37899826554401        2.14732661610043       -0.63404927307573
H            1.03043633384583        2.28041538685687       -0.09212698499368

          :  Hamiltonian                  GFN2-xTB          :
         :: gradient norm              0.000105607947 Eh/a0 ::
         :: HOMO-LUMO gap              0.437253079030 eV    ::
         :: SCC energy              -225.930314849289 Eh    ::
         :: -> dispersion             -0.231637741369 Eh    ::
         :: -> Gsolv                  -0.093985433054 Eh    ::
         :: repulsion energy           3.875328587916 Eh    ::

    * Orbital Energies and Occupations

         #    Occupation            Energy/Eh            Energy/eV
      -------------------------------------------------------------
         1        2.0000           -0.6885281             -18.7358
       ...           ...                  ...                  ...
       196        2.0000           -0.4071573             -11.0793
       197        2.0000           -0.4066274             -11.0649
       198        2.0000           -0.4053182             -11.0293
       199        2.0000           -0.3927116             -10.6862
       200        2.0000           -0.3859495             -10.5022
       201        2.0000           -0.3856904             -10.4952
       202        1.9998           -0.3755154             -10.2183
       203        1.9996           -0.3749197             -10.2021
       204        1.9951           -0.3725337             -10.1372
       205        1.9909           -0.3719442             -10.1211
       206        1.6331           -0.3680082             -10.0140
       207        1.3815           -0.3670310              -9.9874
       208        0.9997           -0.2988496              -8.1321 (HOMO)
       209        0.0002           -0.2827821              -7.6949 (LUMO)
       210        0.0001           -0.2820355              -7.6746
       211                         -0.2686528              -7.3104
       212                         -0.2548776              -6.9356
       213                         -0.2544362              -6.9236
       214                         -0.2498800              -6.7996
       215                         -0.2458436              -6.6897
       216                         -0.2457255              -6.6865
       217                         -0.2320103              -6.3133
       218                         -0.2306903              -6.2774
       219                         -0.2305335              -6.2731
       ...                                ...                  ...
       406                          0.7303626              19.8742
      -------------------------------------------------------------
                  HL-Gap            0.0160675 Eh            0.4372 eV

     #   Z          covCN         q      C6AA      α(0)
     1   6 C        3.761    -0.105    22.551     6.770
     2   6 C        3.903     0.027    20.068     6.368
     3   6 C        3.761    -0.108    22.616     6.779
     4   6 C        3.761    -0.109    22.638     6.783
     5   6 C        2.973     0.009    27.806     8.650
     6   6 C        2.930    -0.038    28.935     8.822
     7   6 C        2.907    -0.049    29.208     8.862
     8   6 C        3.080     0.050    26.784     8.485
     9   6 C        3.066    -0.013    28.261     8.717
    10   6 C        2.917    -0.039    28.972     8.827
    11   6 C        3.064    -0.016    28.355     8.732
    12   6 C        2.917    -0.042    29.055     8.839
    13   6 C        2.973     0.005    27.915     8.667
    14   6 C        3.903     0.025    20.090     6.371
    15   6 C        3.761    -0.110    22.650     6.784
    16   6 C        3.761    -0.104    22.531     6.767
    17   6 C        3.761    -0.109    22.623     6.780
    18   6 C        2.930    -0.040    29.005     8.832
    19   6 C        2.908    -0.048    29.183     8.858
    20   6 C        3.082     0.058    26.621     8.458
    21   7 N        2.803    -0.025    21.727     6.923
    22   6 C        2.916     0.065    26.540     8.448
    23   6 C        2.921    -0.043    29.062     8.840
    24   6 C        2.919    -0.026    28.655     8.778
    25   6 C        2.918    -0.030    28.742     8.791
    26   6 C        2.924    -0.028    28.710     8.787
    27   6 C        2.986    -0.011    28.277     8.723
    28   6 C        2.973     0.237    23.057     7.876
    29   7 N        1.844    -0.369    30.487     8.183
    30   6 C        2.970     0.221    23.362     7.928
    31   6 C        2.984    -0.009    28.241     8.717
    32   6 C        2.924    -0.029    28.725     8.789
    33   6 C        2.918    -0.030    28.743     8.792
    34   6 C        2.920    -0.027    28.682     8.782
    35   6 C        2.918    -0.029    28.721     8.788
    36   6 C        2.924    -0.028    28.697     8.785
    37   7 N        1.844    -0.320    29.154     8.002
    38   6 C        2.953     0.201    23.741     7.992
    39   6 C        2.980    -0.023    28.569     8.768
    40   6 C        2.919    -0.037    28.919     8.818
    41   6 C        2.918    -0.036    28.904     8.816
    42   6 C        2.980    -0.023    28.562     8.766
    43   6 C        2.954     0.202    23.726     7.989
    44   7 N        1.844    -0.319    29.128     7.998
    45   6 C        2.968     0.219    23.386     7.932
    46   6 C        2.984    -0.010    28.263     8.721
    47   6 C        2.924    -0.030    28.740     8.791
    48   6 C        2.918    -0.030    28.747     8.792
    49   6 C        2.920    -0.027    28.679     8.782
    50   6 C        2.918    -0.029    28.720     8.788
    51   6 C        2.923    -0.029    28.726     8.789
    52   7 N        1.844    -0.368    30.457     8.179
    53   6 C        2.971     0.236    23.067     7.878
    54   6 C        2.985    -0.011    28.284     8.724
    55   6 C        2.924    -0.028    28.708     8.787
    56   6 C        2.918    -0.030    28.738     8.791
    57   6 C        2.919    -0.026    28.649     8.777
    58   6 C        2.921    -0.043    29.058     8.840
    59   6 C        2.915     0.065    26.539     8.448
    60   7 N        2.802    -0.026    21.737     6.925
    61   6 C        3.083     0.058    26.601     8.455
    62   6 C        2.908    -0.048    29.186     8.858
    63   6 C        2.930    -0.041    29.007     8.833
    64   6 C        2.973     0.004    27.919     8.667
    65   6 C        3.903     0.025    20.092     6.372
    66   6 C        3.761    -0.109    22.626     6.781
    67   6 C        3.761    -0.109    22.629     6.781
    68   6 C        3.762    -0.104    22.527     6.766
    69   6 C        2.917    -0.042    29.041     8.837
    70   6 C        3.064    -0.016    28.344     8.730
    71   6 C        3.066    -0.012    28.245     8.715
    72   6 C        2.917    -0.038    28.947     8.823
    73   6 C        2.973     0.010    27.800     8.649
    74   6 C        3.903     0.027    20.068     6.368
    75   6 C        3.762    -0.106    22.564     6.771
    76   6 C        3.761    -0.110    22.642     6.783
    77   6 C        3.761    -0.107    22.590     6.775
    78   6 C        2.930    -0.038    28.939     8.822
    79   6 C        2.907    -0.049    29.211     8.862
    80   6 C        3.080     0.051    26.775     8.483
    81   7 N        1.845    -0.312    28.929     7.971
    82   6 C        2.919    -0.036    28.901     8.816
    83   6 C        2.918    -0.036    28.906     8.817
    84   7 N        1.844    -0.312    28.936     7.972
    85   1 H        0.925     0.029     2.596     2.520
    86   1 H        0.925     0.041     2.435     2.440
    87   1 H        0.925     0.044     2.402     2.424
    88   1 H        0.925     0.039     2.468     2.457
    89   1 H        0.925     0.033     2.550     2.497
    90   1 H        0.925     0.042     2.421     2.433
    91   1 H        0.925     0.045     2.383     2.414
    92   1 H        0.925     0.037     2.488     2.467
    93   1 H        0.925     0.042     2.424     2.435
    94   1 H        0.926     0.048     2.349     2.397
    95   1 H        0.926     0.039     2.466     2.455
    96   1 H        0.926     0.048     2.347     2.396
    97   1 H        0.926     0.049     2.337     2.390
    98   1 H        0.925     0.033     2.548     2.496
    99   1 H        0.925     0.041     2.432     2.439
   100   1 H        0.925     0.044     2.395     2.420
   101   1 H        0.925     0.034     2.525     2.485
   102   1 H        0.925     0.046     2.366     2.406
   103   1 H        0.925     0.028     2.621     2.532
   104   1 H        0.925     0.038     2.470     2.458
   105   1 H        0.925     0.046     2.366     2.405
   106   1 H        0.925     0.038     2.470     2.458
   107   1 H        0.926     0.034     2.527     2.486
   108   1 H        0.926     0.017     2.772     2.604
   109   1 H        0.926     0.057     2.239     2.340
   110   1 H        0.926     0.060     2.201     2.320
   111   1 H        0.926     0.056     2.250     2.345
   112   1 H        0.926     0.049     2.329     2.387
   113   1 H        0.926     0.044     2.390     2.417
   114   1 H        0.926     0.042     2.416     2.431
   115   1 H        0.926     0.046     2.376     2.411
   116   1 H        0.926     0.045     2.386     2.416
   117   1 H        0.926     0.045     2.384     2.415
   118   1 H        0.926     0.033     2.549     2.497
   119   1 H        0.926     0.031     2.570     2.507
   120   1 H        0.926     0.046     2.372     2.408
   121   1 H        0.926     0.042     2.419     2.432
   122   1 H        0.926     0.046     2.375     2.410
   123   1 H        0.926     0.045     2.377     2.411
   124   1 H        0.926     0.046     2.366     2.405
   125   1 H        0.926     0.050     2.320     2.382
   126   1 H        0.926     0.056     2.245     2.343
   127   1 H        0.926     0.060     2.197     2.318
   128   1 H        0.926     0.057     2.236     2.339
   129   1 H        0.926     0.018     2.765     2.600
   130   1 H        0.926     0.035     2.519     2.482
   131   1 H        0.925     0.031     2.578     2.511
   132   1 H        0.925     0.044     2.392     2.419
   133   1 H        0.925     0.040     2.446     2.446
   134   1 H        0.925     0.038     2.472     2.459
   135   1 H        0.925     0.047     2.363     2.404
   136   1 H        0.925     0.039     2.460     2.453
   137   1 H        0.925     0.028     2.608     2.526
   138   1 H        0.925     0.034     2.530     2.487
   139   1 H        0.925     0.047     2.358     2.402
   140   1 H        0.926     0.045     2.380     2.412
   141   1 H        0.926     0.045     2.383     2.414
   142   1 H        0.925     0.029     2.596     2.520
   143   1 H        0.925     0.045     2.387     2.416
   144   1 H        0.925     0.042     2.421     2.433
   145   1 H        0.925     0.043     2.412     2.429
   146   1 H        0.925     0.045     2.377     2.411
   147   1 H        0.925     0.037     2.490     2.468
   148   1 H        0.925     0.037     2.490     2.468
   149   1 H        0.925     0.031     2.568     2.506
   150   1 H        0.925     0.040     2.443     2.444
   151   1 H        0.926     0.048     2.339     2.391
   152   1 H        0.926     0.040     2.454     2.450
   153   1 H        0.926     0.032     2.556     2.500
   154   1 H        0.926     0.032     2.553     2.499

molecular dipole:
                 x           y           z       tot (Debye)
 q only:        0.080      -0.137       0.096
   full:        0.086      -0.116       0.109       0.461

 projected vibrational frequencies (cm⁻¹)
eigval :       -0.00    -0.00     0.00     0.00     0.00     0.00
eigval :        4.21     5.10     8.44    10.75    14.25    16.02
eigval :       17.12    25.39    29.23    32.58    37.66    41.37
eigval :       42.09    43.82    46.65    47.70    48.99    50.06
eigval :       52.37    55.78    61.18    64.44    66.74    68.97
eigval :       69.67    77.74    82.76    84.20    95.81   101.03
eigval :      103.82   108.00   112.69   116.71   128.47   131.99
eigval :      145.51   150.75   154.26   161.73   165.82   170.97
eigval :      175.75   179.90   181.86   189.62   190.61   197.20
eigval :      202.29   203.30   207.91   210.96   213.78   214.07
eigval :      219.05   222.48   227.00   228.23   230.90   233.82
eigval :      248.96   255.42   259.68   260.20   266.43   272.43
eigval :      274.67   283.58   284.44   286.33   291.34   313.21
eigval :      321.33   325.09   327.52   330.51   335.60   336.29
eigval :      337.40   338.11   345.11   356.45   357.92   358.61
eigval :      365.34   368.55   370.01   372.74   378.67   386.36
eigval :      388.37   393.02   393.39   398.07   403.91   404.41
eigval :      405.14   406.00   413.24   413.72   430.41   434.79
eigval :      436.84   442.15   442.60   443.91   448.98   452.42
eigval :      463.07   463.08   465.11   465.30   466.55   469.44
eigval :      502.22   506.54   519.20   519.46   557.66   563.16
eigval :      575.14   575.50   575.90   576.95   581.99   583.48
eigval :      585.90   588.29   591.37   593.40   595.20   596.88
eigval :      605.41   618.40   621.83   624.54   625.64   626.78
eigval :      629.74   639.30   642.10   642.54   652.25   663.76
eigval :      668.52   670.39   680.02   689.85   690.50   697.63
eigval :      700.62   706.81   707.14   719.47   721.03   731.55
eigval :      732.61   738.81   740.78   773.30   774.39   781.69
eigval :      786.73   795.35   814.51   819.39   819.56   821.31
eigval :      821.60   822.23   822.45   829.68   830.10   847.88
eigval :      856.87   861.10   863.71   864.76   866.52   871.54
eigval :      872.00   876.29   877.99   883.68   887.90   908.18
eigval :      908.49   911.20   911.43   911.70   911.77   914.14
eigval :      916.21   916.32   917.29   920.05   920.45   924.66
eigval :      925.74   926.53   929.18   929.32   929.98   931.24
eigval :      932.05   937.12   938.61   958.48   959.85   960.24
eigval :      960.29   961.46   961.76   962.06   962.50   962.98
eigval :      963.45   963.59   964.24   965.44   973.00   986.70
eigval :     1001.54  1004.33  1029.49  1030.02  1033.12  1033.25
eigval :     1034.19  1034.65  1035.98  1036.51  1040.24  1040.84
eigval :     1054.98  1055.13  1075.71  1075.99  1084.54  1086.15
eigval :     1097.04  1099.90  1106.99  1108.22  1114.31  1120.60
eigval :     1121.62  1127.01  1127.19  1144.93  1145.82  1150.69
eigval :     1155.94  1160.77  1161.27  1167.25  1171.09  1174.18
eigval :     1176.12  1177.41  1178.11  1183.39  1183.96  1193.05
eigval :     1205.01  1205.76  1222.32  1223.50  1224.14  1224.38
eigval :     1225.06  1225.63  1227.80  1228.49  1229.03  1229.13
eigval :     1229.50  1229.89  1235.09  1236.48  1241.76  1242.69
eigval :     1247.87  1250.31  1253.99  1254.75  1257.82  1267.92
eigval :     1268.48  1279.23  1279.54  1290.09  1290.36  1298.30
eigval :     1298.43  1309.83  1310.47  1320.08  1324.08  1327.83
eigval :     1330.81  1333.59  1335.41  1335.50  1335.96  1343.50
eigval :     1346.78  1361.18  1361.87  1385.45  1395.50  1399.23
eigval :     1399.38  1400.21  1400.60  1401.07  1402.19  1403.24
eigval :     1403.86  1408.95  1409.30  1415.60  1416.83  1425.40
eigval :     1426.38  1427.24  1427.39  1430.24  1431.27  1432.66
eigval :     1434.63  1440.32  1441.61  1459.13  1461.04  1461.42
eigval :     1464.05  1464.42  1468.03  1472.19  1475.03  1475.59
eigval :     1485.37  1486.13  1486.37  1486.59  1487.70  1489.69
eigval :     1490.29  1490.74  1490.92  1496.82  1497.28  1497.86
eigval :     1498.66  1500.15  1500.37  1500.62  1501.34  1509.57
eigval :     1510.72  1511.73  1511.92  1517.68  1517.99  1518.35
eigval :     1518.51  1522.39  1534.43  1556.76  1557.54  1562.99
eigval :     1563.83  1574.11  1575.37  1577.74  1578.34  1579.87
eigval :     1580.22  1580.53  1581.33  1589.96  1590.79  1593.65
eigval :     1596.03  1603.34  3021.77  3021.95  3022.45  3022.88
eigval :     3023.70  3023.97  3024.59  3024.67  3025.95  3026.12
eigval :     3027.71  3027.97  3028.25  3029.10  3029.49  3029.94
eigval :     3030.94  3031.45  3031.85  3031.98  3032.63  3032.65
eigval :     3034.27  3035.99  3037.25  3038.19  3039.15  3039.48
eigval :     3041.65  3042.97  3047.71  3047.91  3048.28  3048.66
eigval :     3051.44  3051.46  3066.99  3067.36  3074.84  3075.61
eigval :     3077.56  3078.96  3080.35  3082.06  3085.21  3086.15
eigval :     3086.43  3087.38  3089.17  3089.32  3089.89  3090.41
eigval :     3090.53  3090.96  3091.40  3091.61  3095.63  3096.51
eigval :     3099.18  3099.65  3101.18  3101.66  3103.35  3104.13
eigval :     3104.21  3106.43  3119.91  3121.49  3123.76  3124.56

   temp. (K)  partition function   enthalpy   heat capacity  entropy
                                   cal/mol     cal/K/mol   cal/K/mol   J/K/mol
 298.15  VIB  0.640E+38            46478.859    281.703    294.196
         ROT  0.289E+09              888.752      2.981     41.697
         INT  0.185E+47            47367.611    284.684    335.893
         TR   0.351E+29             1481.254      4.968     46.832
         TOT                       48848.8649   289.6520   382.7247  1601.3203

       T/K    H(0)-H(T)+PV         H(T)/Eh          T*S/Eh         G(T)/Eh
   ------------------------------------------------------------------------
    298.15    0.778456E-01    0.131755E+01    0.181845E+00    0.113570E+01
   ------------------------------------------------------------------------

         :::::::::::::::::::::::::::::::::::::::::::::::::::::
         ::                  THERMODYNAMIC                  ::
         :::::::::::::::::::::::::::::::::::::::::::::::::::::
         :: total free energy        -220.919284733052 Eh   ::
         ::.................................................::
         :: total energy             -222.054986261018 Eh   ::
         :: zero point energy           1.239700783005 Eh   ::
         :: G(RRHO) w/o ZPVE           -0.103999255039 Eh   ::
         :: G(RRHO) contrib.            1.135701527966 Eh   ::
         :::::::::::::::::::::::::::::::::::::::::::::::::::::

           -------------------------------------------------
          | TOTAL ENERGY             -222.054986261018 Eh   |
          | TOTAL ENTHALPY           -220.737439856667 Eh   |
          | TOTAL FREE ENERGY        -220.919284733052 Eh   |
          | GRADIENT NORM               0.000108435979 Eh/α |
          | HOMO-LUMO GAP               0.437218689449 eV   |
           -------------------------------------------------

 * finished run on 2025/07/19 at 08:11:42.829
