   * xtb version 6.7.1 (edcfbbe) compiled by 'albert@albert-system' on 2024-07-22

   ID    Z sym.   atoms
    1    6 C      1-20, 22-28, 30-36, 38-43, 45-51, 53-59, 61-80, 82, 83
    2    7 N      21, 29, 37, 44, 52, 60, 81, 84
    3    1 H      85-154

          program call               : xtb data2507/toluene/BTrztCz/BTrztCz_toluene_S0_finalOpt.xtbopt.xyz --gfn 2 --uhf 2 --gbsa toluene --ohess vtight --parallel 40 --molden --ceasefiles --namespace data2507/toluene/BTrztCz/BTrztCz_toluene_T1_preOpt
      * Solvation model:               GBSA
        Solvent                        toluene
        Solvent mass                       9.2140E+01 g/mol
          :  Hamiltonian                  GFN2-xTB          :
 * total energy  :  -222.0475971 Eh     change       -0.2512655E-07 Eh
 * total energy  :  -222.0506656 Eh     change       -0.3068583E-02 Eh
 * total energy  :  -222.0527090 Eh     change       -0.2043359E-02 Eh
 * total energy  :  -222.0531332 Eh     change       -0.4242075E-03 Eh
 * total energy  :  -222.0532608 Eh     change       -0.1276072E-03 Eh
 * total energy  :  -222.0533862 Eh     change       -0.1253579E-03 Eh
 * total energy  :  -222.0534298 Eh     change       -0.4364014E-04 Eh
 * total energy  :  -222.0534983 Eh     change       -0.6846944E-04 Eh
 * total energy  :  -222.0535314 Eh     change       -0.3314457E-04 Eh
 * total energy  :  -222.0535563 Eh     change       -0.2489956E-04 Eh
 * total energy  :  -222.0541807 Eh     change       -0.4064242E-06 Eh
 * total energy  :  -222.0541809 Eh     change       -0.2441046E-06 Eh
 * total energy  :  -222.0541813 Eh     change       -0.3989323E-06 Eh
 * total energy  :  -222.0541817 Eh     change       -0.3061602E-06 Eh
 * total energy  :  -222.0541819 Eh     change       -0.1992937E-06 Eh
 * total energy  :  -222.0541820 Eh     change       -0.1898404E-06 Eh
 * total energy  :  -222.0541823 Eh     change       -0.2157006E-06 Eh
 * total energy  :  -222.0541824 Eh     change       -0.1741056E-06 Eh
 * total energy  :  -222.0541825 Eh     change       -0.4099019E-07 Eh
   *** GEOMETRY OPTIMIZATION CONVERGED AFTER 80 ITERATIONS ***

 final structure:
================
154
 xtb: 6.7.1 (edcfbbe)
C           -2.02662546916338       -4.94903858647618        1.03147542049695
C           -0.90072795130807       -5.99195488406649        0.96047218957137
C           -1.16497341613372       -6.96596253765429       -0.19771381823113
C           -0.91057280351558       -6.79489772649163        2.26480244801901
C            0.41343744960686       -5.26437524255174        0.72120826394063
C            1.44484436319464       -5.25337810802365        1.66570020731681
C            2.63529731718843       -4.57970060992156        1.46203458701178
C            2.80507608522397       -3.89961485952810        0.26549554790726
C            1.77355259604124       -3.88233709609198       -0.70188483721177
C            0.59087711098915       -4.55920157254246       -0.46869505939490
C            2.24968624533183       -3.05605296810883       -1.78464866174543
C            1.68953290534224       -2.65437174975150       -2.98584940858140
C            2.40543517130935       -1.81892904080018       -3.83483239306986
C            1.83447451528744       -1.30616302408921       -5.14830280872807
C            0.41685410377048       -1.82188635735105       -5.41510370203204
C            1.78007899230675        0.22857717360459       -5.09628529165586
C            2.73416998933967       -1.75865001689958       -6.30835314926900
C            3.69859528467427       -1.43159817171032       -3.45930023022130
C            4.28226899032596       -1.82173923368542       -2.27027923885343
C            3.53894605725091       -2.61962609825154       -1.41444985539118
N            3.86056021209956       -3.13270670020064       -0.17487360022697
C            5.05866882247167       -2.93403026778096        0.52264378856878
C            5.80613863624838       -4.04579039684997        0.90108456799284
C            7.00953136283955       -3.89187716368673        1.56424053684118
C            7.48857315923667       -2.62076718564353        1.84407787696565
C            6.75225987810607       -1.51224739779079        1.47347564938507
C            5.52563938888489       -1.64779330100127        0.82786944486388
C            4.74894378059391       -0.44255260674752        0.50514015830211
N            5.45678021166060        0.68251049591173        0.33491878477878
C            4.71660724953403        1.76148443478466        0.03019084956815
C            5.43637190609263        3.02030808880227       -0.18608590920237
C            6.79755561996455        3.10934410598304        0.10056703688299
C            7.47728922099135        4.29312929799275       -0.11409102250807
C            6.80944070362138        5.39645368990673       -0.62276961723902
C            5.45660387812348        5.31216100056297       -0.91514880784774
C            4.77073807152467        4.13323099975894       -0.69666048335459
N            3.40969093233853        1.76061389124357       -0.10180731632247
C            2.76285855523187        0.58808076603613        0.08509821816994
C            1.35533342569084        0.52348353713269       -0.09745152344971
C            0.67014958112032       -0.70613886753694        0.01283539733440
C           -0.66744744639919       -0.78958524502092       -0.23883390550472
C           -1.41416665963276        0.36091076861267       -0.56868863994034
C           -2.82075259203085        0.28916485818236       -0.76771267995930
N           -3.42512816677224       -0.90825860667932       -0.90841045390913
C           -4.73160507872405       -0.91215367750165       -1.05554797247331
C           -5.39559031709155       -2.19079236466466       -1.31912074008851
C           -6.78410102603629       -2.29063997634508       -1.24900634512082
C           -7.40736928190093       -3.49590251203073       -1.51156948603900
C           -6.65456611742815       -4.61057170981290       -1.84780249939482
C           -5.27283093511961       -4.51715607275976       -1.92144398813372
C           -4.64478547065009       -3.31548112820514       -1.65806541096166
N           -5.51565004590573        0.17733133369793       -0.96428594733844
C           -4.84354805866452        1.31789632530995       -0.78795111014643
C           -5.64211566748717        2.53594124457310       -0.57690128323163
C           -6.84194885770149        2.72059072370632       -1.25275956822816
C           -7.57083998066308        3.88475370345378       -1.08906989990692
C           -7.11023676015915        4.87452381060638       -0.23459049796722
C           -5.93323676827521        4.69228055516771        0.46998286261288
C           -5.19452040744026        3.52515845350562        0.31108560861564
N           -4.02068990861166        3.33545459312029        1.05468863157890
C           -3.73706126407035        2.23415664583675        1.83651154919524
C           -4.55332458618384        1.18456955156345        2.22271987508610
C           -4.00449997360983        0.18619397673460        3.00878102648049
C           -2.67283907062855        0.20797155306665        3.43146981242941
C           -2.06645116169448       -0.90139723885457        4.27848774802493
C           -0.85110110624826       -1.48410248159671        3.54071089722339
C           -1.62344813150308       -0.31458993706766        5.62761274923438
C           -3.04780727944970       -2.04517990848744        4.55270179944304
C           -1.87703370257401        1.29313517260248        3.06855231828529
C           -2.39940587082082        2.30269400967735        2.28202665807319
C           -1.85359240443382        3.52014806674685        1.73648566333319
C           -0.59958905651557        4.10532963606788        1.79401510915132
C           -0.36317377224572        5.29672895802050        1.11785682081088
C            0.98897824761254        5.99192670003176        1.13787116024747
C            1.46903004740426        6.21793342930982       -0.30345856504744
C            0.83885620863088        7.34432474259183        1.85159327055031
C            2.05957116701564        5.17565421162839        1.86897611446947
C           -1.41407630559141        5.87730136622186        0.39355893445107
C           -2.66975061203104        5.31042734001587        0.30985024494797
C           -2.89125962313211        4.12220009097871        0.99124150164862
N           -3.53803209405296        1.43328153880554       -0.77391769503008
C           -0.73709231846085        1.59704199634585       -0.64755453300227
C            0.60757180812310        1.67391709355333       -0.43168384626995
N            3.44498094785511       -0.53135768228797        0.41448172331966
H           -2.09920734429045       -4.37779575382213        0.11025493965987
H           -1.84167935958372       -4.25274331939885        1.84660722721702
H           -2.98265803749121       -5.43797086276875        1.20536865637029
H           -0.35546321557525       -7.68912527604324       -0.27294440639171
H           -1.24733538400058       -6.44543476957536       -1.14723398345079
H           -2.09456531522295       -7.50362084677707       -0.02451333659938
H           -1.86269014187361       -7.31276854627575        2.35992242548111
H           -0.11903155036821       -7.54061231084350        2.27087329283918
H           -0.79887142200821       -6.14374469104650        3.12839402858842
H            1.32381513638412       -5.77945128757504        2.59733113975279
H            3.40347557138175       -4.57686669371101        2.22039025237600
H           -0.18797381267237       -4.52187397873874       -1.21348923944118
H            0.69740340234435       -2.99042032250316       -3.23447593453619
H           -0.26912135434371       -1.50035840029710       -4.63387637658883
H            0.40138518476144       -2.90703836393896       -5.48353991727756
H            0.05929377307370       -1.42045608590026       -6.36103983645620
H            2.76934517641843        0.65865480277822       -4.96456616134120
H            1.35803770379900        0.61929499997158       -6.01971530544113
H            1.15604093599939        0.55424806820104       -4.26533998341179
H            3.74100469345601       -1.36344366588361       -6.20821664157639
H            2.32419864662209       -1.41052383084697       -7.25375329192879
H            2.79374127152473       -2.84466242046205       -6.33490053441933
H            4.27353835067760       -0.79630900381942       -4.11570347008960
H            5.28212637476539       -1.50002811850947       -2.01404720808321
H            5.44029247801410       -5.03041966531805        0.64962812388006
H            7.57870247220445       -4.76303840973960        1.85011509146161
H            8.43197361097203       -2.49552742807716        2.35271284450350
H            7.10236267922426       -0.51484541156686        1.69037969894916
H            7.30349889622520        2.23898751222949        0.48884228591006
H            8.53152648286192        4.35616285580414        0.11279617300420
H            7.34307162113211        6.31974856097793       -0.79367084643869
H            4.93736085006890        6.16876697327794       -1.31903828635732
H            3.71871453748569        4.05033974278592       -0.91977171609819
H            1.23566883617722       -1.57816045667105        0.30043766859356
H           -1.18855801143983       -1.73260454738891       -0.16523462641198
H           -7.35391293278297       -1.41258271970254       -0.98574242698579
H           -8.48368167814940       -3.56726740529878       -1.45470784620915
H           -7.14408992065113       -5.55073848415571       -2.05478454052637
H           -4.68686228586656       -5.38471884697426       -2.18676019290077
H           -3.57119428115803       -3.21946053861466       -1.71555149323856
H           -7.17975887592527        1.94165902070810       -1.91966553036717
H           -8.49487978924750        4.02144990590841       -1.62941567225671
H           -7.67521650715584        5.78481394620261       -0.10456058658209
H           -5.58545289232563        5.44353287251920        1.16347598781304
H           -5.58716612881799        1.13140925761717        1.91065559400006
H           -4.64613863603447       -0.63273644813345        3.28912543339642
H           -1.14540798760137       -1.84839023489203        2.55865350859342
H           -0.42881262793977       -2.31026365303320        4.10865839268425
H           -0.07278101691522       -0.73994240314574        3.39620809238523
H           -0.87689139916853        0.46312074849509        5.49298882125515
H           -1.19462594505446       -1.09624536660786        6.25061738537213
H           -2.47604540635800        0.11632304797908        6.14840660740784
H           -3.39235679495014       -2.49414464870350        3.62363152289685
H           -3.90662304980860       -1.69781816788705        5.12219296075637
H           -2.54851050530317       -2.81596042871383        5.13603083341277
H           -0.84736993021188        1.35436390852939        3.38425880709017
H            0.17704852872470        3.61165225620027        2.35299752831636
H            1.49944069486345        5.27226941303372       -0.84095225465162
H            2.46937672165719        6.64368556130992       -0.29475427877375
H            0.81552985620447        6.89596193666637       -0.84443328322954
H            0.12004678530984        7.98018690850720        1.34226313913573
H            1.79659262030725        7.85917831999769        1.87790560828076
H            0.49828195539946        7.19359091893392        2.87389742317150
H            1.80090602177811        5.03462902505024        2.91597342182300
H            2.19959112127473        4.20227131092028        1.40261109017223
H            3.01006648527810        5.70386892881140        1.82807258826126
H           -1.24469029198057        6.80355476735234       -0.13239287243884
H           -3.44804079478231        5.77318473819497       -0.27776527912106
H           -1.31006408414220        2.47764845568461       -0.89843680485521
H            1.12797804663714        2.61701762571586       -0.50718386899590

          :  Hamiltonian                  GFN2-xTB          :
         :: gradient norm              0.000124155510 Eh/a0 ::
         :: HOMO-LUMO gap              0.384824741008 eV    ::
         :: SCC energy              -225.929007878016 Eh    ::
         :: -> dispersion             -0.232586362063 Eh    ::
         :: -> Gsolv                  -0.093355698412 Eh    ::
         :: repulsion energy           3.874825402974 Eh    ::

    * Orbital Energies and Occupations

         #    Occupation            Energy/Eh            Energy/eV
      -------------------------------------------------------------
         1        2.0000           -0.6886308             -18.7386
       ...           ...                  ...                  ...
       196        2.0000           -0.4063053             -11.0561
       197        2.0000           -0.4062301             -11.0541
       198        2.0000           -0.4035953             -10.9824
       199        2.0000           -0.3916982             -10.6587
       200        2.0000           -0.3869579             -10.5297
       201        2.0000           -0.3857128             -10.4958
       202        1.9999           -0.3749535             -10.2030
       203        1.9998           -0.3744549             -10.1894
       204        1.9968           -0.3718613             -10.1189
       205        1.9912           -0.3708957             -10.0926
       206        1.6317           -0.3669179              -9.9843
       207        1.3806           -0.3659427              -9.9578
       208        0.9993           -0.2975753              -8.0974 (HOMO)
       209        0.0005           -0.2834334              -7.7126 (LUMO)
       210        0.0002           -0.2823372              -7.6828
       211                         -0.2686736              -7.3110
       212                         -0.2542027              -6.9172
       213                         -0.2537118              -6.9038
       214                         -0.2494703              -6.7884
       215                         -0.2455842              -6.6827
       216                         -0.2453161              -6.6754
       217                         -0.2313374              -6.2950
       218                         -0.2308074              -6.2806
       219                         -0.2303093              -6.2670
       ...                                ...                  ...
       406                          0.7340263              19.9739
      -------------------------------------------------------------
                  HL-Gap            0.0141420 Eh            0.3848 eV

     #   Z          covCN         q      C6AA      α(0)
     1   6 C        3.762    -0.102    22.499     6.762
     2   6 C        3.903     0.027    20.064     6.367
     3   6 C        3.761    -0.109    22.621     6.780
     4   6 C        3.761    -0.112    22.690     6.790
     5   6 C        2.972     0.010    27.783     8.646
     6   6 C        2.927    -0.041    29.025     8.835
     7   6 C        2.908    -0.048    29.181     8.858
     8   6 C        3.079     0.049    26.819     8.490
     9   6 C        3.063    -0.012    28.241     8.715
    10   6 C        2.919    -0.035    28.863     8.810
    11   6 C        3.065    -0.014    28.305     8.724
    12   6 C        2.917    -0.041    29.021     8.834
    13   6 C        2.973     0.005    27.904     8.665
    14   6 C        3.902     0.026    20.088     6.371
    15   6 C        3.761    -0.109    22.638     6.783
    16   6 C        3.761    -0.104    22.532     6.767
    17   6 C        3.761    -0.109    22.626     6.781
    18   6 C        2.930    -0.040    28.987     8.830
    19   6 C        2.908    -0.046    29.139     8.851
    20   6 C        3.079     0.057    26.640     8.462
    21   7 N        2.803    -0.018    21.605     6.903
    22   6 C        2.914     0.064    26.566     8.452
    23   6 C        2.923    -0.042    29.050     8.839
    24   6 C        2.919    -0.026    28.650     8.777
    25   6 C        2.917    -0.030    28.739     8.791
    26   6 C        2.925    -0.029    28.720     8.789
    27   6 C        2.983    -0.012    28.306     8.727
    28   6 C        2.965     0.230    23.191     7.899
    29   7 N        1.845    -0.368    30.460     8.179
    30   6 C        2.964     0.219    23.391     7.933
    31   6 C        2.984    -0.009    28.240     8.717
    32   6 C        2.924    -0.029    28.728     8.790
    33   6 C        2.918    -0.030    28.747     8.792
    34   6 C        2.920    -0.027    28.680     8.782
    35   6 C        2.918    -0.029    28.733     8.790
    36   6 C        2.924    -0.028    28.712     8.787
    37   7 N        1.844    -0.322    29.201     8.009
    38   6 C        2.951     0.198    23.805     8.002
    39   6 C        2.980    -0.022    28.549     8.765
    40   6 C        2.920    -0.038    28.937     8.821
    41   6 C        2.919    -0.036    28.885     8.813
    42   6 C        2.981    -0.022    28.547     8.764
    43   6 C        2.959     0.204    23.682     7.982
    44   7 N        1.844    -0.324    29.243     8.014
    45   6 C        2.972     0.220    23.368     7.929
    46   6 C        2.984    -0.010    28.248     8.718
    47   6 C        2.923    -0.029    28.730     8.790
    48   6 C        2.918    -0.030    28.740     8.791
    49   6 C        2.920    -0.027    28.677     8.782
    50   6 C        2.918    -0.029    28.731     8.790
    51   6 C        2.924    -0.028    28.708     8.787
    52   7 N        1.843    -0.369    30.462     8.180
    53   6 C        2.975     0.236    23.064     7.878
    54   6 C        2.985    -0.011    28.287     8.724
    55   6 C        2.923    -0.029    28.718     8.788
    56   6 C        2.918    -0.030    28.740     8.791
    57   6 C        2.919    -0.026    28.654     8.778
    58   6 C        2.921    -0.043    29.059     8.840
    59   6 C        2.916     0.066    26.531     8.446
    60   7 N        2.802    -0.027    21.766     6.929
    61   6 C        3.081     0.059    26.594     8.454
    62   6 C        2.908    -0.049    29.215     8.863
    63   6 C        2.928    -0.045    29.123     8.850
    64   6 C        2.972     0.004    27.920     8.667
    65   6 C        3.903     0.026    20.087     6.371
    66   6 C        3.761    -0.102    22.488     6.760
    67   6 C        3.761    -0.108    22.619     6.780
    68   6 C        3.761    -0.109    22.636     6.782
    69   6 C        2.920    -0.037    28.931     8.820
    70   6 C        3.063    -0.016    28.343     8.730
    71   6 C        3.065    -0.012    28.249     8.715
    72   6 C        2.917    -0.038    28.934     8.821
    73   6 C        2.973     0.009    27.813     8.651
    74   6 C        3.903     0.027    20.069     6.368
    75   6 C        3.761    -0.105    22.558     6.770
    76   6 C        3.761    -0.109    22.635     6.782
    77   6 C        3.761    -0.106    22.564     6.772
    78   6 C        2.930    -0.038    28.941     8.823
    79   6 C        2.907    -0.049    29.218     8.863
    80   6 C        3.080     0.052    26.741     8.478
    81   7 N        1.846    -0.313    28.963     7.976
    82   6 C        2.919    -0.036    28.884     8.813
    83   6 C        2.919    -0.036    28.901     8.816
    84   7 N        1.844    -0.303    28.702     7.940
    85   1 H        0.925     0.032     2.554     2.499
    86   1 H        0.925     0.033     2.542     2.493
    87   1 H        0.925     0.042     2.427     2.436
    88   1 H        0.925     0.038     2.476     2.461
    89   1 H        0.925     0.038     2.469     2.457
    90   1 H        0.925     0.044     2.399     2.422
    91   1 H        0.925     0.043     2.412     2.429
    92   1 H        0.925     0.041     2.433     2.439
    93   1 H        0.925     0.040     2.454     2.450
    94   1 H        0.926     0.055     2.259     2.351
    95   1 H        0.926     0.038     2.470     2.457
    96   1 H        0.926     0.042     2.418     2.432
    97   1 H        0.926     0.050     2.326     2.385
    98   1 H        0.925     0.032     2.559     2.502
    99   1 H        0.925     0.042     2.418     2.431
   100   1 H        0.925     0.043     2.414     2.430
   101   1 H        0.925     0.035     2.519     2.482
   102   1 H        0.925     0.045     2.385     2.415
   103   1 H        0.925     0.026     2.640     2.541
   104   1 H        0.925     0.039     2.466     2.456
   105   1 H        0.925     0.045     2.378     2.411
   106   1 H        0.925     0.039     2.459     2.452
   107   1 H        0.926     0.035     2.516     2.480
   108   1 H        0.926     0.016     2.794     2.614
   109   1 H        0.926     0.056     2.251     2.346
   110   1 H        0.926     0.059     2.208     2.324
   111   1 H        0.926     0.055     2.258     2.350
   112   1 H        0.926     0.054     2.276     2.359
   113   1 H        0.926     0.045     2.379     2.412
   114   1 H        0.926     0.042     2.419     2.432
   115   1 H        0.926     0.045     2.385     2.415
   116   1 H        0.926     0.043     2.404     2.425
   117   1 H        0.926     0.046     2.367     2.406
   118   1 H        0.926     0.037     2.492     2.469
   119   1 H        0.926     0.033     2.547     2.495
   120   1 H        0.926     0.045     2.380     2.413
   121   1 H        0.926     0.043     2.412     2.429
   122   1 H        0.926     0.046     2.368     2.406
   123   1 H        0.926     0.046     2.370     2.408
   124   1 H        0.926     0.041     2.441     2.443
   125   1 H        0.926     0.050     2.319     2.382
   126   1 H        0.926     0.056     2.248     2.345
   127   1 H        0.926     0.060     2.201     2.320
   128   1 H        0.926     0.056     2.245     2.343
   129   1 H        0.925     0.018     2.767     2.601
   130   1 H        0.926     0.043     2.405     2.425
   131   1 H        0.925     0.029     2.594     2.519
   132   1 H        0.925     0.045     2.387     2.416
   133   1 H        0.925     0.031     2.579     2.511
   134   1 H        0.925     0.038     2.481     2.463
   135   1 H        0.925     0.046     2.365     2.405
   136   1 H        0.925     0.038     2.474     2.460
   137   1 H        0.925     0.035     2.519     2.482
   138   1 H        0.925     0.040     2.452     2.449
   139   1 H        0.925     0.045     2.377     2.411
   140   1 H        0.926     0.037     2.485     2.465
   141   1 H        0.926     0.042     2.418     2.432
   142   1 H        0.925     0.029     2.603     2.523
   143   1 H        0.925     0.044     2.391     2.418
   144   1 H        0.925     0.042     2.420     2.433
   145   1 H        0.925     0.043     2.414     2.429
   146   1 H        0.925     0.045     2.378     2.412
   147   1 H        0.925     0.037     2.492     2.469
   148   1 H        0.925     0.036     2.509     2.477
   149   1 H        0.925     0.031     2.567     2.505
   150   1 H        0.925     0.039     2.460     2.453
   151   1 H        0.926     0.048     2.345     2.395
   152   1 H        0.926     0.039     2.465     2.455
   153   1 H        0.926     0.029     2.594     2.519
   154   1 H        0.926     0.032     2.557     2.501

molecular dipole:
                 x           y           z       tot (Debye)
 q only:        0.024      -0.726       0.764
   full:        0.057      -0.587       0.659       2.248

 projected vibrational frequencies (cm⁻¹)
eigval :       -0.00    -0.00    -0.00     0.00     0.00     0.00
eigval :        7.21    10.41    10.84    13.10    14.95    19.45
eigval :       22.08    24.02    28.92    31.78    35.90    38.68
eigval :       41.94    42.37    43.59    47.69    50.13    51.22
eigval :       53.75    54.57    62.72    65.61    69.15    70.99
eigval :       73.26    77.99    83.11    84.97    98.54   100.91
eigval :      104.87   107.30   112.92   118.46   134.09   136.30
eigval :      146.64   152.71   160.09   163.10   169.06   175.17
eigval :      178.09   179.83   182.68   184.30   189.54   196.53
eigval :      198.11   199.72   205.79   209.06   212.53   218.67
eigval :      220.93   224.97   230.09   234.64   238.10   242.60
eigval :      248.74   256.71   263.07   265.31   266.75   275.53
eigval :      279.33   284.49   286.51   301.31   304.00   308.84
eigval :      316.31   319.41   320.93   323.25   326.02   330.27
eigval :      337.83   338.50   348.10   353.88   355.09   358.05
eigval :      364.86   367.86   368.96   371.11   381.92   386.59
eigval :      390.86   394.70   396.05   397.31   404.70   405.76
eigval :      406.20   407.13   415.03   422.85   428.50   434.80
eigval :      437.13   443.19   443.98   445.63   448.27   453.86
eigval :      462.48   463.19   464.99   465.61   467.89   470.58
eigval :      502.74   506.86   519.07   519.14   557.84   563.58
eigval :      574.59   575.47   576.54   577.19   581.63   583.73
eigval :      587.14   588.22   592.17   593.31   596.19   598.06
eigval :      606.01   617.97   619.41   623.00   624.73   626.34
eigval :      628.35   638.53   642.78   643.01   651.93   663.05
eigval :      667.87   670.60   679.81   691.07   691.38   697.13
eigval :      700.45   707.30   707.81   718.32   721.42   730.80
eigval :      732.25   738.56   741.51   771.46   774.10   784.60
eigval :      785.81   796.50   815.53   817.68   818.44   819.75
eigval :      821.47   823.97   826.86   830.85   831.01   850.31
eigval :      858.02   864.29   866.69   871.53   871.73   875.82
eigval :      876.22   876.70   879.49   884.75   886.19   905.58
eigval :      906.02   906.93   907.25   908.77   913.51   915.19
eigval :      916.01   918.82   919.06   919.75   921.54   925.74
eigval :      926.02   927.16   927.36   928.97   928.99   930.32
eigval :      930.48   937.05   938.22   958.84   959.07   959.75
eigval :      960.06   960.37   960.81   961.22   961.61   962.03
eigval :      962.71   963.31   964.41   965.66   973.19   988.22
eigval :     1001.72  1006.64  1030.55  1030.80  1032.40  1033.71
eigval :     1034.03  1035.10  1035.28  1035.38  1039.02  1039.52
eigval :     1055.20  1056.10  1075.27  1075.76  1084.86  1087.91
eigval :     1097.77  1100.64  1107.24  1108.93  1114.50  1120.80
eigval :     1121.60  1127.30  1127.62  1146.06  1146.32  1151.11
eigval :     1155.45  1162.79  1163.02  1165.15  1171.91  1175.18
eigval :     1175.90  1176.08  1178.53  1184.04  1185.87  1193.37
eigval :     1198.09  1206.64  1206.94  1222.12  1223.03  1223.58
eigval :     1223.80  1224.04  1224.72  1226.75  1228.11  1228.51
eigval :     1229.70  1230.68  1236.90  1238.20  1241.37  1243.71
eigval :     1247.08  1250.35  1253.96  1254.54  1257.68  1267.32
eigval :     1269.91  1279.38  1279.96  1289.48  1289.73  1296.20
eigval :     1296.50  1307.93  1310.13  1320.64  1322.60  1327.35
eigval :     1328.85  1333.94  1334.72  1336.75  1337.15  1343.75
eigval :     1345.67  1362.80  1363.45  1385.50  1394.86  1397.94
eigval :     1398.53  1399.67  1400.01  1400.40  1402.66  1403.32
eigval :     1403.77  1408.11  1409.58  1412.11  1416.80  1424.40
eigval :     1426.25  1426.59  1426.98  1428.76  1430.81  1432.52
eigval :     1434.74  1439.43  1441.47  1457.90  1458.02  1458.39
eigval :     1463.12  1464.21  1468.14  1471.46  1472.06  1472.70
eigval :     1485.40  1486.88  1487.51  1488.22  1489.81  1490.53
eigval :     1491.54  1491.66  1492.25  1496.44  1498.00  1499.29
eigval :     1499.70  1499.97  1500.58  1502.78  1503.54  1509.03
eigval :     1509.70  1510.96  1511.10  1517.07  1517.56  1517.84
eigval :     1518.38  1520.71  1529.37  1556.75  1558.22  1562.66
eigval :     1563.39  1574.30  1576.93  1579.10  1579.74  1579.84
eigval :     1580.11  1580.76  1582.06  1589.69  1590.68  1593.14
eigval :     1598.78  1605.63  3019.55  3020.20  3022.21  3022.33
eigval :     3022.91  3023.85  3024.30  3024.48  3025.22  3025.48
eigval :     3026.16  3027.88  3028.44  3028.73  3029.62  3030.21
eigval :     3030.49  3030.96  3031.07  3031.34  3031.59  3033.24
eigval :     3034.08  3035.13  3037.15  3037.43  3037.64  3039.29
eigval :     3042.81  3045.74  3046.01  3047.74  3049.10  3049.67
eigval :     3050.20  3052.45  3065.72  3067.23  3074.44  3074.78
eigval :     3077.20  3079.07  3079.62  3081.80  3084.30  3084.73
eigval :     3086.25  3087.18  3088.69  3088.80  3089.50  3089.78
eigval :     3090.85  3091.26  3094.40  3095.75  3096.32  3098.75
eigval :     3099.61  3100.70  3101.37  3102.79  3103.56  3105.91
eigval :     3106.86  3108.60  3118.72  3122.20  3124.60  3127.09

   temp. (K)  partition function   enthalpy   heat capacity  entropy
                                   cal/mol     cal/K/mol   cal/K/mol   J/K/mol
 298.15  VIB  0.650E+37            46371.168    281.579    291.257
         ROT  0.283E+09              888.752      2.981     41.652
         INT  0.184E+46            47259.920    284.560    332.910
         TR   0.351E+29             1481.254      4.968     46.832
         TOT                       48741.1739   289.5284   379.7414  1588.8382

       T/K    H(0)-H(T)+PV         H(T)/Eh          T*S/Eh         G(T)/Eh
   ------------------------------------------------------------------------
    298.15    0.776740E-01    0.131758E+01    0.180427E+00    0.113715E+01
   ------------------------------------------------------------------------

         :::::::::::::::::::::::::::::::::::::::::::::::::::::
         ::                  THERMODYNAMIC                  ::
         :::::::::::::::::::::::::::::::::::::::::::::::::::::
         :: total free energy        -220.917032670318 Eh   ::
         ::.................................................::
         :: total energy             -222.054182476366 Eh   ::
         :: zero point energy           1.239903217752 Eh   ::
         :: G(RRHO) w/o ZPVE           -0.102753411705 Eh   ::
         :: G(RRHO) contrib.            1.137149806048 Eh   ::
         :::::::::::::::::::::::::::::::::::::::::::::::::::::

           -------------------------------------------------
          | TOTAL ENERGY             -222.054182476366 Eh   |
          | TOTAL ENTHALPY           -220.736605253780 Eh   |
          | TOTAL FREE ENERGY        -220.917032670318 Eh   |
          | GRADIENT NORM               0.000122526192 Eh/α |
          | HOMO-LUMO GAP               0.384822386308 eV   |
           -------------------------------------------------

 * finished run on 2025/07/19 at 07:29:09.462
