   * xtb version 6.7.1 (edcfbbe) compiled by 'albert@albert-system' on 2024-07-22

   ID    Z sym.   atoms
    1    6 C      1-20, 22-28, 30-36, 38-43, 45-51, 53-59, 61-80, 82, 83
    2    7 N      21, 29, 37, 44, 52, 60, 81, 84
    3    1 H      85-154

          program call               : xtb data2507/toluene/BTrztCz/BTrztCz.xyz --gfn 2 --gbsa toluene --ohess vtight --parallel 40 --molden --ceasefiles --namespace data2507/toluene/BTrztCz/BTrztCz_toluene_S0_preOpt
      * Solvation model:               GBSA
        Solvent                        toluene
        Solvent mass                       9.2140E+01 g/mol
          :  Hamiltonian                  GFN2-xTB          :
 * total energy  :  -222.0760068 Eh     change       -0.6949506E-08 Eh
 * total energy  :  -222.0974982 Eh     change       -0.2149145E-01 Eh
 * total energy  :  -222.1049387 Eh     change       -0.7440511E-02 Eh
 * total energy  :  -222.1077359 Eh     change       -0.2797216E-02 Eh
 * total energy  :  -222.1093285 Eh     change       -0.1592534E-02 Eh
 * total energy  :  -222.1100978 Eh     change       -0.7692874E-03 Eh
 * total energy  :  -222.1105921 Eh     change       -0.4943836E-03 Eh
 * total energy  :  -222.1110153 Eh     change       -0.4231261E-03 Eh
 * total energy  :  -222.1113461 Eh     change       -0.3308331E-03 Eh
 * total energy  :  -222.1115594 Eh     change       -0.2132746E-03 Eh
 * total energy  :  -222.1139149 Eh     change       -0.4788530E-06 Eh
 * total energy  :  -222.1139153 Eh     change       -0.4254445E-06 Eh
 * total energy  :  -222.1139157 Eh     change       -0.3633537E-06 Eh
 * total energy  :  -222.1139160 Eh     change       -0.3734995E-06 Eh
 * total energy  :  -222.1139165 Eh     change       -0.4415501E-06 Eh
 * total energy  :  -222.1139169 Eh     change       -0.4597864E-06 Eh
 * total energy  :  -222.1139174 Eh     change       -0.4628613E-06 Eh
 * total energy  :  -222.1139179 Eh     change       -0.4476646E-06 Eh
 * total energy  :  -222.1139179 Eh     change       -0.6132012E-08 Eh
   *** GEOMETRY OPTIMIZATION CONVERGED AFTER 122 ITERATIONS ***

 final structure:
================
154
 xtb: 6.7.1 (edcfbbe)
C            8.13975038956361       -4.81542391442546       -0.10005467822856
C            6.96316866630725       -4.26458802641565        0.71138861203418
C            6.92337927184314       -5.00354183350702        2.05759001235790
C            5.67351993948273       -4.54443457053275       -0.07474635793049
C            7.08005042929606       -2.76784099550944        0.96646722808652
C            6.06287042454323       -2.12102623580770        1.68221461536932
C            6.08115694493178       -0.76786320766905        1.95339880713959
C            7.14801493606500       -0.02118241005025        1.47857976859607
C            8.20260073316519       -0.65294754022425        0.78832845094622
C            8.16046825482155       -2.01714490340964        0.53225496998161
C            9.16794047956565        0.37150552616827        0.49400970970773
C           10.39256184162138        0.35977776285892       -0.16235110639671
C           11.10690891841981        1.53809061175595       -0.30960573120141
C           12.46586555363436        1.59701247038657       -0.99486469465489
C           13.50652638649965        2.12358249417870        0.00504987379316
C           12.93650860390200        0.22538936913622       -1.48869294181444
C           12.38752481329119        2.53984013057303       -2.20494845223497
C           10.55246320579953        2.72209741302070        0.19592417714985
C            9.33851278007759        2.76311506798822        0.85234127413414
C            8.64931384892614        1.57236108039345        1.02060802383458
N            7.42695598687983        1.32401242019104        1.61898895818074
C            6.59481173393216        2.28191869524545        2.20243342274833
C            7.10978400337252        3.12017083596343        3.18911971242591
C            6.30253613640106        4.04873097077262        3.81847059204115
C            4.95718268026101        4.13725684534338        3.49182714558203
C            4.43413598480162        3.30975387427133        2.51775560509137
C            5.24231525636520        2.39395494260919        1.84634865104235
C            4.65060243933040        1.60781643262276        0.75955124380462
N            5.41338432226271        1.26151961435748       -0.26825470823664
C            4.82707017418053        0.52856958788864       -1.20979923284536
C            5.65198030157250        0.02596756615930       -2.30479758175927
C            5.10349357772994       -0.83590131997134       -3.25465161843307
C            5.89331898202910       -1.34000319392463       -4.26969363480489
C            7.23217066671048       -0.98663707329799       -4.34857322795428
C            7.77990716296029       -0.12472509057216       -3.41058492296685
C            6.99734310281398        0.38157461025321       -2.39110718336139
N            3.53176290090251        0.21467164713809       -1.20485040659326
C            2.83603952496897        0.64733936262981       -0.16097847626210
C            1.39936192251976        0.35792918607531       -0.13169866580577
C            0.71176301616727        0.13376157787845       -1.32339295046968
C           -0.64357939837925       -0.11897580224622       -1.30228349722515
C           -1.32310103842002       -0.18527391144075       -0.08697831391903
C           -2.75704894502432       -0.48932203655975       -0.06971201740333
N           -3.46538395218779       -0.18823279128565       -1.15065174787907
C           -4.75522606406527       -0.52216176624780       -1.11066502587784
C           -5.59487840174129       -0.15685665906928       -2.24795241969792
C           -6.92208960295290       -0.57963406114598       -2.30686211811695
C           -7.71719988846856       -0.20629277485346       -3.37292283352709
C           -7.20037701919817        0.58940033027123       -4.38404195288373
C           -5.87985124995522        1.00985148433514       -4.33169144364233
C           -5.07742487727363        0.63871459015412       -3.27029692031862
N           -5.32136287986623       -1.16170439060959       -0.09206163460997
C           -4.54824943219804       -1.37635797870699        0.96376367664265
C           -5.11614764624449       -2.05989026369781        2.12937496911627
C           -4.27457225000820       -2.85593832815265        2.90496523264674
C           -4.77000785554805       -3.59375161469078        3.96181469974929
C           -6.12267235139211       -3.53726564930772        4.26473105253723
C           -6.96496161757132       -2.72611934381278        3.52833231171877
C           -6.47736128645261       -1.97669042694552        2.45960929758787
N           -7.34787855096433       -1.13085833372386        1.76892887994010
C           -7.14252277112272        0.20845211786401        1.50162301896115
C           -6.12437367587318        1.05504516325123        1.90467745547307
C           -6.17816482416479        2.38109370076274        1.51414479973462
C           -7.22499905986532        2.89765786081453        0.74502360760170
C           -7.28194525609806        4.35797738099172        0.31509043691681
C           -8.55977742177317        4.99743540716910        0.87950346402463
C           -6.08522909912611        5.17448236074189        0.81293748629855
C           -7.29935350711879        4.42737989881497       -1.21930842758314
C           -8.25617120539117        2.04396925137781        0.37423791468552
C           -8.22623994683687        0.71069712482340        0.74968531076778
C           -9.12833666137990       -0.39162129781463        0.54876999512231
C          -10.34330557836394       -0.51410188491852       -0.11365110725809
C          -10.98668449861644       -1.74112273669725       -0.15301268818952
C          -12.33036587368662       -1.94475073400647       -0.84077625735070
C          -13.35376337550421       -2.43073432501984        0.19684356136680
C          -12.87048002567816       -0.65736084800122       -1.47138586654461
C          -12.18222745259663       -2.99517289357252       -1.95168854381487
C          -10.37216219053707       -2.83659803044138        0.46901471650259
C           -9.16626759393164       -2.74359687166199        1.13510940701901
C           -8.54801739818555       -1.50438744227345        1.19146669359230
N           -3.25824656447872       -1.04845298509403        1.02621554738189
C           -0.63315429842345        0.02419026942832        1.10570726860211
C            0.71612872122098        0.31085601571206        1.08229012061950
N            3.35379550218587        1.32075438353065        0.86068917620297
H            7.99611727760866       -5.88119186596407       -0.26589504492197
H            9.07816109220032       -4.68167828836156        0.43277089277208
H            8.20451865035455       -4.32841713615547       -1.07045659815460
H            6.06280954809233       -4.70331387363551        2.64934539407172
H            7.82276049189829       -4.78730765783378        2.63073719333078
H            6.86646690009029       -6.07755703627363        1.89361266595133
H            5.58056296893103       -5.60998180006160       -0.27422317061250
H            4.79247792256634       -4.22411990644006        0.47543598498371
H            5.69036572971254       -4.01392929908015       -1.02506224542977
H            5.22237770466195       -2.69368493475108        2.04607060974402
H            5.27838881810170       -0.31082877432975        2.51708369408118
H            8.97859669164747       -2.46642864054166       -0.00473471384165
H           10.75973571819474       -0.57603121814840       -0.54872687278762
H           14.49023326842198        2.15303355294511       -0.45907146373238
H           13.55440585689533        1.47203671111881        0.87550804194626
H           13.26041331519595        3.12622362295496        0.34361487420535
H           12.24893500328764       -0.18478615900714       -2.22456504197247
H           13.91182865308304        0.32632715177746       -1.96085351058630
H           13.03447696296820       -0.47483066970356       -0.66227782994367
H           12.12253101700144        3.55010419925339       -1.90573618264281
H           11.63838706203897        2.18754436823642       -2.91096003599072
H           13.34929519844395        2.57693325343247       -2.71250789912870
H           11.08727031903876        3.65144805947955        0.07340000699215
H            8.93998040155606        3.69953051365129        1.21338659397400
H            8.14803154899591        3.02048661664334        3.46828178138412
H            6.71972119088414        4.69309746528970        4.57742078262032
H            4.32051648545253        4.84985819057662        3.99291861194227
H            3.39227838299698        3.36957610273676        2.24028596782082
H            4.06152717593954       -1.10462637205916       -3.17250903015223
H            5.46621098047506       -2.01110292329548       -5.00012505278171
H            7.84818477333328       -1.38371746390392       -5.14182186252565
H            8.82067019027238        0.15271485234465       -3.47381041927601
H            7.41038802382960        1.04863101100901       -1.65110373385128
H            1.25524022217306        0.17286552019241       -2.25485797833485
H           -1.19289064165943       -0.28168356671636       -2.21685527420751
H           -7.31107476740260       -1.19393080995878       -1.51024188015289
H           -8.74380703199217       -0.53557151620332       -3.41564756370228
H           -7.82650963597374        0.88277959081258       -5.21352959158489
H           -5.47728051220259        1.62975046589407       -5.11903732076793
H           -4.04924523119722        0.96095570712435       -3.20787131640964
H           -3.22751456544663       -2.89476676068076        2.64412891187567
H           -4.10655469669606       -4.21312235016673        4.54530727779366
H           -6.51859338170521       -4.11332831253745        5.08730106270495
H           -8.01103578449079       -2.64859675231715        3.78467252592157
H           -5.29982006800222        0.69775855514255        2.50758288303405
H           -5.37144874756732        3.02313907177146        1.82922394338185
H           -9.45022678076199        4.50692479784999        0.49719545249443
H           -8.60435236290699        6.04904654299723        0.60438392321753
H           -8.56843532755274        4.92294324697011        1.96518736651587
H           -6.04334363979675        5.18632933039860        1.89987544700771
H           -6.18171347260481        6.20243330403170        0.46914359296476
H           -5.14976120452316        4.77738369004857        0.42400424781711
H           -8.14861249699726        3.88992837540916       -1.63147346459430
H           -6.39056814569050        3.98635943473261       -1.62454819475603
H           -7.35679402040099        5.46359243177606       -1.54600692947282
H           -9.09117236750658        2.40386605533773       -0.20623441892179
H          -10.75923090193238        0.35753020052082       -0.59032993141451
H          -13.05718033195857       -3.38121975905363        0.63158791217441
H          -14.32813086062792       -2.55931052990749       -0.27009562798004
H          -13.44904683694742       -1.70318764570260        1.00063917603231
H          -13.02157202445719        0.11308739241302       -0.71871846929834
H          -13.83074648215574       -0.86035446556948       -1.94157050180334
H          -12.19563179023642       -0.28128820232544       -2.23674518182829
H          -11.44444927255996       -2.67136343605062       -2.68282281304757
H          -11.86516359944759       -3.95455549499839       -1.55248014040815
H          -13.13335712072650       -3.13658637896101       -2.46093513362278
H          -10.85151858275253       -3.80288153726847        0.43328796784429
H           -8.71970759979407       -3.61607806261925        1.58847646533480
H           -1.17273290443695       -0.03266228320831        2.03879626031709
H            1.26156970999727        0.49061256058919        1.99616636146752

          :  Hamiltonian                  GFN2-xTB          :
         :: gradient norm              0.000093306630 Eh/a0 ::
         :: HOMO-LUMO gap              1.404455693133 eV    ::
         :: SCC energy              -225.994264644091 Eh    ::
         :: -> dispersion             -0.218891300794 Eh    ::
         :: -> Gsolv                  -0.096690282844 Eh    ::
         :: repulsion energy           3.880346785908 Eh    ::

    * Orbital Energies and Occupations

         #    Occupation            Energy/Eh            Energy/eV
      -------------------------------------------------------------
         1        2.0000           -0.6972689             -18.9737
       ...           ...                  ...                  ...
       195        2.0000           -0.4111811             -11.1888
       196        2.0000           -0.4093618             -11.1393
       197        2.0000           -0.4089047             -11.1269
       198        2.0000           -0.3990799             -10.8595
       199        2.0000           -0.3982442             -10.8368
       200        2.0000           -0.3884007             -10.5689
       201        2.0000           -0.3878689             -10.5545
       202        2.0000           -0.3855289             -10.4908
       203        2.0000           -0.3853441             -10.4857
       204        2.0000           -0.3765859             -10.2474
       205        2.0000           -0.3759556             -10.2303
       206        2.0000           -0.3610459              -9.8246
       207        2.0000           -0.3604972              -9.8096 (HOMO)
       208                         -0.3088844              -8.4052 (LUMO)
       209                         -0.2967633              -8.0753
       210                         -0.2966267              -8.0716
       211                         -0.2840266              -7.7288
       212                         -0.2576358              -7.0106
       213                         -0.2483201              -6.7571
       214                         -0.2476055              -6.7377
       215                         -0.2472207              -6.7272
       216                         -0.2412297              -6.5642
       217                         -0.2409325              -6.5561
       218                         -0.2375562              -6.4642
       ...                                ...                  ...
       406                          0.7417677              20.1845
      -------------------------------------------------------------
                  HL-Gap            0.0516128 Eh            1.4045 eV

     #   Z          covCN         q      C6AA      α(0)
     1   6 C        3.761    -0.110    22.643     6.783
     2   6 C        3.902     0.024    20.110     6.374
     3   6 C        3.761    -0.106    22.572     6.773
     4   6 C        3.761    -0.104    22.527     6.766
     5   6 C        2.972    -0.005    28.132     8.700
     6   6 C        2.931    -0.044    29.101     8.847
     7   6 C        2.908    -0.055    29.367     8.886
     8   6 C        3.080     0.054    26.711     8.473
     9   6 C        3.067    -0.021    28.461     8.748
    10   6 C        2.918    -0.048    29.185     8.859
    11   6 C        3.067    -0.020    28.428     8.743
    12   6 C        2.918    -0.045    29.116     8.848
    13   6 C        2.972    -0.001    28.047     8.687
    14   6 C        3.902     0.025    20.096     6.372
    15   6 C        3.761    -0.106    22.577     6.773
    16   6 C        3.761    -0.108    22.615     6.779
    17   6 C        3.761    -0.106    22.570     6.772
    18   6 C        2.931    -0.040    28.994     8.831
    19   6 C        2.908    -0.055    29.374     8.887
    20   6 C        3.080     0.046    26.877     8.499
    21   7 N        2.801    -0.047    22.150     6.990
    22   6 C        2.912     0.072    26.395     8.425
    23   6 C        2.923    -0.045    29.116     8.849
    24   6 C        2.919    -0.024    28.601     8.770
    25   6 C        2.917    -0.033    28.822     8.804
    26   6 C        2.926    -0.029    28.732     8.790
    27   6 C        2.983    -0.018    28.461     8.751
    28   6 C        2.989     0.237    23.048     7.875
    29   7 N        1.843    -0.310    28.876     7.964
    30   6 C        2.987     0.221    23.344     7.926
    31   6 C        2.984    -0.009    28.245     8.718
    32   6 C        2.924    -0.026    28.660     8.779
    33   6 C        2.918    -0.028    28.689     8.783
    34   6 C        2.920    -0.021    28.539     8.760
    35   6 C        2.918    -0.025    28.638     8.776
    36   6 C        2.923    -0.023    28.583     8.767
    37   7 N        1.844    -0.323    29.217     8.011
    38   6 C        2.988     0.222    23.331     7.923
    39   6 C        2.985    -0.001    28.051     8.688
    40   6 C        2.922    -0.025    28.625     8.774
    41   6 C        2.922    -0.025    28.627     8.774
    42   6 C        2.985    -0.001    28.047     8.687
    43   6 C        2.988     0.222    23.334     7.924
    44   7 N        1.844    -0.323    29.231     8.013
    45   6 C        2.987     0.221    23.350     7.926
    46   6 C        2.984    -0.009    28.243     8.718
    47   6 C        2.923    -0.023    28.579     8.767
    48   6 C        2.918    -0.025    28.634     8.775
    49   6 C        2.920    -0.021    28.530     8.759
    50   6 C        2.918    -0.027    28.678     8.782
    51   6 C        2.924    -0.026    28.656     8.779
    52   7 N        1.843    -0.309    28.862     7.962
    53   6 C        2.988     0.236    23.065     7.878
    54   6 C        2.983    -0.018    28.462     8.751
    55   6 C        2.926    -0.029    28.733     8.791
    56   6 C        2.917    -0.033    28.821     8.804
    57   6 C        2.919    -0.024    28.598     8.769
    58   6 C        2.923    -0.045    29.113     8.848
    59   6 C        2.912     0.072    26.393     8.424
    60   7 N        2.801    -0.047    22.143     6.989
    61   6 C        3.077     0.054    26.712     8.474
    62   6 C        2.909    -0.056    29.381     8.888
    63   6 C        2.928    -0.049    29.211     8.864
    64   6 C        2.972    -0.004    28.130     8.700
    65   6 C        3.902     0.024    20.110     6.374
    66   6 C        3.761    -0.107    22.595     6.776
    67   6 C        3.761    -0.107    22.585     6.775
    68   6 C        3.761    -0.106    22.566     6.772
    69   6 C        2.920    -0.043    29.077     8.843
    70   6 C        3.066    -0.020    28.445     8.746
    71   6 C        3.065    -0.020    28.427     8.743
    72   6 C        2.918    -0.045    29.109     8.847
    73   6 C        2.972    -0.001    28.050     8.687
    74   6 C        3.902     0.025    20.096     6.372
    75   6 C        3.761    -0.106    22.577     6.773
    76   6 C        3.761    -0.108    22.611     6.779
    77   6 C        3.761    -0.106    22.570     6.772
    78   6 C        2.931    -0.040    28.992     8.830
    79   6 C        2.908    -0.055    29.374     8.887
    80   6 C        3.079     0.047    26.870     8.498
    81   7 N        1.845    -0.330    29.416     8.038
    82   6 C        2.922    -0.025    28.625     8.774
    83   6 C        2.922    -0.025    28.625     8.774
    84   7 N        1.845    -0.330    29.422     8.039
    85   1 H        0.925     0.041     2.434     2.440
    86   1 H        0.925     0.040     2.448     2.447
    87   1 H        0.925     0.037     2.488     2.466
    88   1 H        0.925     0.033     2.537     2.491
    89   1 H        0.925     0.036     2.509     2.477
    90   1 H        0.925     0.042     2.423     2.434
    91   1 H        0.925     0.043     2.414     2.430
    92   1 H        0.925     0.029     2.602     2.522
    93   1 H        0.925     0.029     2.603     2.523
    94   1 H        0.926     0.022     2.700     2.570
    95   1 H        0.925     0.002     3.030     2.722
    96   1 H        0.926     0.046     2.376     2.410
    97   1 H        0.926     0.043     2.408     2.427
    98   1 H        0.925     0.039     2.456     2.451
    99   1 H        0.925     0.033     2.543     2.494
   100   1 H        0.925     0.037     2.495     2.470
   101   1 H        0.925     0.036     2.498     2.472
   102   1 H        0.925     0.038     2.469     2.457
   103   1 H        0.925     0.037     2.494     2.470
   104   1 H        0.925     0.036     2.500     2.473
   105   1 H        0.925     0.032     2.551     2.498
   106   1 H        0.925     0.040     2.454     2.450
   107   1 H        0.926     0.035     2.514     2.480
   108   1 H        0.926     0.026     2.642     2.542
   109   1 H        0.926     0.055     2.255     2.348
   110   1 H        0.926     0.057     2.230     2.335
   111   1 H        0.926     0.053     2.282     2.362
   112   1 H        0.926     0.048     2.351     2.398
   113   1 H        0.926     0.050     2.324     2.384
   114   1 H        0.926     0.049     2.327     2.386
   115   1 H        0.926     0.053     2.279     2.361
   116   1 H        0.926     0.050     2.325     2.385
   117   1 H        0.926     0.050     2.314     2.379
   118   1 H        0.926     0.059     2.208     2.324
   119   1 H        0.926     0.059     2.211     2.325
   120   1 H        0.926     0.050     2.318     2.381
   121   1 H        0.926     0.049     2.329     2.386
   122   1 H        0.926     0.053     2.277     2.359
   123   1 H        0.926     0.050     2.325     2.384
   124   1 H        0.926     0.049     2.331     2.388
   125   1 H        0.926     0.048     2.343     2.393
   126   1 H        0.926     0.053     2.282     2.363
   127   1 H        0.926     0.057     2.229     2.335
   128   1 H        0.926     0.055     2.256     2.349
   129   1 H        0.925     0.002     3.031     2.723
   130   1 H        0.926     0.030     2.588     2.516
   131   1 H        0.925     0.040     2.448     2.447
   132   1 H        0.925     0.042     2.425     2.435
   133   1 H        0.925     0.034     2.534     2.490
   134   1 H        0.925     0.035     2.511     2.478
   135   1 H        0.925     0.041     2.434     2.440
   136   1 H        0.925     0.030     2.593     2.518
   137   1 H        0.925     0.039     2.468     2.457
   138   1 H        0.925     0.027     2.628     2.535
   139   1 H        0.925     0.043     2.412     2.428
   140   1 H        0.926     0.038     2.475     2.460
   141   1 H        0.926     0.042     2.420     2.433
   142   1 H        0.925     0.037     2.494     2.470
   143   1 H        0.925     0.039     2.456     2.451
   144   1 H        0.925     0.033     2.543     2.494
   145   1 H        0.925     0.036     2.497     2.471
   146   1 H        0.925     0.038     2.469     2.457
   147   1 H        0.925     0.036     2.501     2.473
   148   1 H        0.925     0.032     2.552     2.498
   149   1 H        0.925     0.036     2.500     2.473
   150   1 H        0.925     0.040     2.454     2.450
   151   1 H        0.926     0.035     2.514     2.480
   152   1 H        0.926     0.026     2.645     2.543
   153   1 H        0.926     0.058     2.225     2.333
   154   1 H        0.926     0.058     2.224     2.332

molecular dipole:
                 x           y           z       tot (Debye)
 q only:        0.004      -0.083      -0.603
   full:       -0.011      -0.052      -0.320       0.824

 projected vibrational frequencies (cm⁻¹)
eigval :       -0.00    -0.00     0.00     0.00     0.00     0.00
eigval :        3.11     4.38     5.83     9.59    15.93    19.37
eigval :       21.15    21.73    23.47    27.64    29.95    35.46
eigval :       36.74    38.33    40.79    46.29    47.14    48.67
eigval :       50.03    55.55    56.20    58.82    63.20    68.18
eigval :       72.47    74.46    79.60    83.47    88.48    94.54
eigval :       96.61    99.08   107.29   114.72   131.96   137.56
eigval :      145.01   150.03   152.17   156.69   167.42   168.79
eigval :      174.27   178.45   180.51   183.52   187.74   188.49
eigval :      192.47   196.99   202.16   208.12   209.47   211.95
eigval :      215.12   215.85   220.52   222.19   230.24   240.51
eigval :      248.41   258.68   259.67   262.74   268.94   269.46
eigval :      273.69   283.76   292.71   295.36   304.49   311.26
eigval :      316.43   317.36   318.42   325.59   327.03   335.81
eigval :      337.48   339.34   345.50   357.16   359.62   365.47
eigval :      366.68   366.99   367.32   368.96   369.34   375.49
eigval :      390.49   397.43   397.66   400.06   404.95   407.90
eigval :      410.78   411.39   416.47   433.50   435.92   437.90
eigval :      443.29   443.93   445.02   446.50   455.60   459.90
eigval :      462.58   465.50   466.43   467.07   469.10   474.92
eigval :      499.05   505.95   520.18   520.77   557.80   565.44
eigval :      576.44   576.81   577.41   578.47   586.12   586.91
eigval :      587.36   587.59   602.11   606.70   608.18   618.04
eigval :      621.46   625.25   627.65   630.94   634.87   636.18
eigval :      639.27   640.38   644.49   649.93   656.94   668.88
eigval :      673.73   680.28   687.10   687.92   700.16   703.95
eigval :      705.91   706.85   715.07   725.19   729.39   733.43
eigval :      734.80   759.88   764.77   785.45   786.19   795.28
eigval :      797.05   819.11   819.43   822.21   822.47   823.34
eigval :      830.44   830.51   831.15   845.36   847.17   870.21
eigval :      871.16   871.94   872.11   873.75   875.04   875.45
eigval :      876.92   877.95   878.47   889.50   890.04   911.86
eigval :      912.88   913.16   913.84   914.25   916.41   917.04
eigval :      918.79   919.78   920.56   922.06   926.39   926.54
eigval :      928.09   929.02   930.20   932.17   932.46   933.19
eigval :      934.70   939.90   940.42   958.23   958.68   959.18
eigval :      959.92   961.21   961.28   961.51   961.71   962.39
eigval :      962.40   962.50   963.38   976.37   982.18  1004.79
eigval :     1030.06  1031.02  1034.16  1034.21  1034.44  1035.36
eigval :     1035.95  1036.98  1038.12  1040.42  1044.59  1045.25
eigval :     1067.16  1068.30  1075.98  1076.69  1090.26  1090.68
eigval :     1107.39  1108.80  1109.84  1111.21  1119.61  1125.92
eigval :     1127.47  1129.31  1130.07  1149.28  1149.49  1165.86
eigval :     1169.99  1172.99  1173.70  1174.79  1175.64  1176.50
eigval :     1178.25  1179.02  1183.92  1195.21  1197.10  1206.27
eigval :     1207.40  1208.35  1212.38  1213.41  1224.91  1225.18
eigval :     1225.64  1226.03  1226.78  1229.21  1230.45  1230.65
eigval :     1234.38  1236.80  1239.20  1239.62  1244.33  1246.63
eigval :     1251.36  1257.50  1259.55  1268.20  1269.23  1283.50
eigval :     1284.10  1298.32  1301.54  1307.45  1308.43  1311.52
eigval :     1312.01  1327.70  1328.05  1331.19  1344.85  1345.35
eigval :     1354.91  1357.07  1358.56  1362.69  1364.75  1369.19
eigval :     1369.98  1374.28  1374.59  1391.66  1399.63  1400.12
eigval :     1401.55  1401.71  1401.88  1402.57  1402.58  1403.34
eigval :     1403.77  1411.80  1411.88  1426.54  1426.60  1426.93
eigval :     1427.09  1428.22  1429.67  1429.73  1430.46  1446.63
eigval :     1447.37  1463.13  1463.64  1468.23  1473.51  1474.91
eigval :     1480.61  1480.95  1483.03  1486.91  1487.13  1488.14
eigval :     1488.17  1488.51  1490.83  1491.67  1491.72  1492.84
eigval :     1498.00  1498.05  1498.78  1499.51  1501.32  1501.84
eigval :     1501.89  1502.47  1506.41  1508.84  1510.29  1511.18
eigval :     1511.49  1511.60  1517.12  1517.15  1517.53  1518.11
eigval :     1518.83  1523.60  1561.68  1562.53  1569.68  1570.70
eigval :     1571.96  1581.68  1581.86  1582.01  1584.13  1586.08
eigval :     1586.32  1590.93  1592.84  1592.94  1603.11  1603.27
eigval :     1616.07  1617.66  3018.75  3020.49  3020.74  3020.84
eigval :     3020.89  3021.26  3021.48  3022.03  3022.87  3023.66
eigval :     3024.62  3025.02  3026.42  3026.43  3026.59  3026.59
eigval :     3028.38  3028.41  3029.08  3029.35  3029.63  3032.67
eigval :     3032.79  3032.97  3035.42  3037.75  3037.87  3038.33
eigval :     3040.24  3044.35  3044.86  3045.01  3047.42  3048.16
eigval :     3048.64  3051.20  3051.62  3053.01  3076.79  3077.56
eigval :     3079.22  3079.36  3079.48  3085.51  3086.03  3087.26
eigval :     3087.36  3088.81  3089.37  3091.26  3092.06  3092.16
eigval :     3092.64  3094.68  3095.44  3096.21  3097.00  3097.66
eigval :     3100.67  3101.59  3101.82  3103.25  3103.43  3104.24
eigval :     3109.43  3110.93  3112.28  3117.88  3118.32  3121.61

   temp. (K)  partition function   enthalpy   heat capacity  entropy
                                   cal/mol     cal/K/mol   cal/K/mol   J/K/mol
 298.15  VIB  0.676E+39            46471.071    278.896    295.604
         ROT  0.523E+09              888.752      2.981     42.874
         INT  0.353E+48            47359.823    281.877    338.477
         TR   0.351E+29             1481.254      4.968     46.832
         TOT                       48841.0771   286.8454   385.3092  1612.1336

       T/K    H(0)-H(T)+PV         H(T)/Eh          T*S/Eh         G(T)/Eh
   ------------------------------------------------------------------------
    298.15    0.778332E-01    0.132144E+01    0.183073E+00    0.113837E+01
   ------------------------------------------------------------------------

         :::::::::::::::::::::::::::::::::::::::::::::::::::::
         ::                  THERMODYNAMIC                  ::
         :::::::::::::::::::::::::::::::::::::::::::::::::::::
         :: total free energy        -220.975551670082 Eh   ::
         ::.................................................::
         :: total energy             -222.113917852347 Eh   ::
         :: zero point energy           1.243605800711 Eh   ::
         :: G(RRHO) w/o ZPVE           -0.105239618446 Eh   ::
         :: G(RRHO) contrib.            1.138366182265 Eh   ::
         :::::::::::::::::::::::::::::::::::::::::::::::::::::

           -------------------------------------------------
          | TOTAL ENERGY             -222.113917852347 Eh   |
          | TOTAL ENTHALPY           -220.792478840966 Eh   |
          | TOTAL FREE ENERGY        -220.975551670082 Eh   |
          | GRADIENT NORM               0.000093306640 Eh/α |
          | HOMO-LUMO GAP               1.404455376406 eV   |
           -------------------------------------------------

 * finished run on 2025/07/19 at 07:02:17.509
