   * xtb version 6.7.1 (edcfbbe) compiled by 'albert@albert-system' on 2024-07-22

   ID    Z sym.   atoms
    1    6 C      1-20, 22-28, 30-36, 38-43, 45-51, 53-59, 61-80, 82, 83
    2    7 N      21, 29, 37, 44, 52, 60, 81, 84
    3    1 H      85-154

          program call               : xtb data2507/toluene/BTrztCz/BTrztCz_toluene_S0_crest.xyz --gfn 2 --gbsa toluene --ohess vtight --parallel 40 --molden --ceasefiles --namespace data2507/toluene/BTrztCz/BTrztCz_toluene_S0_finalOpt
      * Solvation model:               GBSA
        Solvent                        toluene
        Solvent mass                       9.2140E+01 g/mol
          :  Hamiltonian                  GFN2-xTB          :
 * total energy  :  -222.1152427 Eh     change       -0.7779164E-08 Eh
 * total energy  :  -222.1153868 Eh     change       -0.1441479E-03 Eh
 * total energy  :  -222.1155117 Eh     change       -0.1248483E-03 Eh
 * total energy  :  -222.1155796 Eh     change       -0.6795376E-04 Eh
 * total energy  :  -222.1156847 Eh     change       -0.1050506E-03 Eh
 * total energy  :  -222.1157940 Eh     change       -0.1093452E-03 Eh
 * total energy  :  -222.1158895 Eh     change       -0.9551759E-04 Eh
 * total energy  :  -222.1159743 Eh     change       -0.8478355E-04 Eh
 * total energy  :  -222.1160482 Eh     change       -0.7384138E-04 Eh
 * total energy  :  -222.1161093 Eh     change       -0.6113231E-04 Eh
 * total energy  :  -222.1170321 Eh     change       -0.2738794E-06 Eh
 * total energy  :  -222.1170325 Eh     change       -0.3935951E-06 Eh
 * total energy  :  -222.1170330 Eh     change       -0.5568304E-06 Eh
 * total energy  :  -222.1170338 Eh     change       -0.7604815E-06 Eh
 * total energy  :  -222.1170347 Eh     change       -0.9311388E-06 Eh
 * total energy  :  -222.1170358 Eh     change       -0.1095961E-05 Eh
 * total energy  :  -222.1170372 Eh     change       -0.1378494E-05 Eh
 * total energy  :  -222.1170389 Eh     change       -0.1711090E-05 Eh
 * total energy  :  -222.1170389 Eh     change       -0.1452858E-07 Eh
   *** GEOMETRY OPTIMIZATION CONVERGED AFTER 152 ITERATIONS ***

 final structure:
================
154
 xtb: 6.7.1 (edcfbbe)
C           -2.06577009417363       -4.94100889635274        1.04627111554843
C           -0.94566066433787       -5.98470262256232        0.92393646410422
C           -1.21003972335593       -6.89246962121860       -0.28639630891678
C           -0.97026137491781       -6.85684655771602        2.18293184265174
C            0.38030687111646       -5.26032357233866        0.72881587456832
C            1.42369994898338       -5.34362014621525        1.65539893578704
C            2.62934103872986       -4.68649950016430        1.48466097225951
C            2.80441552851620       -3.92436337353652        0.34253533134175
C            1.75958198560853       -3.80428376309972       -0.59899957755127
C            0.56020549697694       -4.47024847254498       -0.39965078671750
C            2.23102602555205       -2.90659838471431       -1.61947941179261
C            1.64975625820239       -2.38797388857835       -2.76868348580843
C            2.36295359981934       -1.50670806535864       -3.56476202965325
C            1.77031858123803       -0.85609338726764       -4.80718543276241
C            0.33231869685924       -1.30906676081484       -5.07932721332892
C            1.75908708744720        0.66710472348819       -4.60669555581784
C            2.62158758941067       -1.21595626646283       -6.03379569055096
C            3.68146242704931       -1.19734737448654       -3.20238373606025
C            4.28552970285772       -1.70325880500966       -2.06952636384953
C            3.53933785141703       -2.53475413006195       -1.24876306783276
N            3.88142772751847       -3.15593023284500       -0.06439212343688
C            5.03774482541940       -2.92490441343480        0.68776949041781
C            5.79531560137926       -4.01285495303920        1.11496500777275
C            6.96071673183997       -3.82333608170094        1.83352009123205
C            7.40038603051598       -2.53936019995392        2.11943962440219
C            6.66028176363353       -1.45298862098239        1.69585870288388
C            5.46656602961901       -1.62551052648792        0.99819246292078
C            4.70265274783012       -0.43368737653775        0.61058475535743
N            5.40392023277630        0.66221726017157        0.34005974206320
C            4.70266130095232        1.71225515208348       -0.07981034497630
C            5.43175264765467        2.94068994888078       -0.39040131577478
C            6.78379906044889        3.05481266589989       -0.06796397257997
C            7.47092939770737        4.21627701842038       -0.36402801312988
C            6.82017832384338        5.26877408566363       -0.99039491586626
C            5.47811114710173        5.15745190141533       -1.32085549108114
C            4.78356825516986        4.00131615950177       -1.02135967770221
N            3.38358566022201        1.69879526317594       -0.25993637550304
C            2.76284609624099        0.57483839216822        0.08397832084791
C            1.31494425918089        0.50020923103154       -0.11409246374552
C            0.63374529728587       -0.68347662500499        0.16600903040773
C           -0.71692450349172       -0.78068840395656       -0.08842695950590
C           -1.41336488552924        0.31364387311337       -0.59565188873965
C           -2.86044297614569        0.23182534286323       -0.79822178520885
N           -3.42144610773049       -0.96466460924582       -0.93038929740245
C           -4.74516235038951       -0.96685162967004       -1.07924195328763
C           -5.40641900232102       -2.23506554048044       -1.37778860793331
C           -6.79660825578487       -2.33200455054913       -1.32492609698639
C           -7.41796121666862       -3.53063104242818       -1.61906298510554
C           -6.66154098639341       -4.63884703627323       -1.97000109991986
C           -5.27891319094906       -4.54777283813358       -2.02674390329576
C           -4.65161274755369       -3.35305322989461       -1.73081387371968
N           -5.50617576971471        0.11858320749646       -0.94938528129821
C           -4.85383386005210        1.26037753024609       -0.77454222513720
C           -5.64084597137831        2.47780607659409       -0.54872222808030
C           -6.84989245032483        2.65753243140824       -1.21249713329216
C           -7.57006048373696        3.82750529561722       -1.05710153090404
C           -7.09036734716578        4.82780803479060       -0.22532438586906
C           -5.90745666196405        4.64817948420515        0.46978848779268
C           -5.17608365122839        3.47497689126582        0.32190535500769
N           -4.00237208290373        3.28432977790094        1.06494738887890
C           -3.70621866001118        2.16281200931855        1.81425160042723
C           -4.52994605214051        1.13378145459714        2.23705873124624
C           -3.97920147900704        0.13039051694025        3.01416185739086
C           -2.63385579522973        0.12495813325058        3.39582016012564
C           -2.03879028371283       -0.96907017767149        4.27401917741776
C           -0.83553791712194       -1.60179132361149        3.55973459570305
C           -1.58197131936887       -0.34135734490638        5.59989360878155
C           -3.03775659255489       -2.08581551522457        4.59324106058338
C           -1.82498372113233        1.17550108255271        2.98083023659567
C           -2.34843082413920        2.19165389644552        2.19746515544930
C           -1.79210818424519        3.38724711948858        1.62464579009106
C           -0.51424178644425        3.93110537578455        1.62123636911343
C           -0.27041907174346        5.11355729948142        0.94116774885861
C            1.10236351823058        5.77118446451299        0.90416731794034
C            1.52121532202590        6.01345428625095       -0.55308401081922
C            1.02628486890473        7.11217073647730        1.64954039675904
C            2.18440329332365        4.91235462355618        1.56722662339495
C           -1.33571720623103        5.73137652330406        0.27176518666153
C           -2.61349914406343        5.20859484056386        0.25028394644311
C           -2.84286593517455        4.02755990602193        0.93660649392585
N           -3.53168015750285        1.37661620525413       -0.79971654975271
C           -0.73902739937734        1.50624282428085       -0.85304739805387
C            0.61709938495135        1.59368639600658       -0.62610045311071
N            3.37806035037909       -0.50305739336415        0.55982862378204
H           -2.12831885787160       -4.31900219014320        0.15762657740437
H           -1.88161598453182       -4.29415074188546        1.90149099565680
H           -3.02652510461733       -5.43195753600190        1.18667521823644
H           -0.41293487159418       -7.62658090628453       -0.38589406091986
H           -1.26182185683192       -6.32029308686559       -1.20819782671154
H           -2.15288397366458       -7.42007445245360       -0.15847332074577
H           -1.93221971861042       -7.36080687700708        2.25267445212261
H           -0.19345695701328       -7.61711670389803        2.14726254087350
H           -0.84295072302752       -6.25512052150891        3.07978560640651
H            1.30379158562483       -5.93543529755566        2.54733647979431
H            3.40323520820607       -4.76209957065226        2.23372058196259
H           -0.22451813277512       -4.35558981391340       -1.13110181637674
H            0.64167603436110       -2.67766303809196       -3.01339256358347
H           -0.32394256940340       -1.04901290806630       -4.25107954770317
H            0.28711599671017       -2.38227756032296       -5.24881443081539
H           -0.04022267195872       -0.81070516957682       -5.97201858593052
H            2.76289127521175        1.05549036216314       -4.45495933117763
H            1.33048936298297        1.15738507903372       -5.47824012566095
H            1.16111448727291        0.92492020953748       -3.73384330732151
H            3.63946607611582       -0.85032113532969       -5.93233973844679
H            2.18956076605305       -0.77571250217245       -6.92983814957517
H            2.65769020404534       -2.29594101226211       -6.16074611101061
H            4.26069717270802       -0.53084718242274       -3.82420508711175
H            5.30650648064513       -1.43919340552684       -1.82689003932246
H            5.46663081464544       -5.00885974940289        0.85849921646399
H            7.53489818053612       -4.67810747953086        2.15722770283196
H            8.31637435823107       -2.38744674805653        2.66901824632544
H            6.98230955295723       -0.44592881394410        1.91352964550111
H            7.27562520283409        2.22383313575851        0.41353137037070
H            8.51663865246294        4.30202139804665       -0.10864563978981
H            7.36017828689890        6.17455385145548       -1.22291684056313
H            4.97378005750605        5.97387417488695       -1.81587695658370
H            3.74011717512836        3.89644002081696       -1.27130003966599
H            1.18017820231555       -1.51584255740602        0.57828422915579
H           -1.25275945651974       -1.69544947382541        0.11081572308120
H           -7.36818136611607       -1.45954579310893       -1.04790224260208
H           -8.49444797318743       -3.60238719948875       -1.57511170190232
H           -7.15008452332319       -5.57368425338118       -2.20115850595998
H           -4.69152017317406       -5.41044439265885       -2.30300454925670
H           -3.57764896561613       -3.25815123167170       -1.77331915405594
H           -7.20001017917547        1.87280178822144       -1.86629231412292
H           -8.50124104138398        3.96086080921854       -1.58566972407924
H           -7.64705363317415        5.74465834267711       -0.10474719629175
H           -5.54502561022580        5.40947978877900        1.14437465370923
H           -5.57707198771577        1.10443740658189        1.96637571347633
H           -4.63206821904466       -0.66758841769564        3.32821262503679
H           -1.14596808039767       -2.03032492482589        2.60970239710978
H           -0.40685334602501       -2.39130874970582        4.17348538136774
H           -0.05790378532383       -0.87067437882415        3.35663361707790
H           -0.81890878820232        0.41424765746664        5.43354266264141
H           -1.17015484106057       -1.10651767838772        6.25434062753826
H           -2.42411921338666        0.12969240613461        6.10287069712499
H           -3.40423161757085       -2.55387292863964        3.68204577435051
H           -3.88186956313299       -1.70602364129233        5.16400542112135
H           -2.54524908363304       -2.84968733786491        5.19146335285445
H           -0.78365246523831        1.21776467393586        3.26195834640935
H            0.26906847413775        3.40874089330411        2.14523450262965
H            1.50099954305525        5.07872703974373       -1.10955622442254
H            2.53142289545619        6.41451362056170       -0.58388043223852
H            0.86040977732216        6.71845989717648       -1.04871938291958
H            0.29983217623498        7.77587236136119        1.18856605414102
H            1.99732730557284        7.60255719874767        1.63911112254956
H            0.73089457771891        6.94990221994470        2.68423708148470
H            1.97167491588684        4.75692632973196        2.62262339295202
H            2.27523522845891        3.94455478800710        1.07718038737526
H            3.14590259503021        5.41673808609500        1.49143315820865
H           -1.16265794584918        6.65523569873694       -0.25786422817169
H           -3.40315157032317        5.70366472260354       -0.29487198002821
H           -1.29297872926644        2.35044945953686       -1.23330175383451
H            1.15448421460411        2.50542427501622       -0.83344410616549

          :  Hamiltonian                  GFN2-xTB          :
         :: gradient norm              0.000078970565 Eh/a0 ::
         :: HOMO-LUMO gap              1.441141854581 eV    ::
         :: SCC energy              -225.999493596056 Eh    ::
         :: -> dispersion             -0.236886128517 Eh    ::
         :: -> Gsolv                  -0.088242527756 Eh    ::
         :: repulsion energy           3.882454665914 Eh    ::

    * Orbital Energies and Occupations

         #    Occupation            Energy/Eh            Energy/eV
      -------------------------------------------------------------
         1        2.0000           -0.6970408             -18.9674
       ...           ...                  ...                  ...
       195        2.0000           -0.4133766             -11.2486
       196        2.0000           -0.4116674             -11.2020
       197        2.0000           -0.4102074             -11.1623
       198        2.0000           -0.4002251             -10.8907
       199        2.0000           -0.3999132             -10.8822
       200        2.0000           -0.3877411             -10.5510
       201        2.0000           -0.3868924             -10.5279
       202        2.0000           -0.3864796             -10.5166
       203        2.0000           -0.3857674             -10.4973
       204        2.0000           -0.3784891             -10.2992
       205        2.0000           -0.3781750             -10.2907
       206        2.0000           -0.3626983              -9.8695
       207        2.0000           -0.3622426              -9.8571 (HOMO)
       208                         -0.3092816              -8.4160 (LUMO)
       209                         -0.2967251              -8.0743
       210                         -0.2960545              -8.0561
       211                         -0.2823614              -7.6834
       212                         -0.2571509              -6.9974
       213                         -0.2491773              -6.7805
       214                         -0.2487630              -6.7692
       215                         -0.2440678              -6.6414
       216                         -0.2422587              -6.5922
       217                         -0.2416580              -6.5759
       218                         -0.2388865              -6.5004
       ...                                ...                  ...
       406                          0.7401980              20.1418
      -------------------------------------------------------------
                  HL-Gap            0.0529610 Eh            1.4411 eV

     #   Z          covCN         q      C6AA      α(0)
     1   6 C        3.762    -0.102    22.501     6.762
     2   6 C        3.902     0.025    20.095     6.372
     3   6 C        3.761    -0.107    22.598     6.776
     4   6 C        3.761    -0.110    22.648     6.784
     5   6 C        2.972    -0.001    28.053     8.688
     6   6 C        2.929    -0.044    29.101     8.847
     7   6 C        2.909    -0.056    29.396     8.890
     8   6 C        3.078     0.047    26.868     8.498
     9   6 C        3.066    -0.020    28.446     8.746
    10   6 C        2.920    -0.041    29.022     8.834
    11   6 C        3.066    -0.022    28.485     8.752
    12   6 C        2.918    -0.049    29.205     8.862
    13   6 C        2.972    -0.006    28.172     8.706
    14   6 C        3.902     0.024    20.119     6.376
    15   6 C        3.761    -0.107    22.599     6.777
    16   6 C        3.761    -0.103    22.512     6.764
    17   6 C        3.761    -0.108    22.604     6.778
    18   6 C        2.931    -0.045    29.111     8.848
    19   6 C        2.908    -0.055    29.366     8.886
    20   6 C        3.080     0.056    26.652     8.464
    21   7 N        2.801    -0.051    22.220     7.001
    22   6 C        2.913     0.071    26.414     8.428
    23   6 C        2.923    -0.045    29.111     8.848
    24   6 C        2.919    -0.024    28.604     8.770
    25   6 C        2.917    -0.033    28.812     8.802
    26   6 C        2.926    -0.029    28.717     8.788
    27   6 C        2.983    -0.018    28.457     8.750
    28   6 C        2.988     0.239    23.012     7.869
    29   7 N        1.846    -0.329    29.373     8.032
    30   6 C        2.984     0.222    23.327     7.923
    31   6 C        2.983    -0.010    28.261     8.720
    32   6 C        2.923    -0.026    28.656     8.779
    33   6 C        2.918    -0.027    28.688     8.783
    34   6 C        2.920    -0.022    28.562     8.764
    35   6 C        2.918    -0.027    28.675     8.781
    36   6 C        2.924    -0.025    28.630     8.775
    37   7 N        1.844    -0.324    29.262     8.017
    38   6 C        2.989     0.228    23.219     7.904
    39   6 C        2.985    -0.000    28.032     8.685
    40   6 C        2.923    -0.023    28.579     8.767
    41   6 C        2.923    -0.022    28.556     8.763
    42   6 C        2.986     0.002    27.974     8.676
    43   6 C        2.997     0.230    23.173     7.897
    44   7 N        1.843    -0.324    29.265     8.017
    45   6 C        2.990     0.223    23.320     7.921
    46   6 C        2.983    -0.010    28.261     8.720
    47   6 C        2.923    -0.026    28.650     8.778
    48   6 C        2.918    -0.027    28.674     8.781
    49   6 C        2.920    -0.022    28.547     8.762
    50   6 C        2.918    -0.026    28.661     8.779
    51   6 C        2.924    -0.024    28.614     8.772
    52   7 N        1.844    -0.326    29.317     8.025
    53   6 C        2.996     0.240    22.985     7.864
    54   6 C        2.985    -0.017    28.424     8.745
    55   6 C        2.923    -0.029    28.714     8.788
    56   6 C        2.917    -0.032    28.788     8.798
    57   6 C        2.919    -0.024    28.605     8.771
    58   6 C        2.921    -0.044    29.086     8.844
    59   6 C        2.915     0.072    26.390     8.424
    60   7 N        2.800    -0.057    22.331     7.018
    61   6 C        3.083     0.056    26.654     8.464
    62   6 C        2.909    -0.059    29.476     8.902
    63   6 C        2.928    -0.049    29.228     8.866
    64   6 C        2.971    -0.006    28.169     8.706
    65   6 C        3.902     0.024    20.113     6.375
    66   6 C        3.761    -0.102    22.499     6.762
    67   6 C        3.762    -0.107    22.587     6.775
    68   6 C        3.761    -0.108    22.607     6.778
    69   6 C        2.920    -0.045    29.117     8.849
    70   6 C        3.065    -0.024    28.531     8.759
    71   6 C        3.067    -0.022    28.475     8.750
    72   6 C        2.918    -0.044    29.097     8.846
    73   6 C        2.972    -0.002    28.075     8.691
    74   6 C        3.902     0.025    20.099     6.373
    75   6 C        3.761    -0.106    22.579     6.774
    76   6 C        3.761    -0.108    22.613     6.779
    77   6 C        3.761    -0.104    22.530     6.767
    78   6 C        2.931    -0.041    29.018     8.834
    79   6 C        2.908    -0.056    29.392     8.890
    80   6 C        3.083     0.051    26.774     8.483
    81   7 N        1.847    -0.316    29.052     7.988
    82   6 C        2.922    -0.023    28.580     8.767
    83   6 C        2.923    -0.023    28.586     8.768
    84   7 N        1.843    -0.316    29.034     7.986
    85   1 H        0.925     0.031     2.579     2.511
    86   1 H        0.925     0.031     2.572     2.508
    87   1 H        0.925     0.038     2.470     2.458
    88   1 H        0.925     0.035     2.512     2.479
    89   1 H        0.925     0.036     2.499     2.472
    90   1 H        0.925     0.041     2.440     2.443
    91   1 H        0.925     0.040     2.449     2.447
    92   1 H        0.925     0.039     2.468     2.457
    93   1 H        0.925     0.037     2.485     2.465
    94   1 H        0.926     0.045     2.379     2.412
    95   1 H        0.926     0.029     2.594     2.519
    96   1 H        0.926     0.032     2.564     2.504
    97   1 H        0.926     0.039     2.468     2.457
    98   1 H        0.925     0.028     2.622     2.532
    99   1 H        0.925     0.041     2.436     2.441
   100   1 H        0.925     0.041     2.432     2.439
   101   1 H        0.925     0.033     2.546     2.495
   102   1 H        0.925     0.044     2.398     2.422
   103   1 H        0.925     0.023     2.689     2.564
   104   1 H        0.925     0.037     2.492     2.469
   105   1 H        0.925     0.043     2.404     2.425
   106   1 H        0.925     0.037     2.484     2.465
   107   1 H        0.926     0.025     2.664     2.552
   108   1 H        0.925     0.005     2.981     2.700
   109   1 H        0.926     0.055     2.254     2.348
   110   1 H        0.926     0.058     2.223     2.332
   111   1 H        0.926     0.054     2.265     2.354
   112   1 H        0.926     0.049     2.334     2.389
   113   1 H        0.926     0.049     2.336     2.390
   114   1 H        0.926     0.049     2.337     2.391
   115   1 H        0.926     0.052     2.297     2.370
   116   1 H        0.926     0.050     2.320     2.382
   117   1 H        0.926     0.054     2.270     2.356
   118   1 H        0.926     0.062     2.171     2.304
   119   1 H        0.926     0.057     2.240     2.340
   120   1 H        0.926     0.050     2.319     2.381
   121   1 H        0.926     0.050     2.320     2.382
   122   1 H        0.926     0.053     2.277     2.360
   123   1 H        0.926     0.052     2.291     2.367
   124   1 H        0.926     0.047     2.352     2.398
   125   1 H        0.926     0.049     2.337     2.390
   126   1 H        0.926     0.056     2.245     2.343
   127   1 H        0.926     0.059     2.208     2.324
   128   1 H        0.926     0.056     2.251     2.346
   129   1 H        0.925     0.008     2.921     2.673
   130   1 H        0.926     0.036     2.509     2.477
   131   1 H        0.925     0.029     2.598     2.521
   132   1 H        0.925     0.043     2.413     2.429
   133   1 H        0.925     0.028     2.614     2.528
   134   1 H        0.925     0.035     2.518     2.481
   135   1 H        0.925     0.044     2.402     2.424
   136   1 H        0.925     0.036     2.507     2.476
   137   1 H        0.925     0.033     2.538     2.491
   138   1 H        0.925     0.038     2.475     2.460
   139   1 H        0.925     0.043     2.407     2.426
   140   1 H        0.926     0.025     2.661     2.551
   141   1 H        0.926     0.028     2.614     2.528
   142   1 H        0.925     0.028     2.610     2.526
   143   1 H        0.925     0.043     2.411     2.428
   144   1 H        0.925     0.042     2.427     2.436
   145   1 H        0.925     0.041     2.436     2.441
   146   1 H        0.925     0.042     2.417     2.431
   147   1 H        0.925     0.034     2.533     2.489
   148   1 H        0.925     0.032     2.561     2.503
   149   1 H        0.925     0.028     2.609     2.526
   150   1 H        0.925     0.036     2.496     2.471
   151   1 H        0.926     0.040     2.445     2.445
   152   1 H        0.926     0.031     2.579     2.511
   153   1 H        0.926     0.055     2.259     2.350
   154   1 H        0.926     0.059     2.215     2.327

molecular dipole:
                 x           y           z       tot (Debye)
 q only:       -0.165      -0.099      -0.067
   full:       -0.104      -0.005      -0.082       0.336

 projected vibrational frequencies (cm⁻¹)
eigval :       -0.00    -0.00    -0.00     0.00     0.00     0.00
eigval :      -21.17     7.36    11.25    13.03    13.41    18.58
eigval :       21.98    24.77    29.73    31.72    34.97    39.07
eigval :       40.24    43.78    47.47    49.31    49.44    51.65
eigval :       53.85    56.47    61.83    66.65    68.94    72.48
eigval :       74.23    79.70    83.00    84.51    92.59    96.05
eigval :       98.45   106.25   113.50   114.85   132.81   136.01
eigval :      144.73   152.74   161.41   162.51   173.30   175.18
eigval :      179.19   180.62   182.02   185.87   190.62   196.67
eigval :      197.88   198.21   199.90   205.05   210.38   214.38
eigval :      221.64   222.83   227.70   230.88   239.11   242.15
eigval :      247.72   256.03   265.34   267.14   268.45   276.70
eigval :      282.32   289.22   292.34   303.15   305.47   311.97
eigval :      317.23   319.81   321.16   322.61   326.76   330.20
eigval :      337.96   339.72   349.32   356.37   357.95   361.31
eigval :      366.90   367.92   369.06   372.29   372.94   380.68
eigval :      390.17   396.64   398.00   399.11   403.69   408.86
eigval :      411.57   412.44   424.15   430.38   433.91   437.24
eigval :      441.42   444.35   444.60   448.63   457.42   461.65
eigval :      462.96   463.50   466.37   467.85   469.64   476.13
eigval :      499.40   504.69   520.38   520.47   559.80   563.85
eigval :      575.77   577.03   577.39   578.04   585.38   586.36
eigval :      588.42   588.79   600.02   610.75   611.40   616.97
eigval :      620.83   626.51   627.63   629.08   633.86   634.95
eigval :      639.37   640.43   646.65   647.99   656.64   668.24
eigval :      672.76   679.07   687.40   689.28   699.41   703.23
eigval :      706.11   706.72   714.14   725.53   730.48   733.95
eigval :      734.89   759.20   764.07   784.23   785.21   793.72
eigval :      795.76   815.66   817.50   819.47   821.25   822.55
eigval :      831.14   831.52   833.34   845.10   845.46   869.01
eigval :      869.53   872.23   872.39   874.16   875.76   878.18
eigval :      878.33   879.41   879.80   886.15   888.66   905.17
eigval :      906.00   909.36   911.60   913.92   914.67   916.34
eigval :      916.49   917.56   918.89   920.92   925.64   926.44
eigval :      928.48   928.86   931.09   932.32   933.87   934.15
eigval :      935.77   939.44   940.15   958.32   959.42   959.44
eigval :      959.66   961.02   961.94   962.07   962.38   962.66
eigval :      963.09   963.24   963.77   976.49   982.12  1005.40
eigval :     1031.33  1031.51  1034.26  1034.79  1035.28  1035.72
eigval :     1035.87  1036.15  1039.18  1039.46  1043.96  1044.55
eigval :     1067.70  1068.89  1075.50  1076.40  1085.41  1089.23
eigval :     1106.27  1108.69  1109.57  1110.08  1116.30  1126.00
eigval :     1126.90  1129.19  1129.55  1148.48  1149.40  1161.31
eigval :     1168.74  1172.44  1173.42  1175.38  1176.74  1177.23
eigval :     1177.87  1178.76  1185.26  1195.51  1197.37  1207.33
eigval :     1208.47  1209.47  1211.83  1213.20  1225.38  1225.82
eigval :     1226.05  1226.19  1227.26  1227.53  1230.45  1231.10
eigval :     1235.36  1236.27  1237.54  1238.61  1247.68  1248.42
eigval :     1248.72  1258.58  1259.50  1267.82  1268.25  1283.08
eigval :     1283.58  1297.79  1298.93  1307.23  1308.15  1310.63
eigval :     1311.04  1326.81  1327.51  1338.06  1345.06  1346.07
eigval :     1352.66  1356.86  1359.30  1363.54  1365.69  1369.15
eigval :     1370.64  1371.04  1372.28  1392.15  1399.47  1399.92
eigval :     1400.40  1400.77  1401.56  1402.88  1403.55  1403.85
eigval :     1404.27  1412.10  1412.86  1425.16  1426.67  1427.14
eigval :     1427.27  1428.65  1429.79  1430.15  1432.63  1445.72
eigval :     1447.24  1464.05  1464.33  1465.33  1473.29  1473.58
eigval :     1474.67  1482.11  1482.70  1485.67  1487.17  1487.87
eigval :     1487.98  1489.68  1491.17  1492.23  1493.33  1493.79
eigval :     1498.41  1499.83  1500.29  1501.06  1501.31  1501.66
eigval :     1502.40  1505.00  1510.16  1510.31  1510.91  1511.78
eigval :     1512.42  1513.61  1515.26  1518.53  1518.79  1519.38
eigval :     1520.43  1521.58  1562.55  1563.33  1570.60  1570.70
eigval :     1573.07  1581.54  1582.29  1583.46  1584.73  1586.63
eigval :     1586.87  1592.22  1592.61  1594.12  1604.01  1604.43
eigval :     1617.92  1619.15  3013.24  3017.16  3019.52  3020.32
eigval :     3020.99  3021.34  3021.76  3022.11  3023.42  3024.61
eigval :     3025.45  3025.94  3027.22  3027.28  3027.42  3028.23
eigval :     3029.06  3029.51  3029.66  3030.63  3030.92  3032.77
eigval :     3033.63  3035.46  3035.61  3037.05  3037.18  3038.08
eigval :     3040.69  3044.13  3045.25  3045.64  3047.74  3048.51
eigval :     3049.38  3051.16  3052.39  3056.76  3079.11  3080.05
eigval :     3080.08  3081.76  3082.57  3083.80  3084.34  3085.60
eigval :     3086.33  3086.48  3089.37  3090.69  3091.11  3093.63
eigval :     3093.75  3095.48  3096.66  3096.85  3099.91  3101.63
eigval :     3102.16  3103.54  3104.00  3104.14  3105.18  3109.83
eigval :     3111.02  3113.81  3114.12  3117.62  3121.07  3121.33

   temp. (K)  partition function   enthalpy   heat capacity  entropy
                                   cal/mol     cal/K/mol   cal/K/mol   J/K/mol
 298.15  VIB  0.296E+36            45603.439    278.969    285.536
         ROT  0.272E+09              888.752      2.981     41.579
         INT  0.805E+44            46492.191    281.950    327.115
         TR   0.351E+29             1481.254      4.968     46.832
         TOT                       47973.4451   286.9177   373.9465  1564.5922

       T/K    H(0)-H(T)+PV         H(T)/Eh          T*S/Eh         G(T)/Eh
   ------------------------------------------------------------------------
    298.15    0.764506E-01    0.132071E+01    0.177674E+00    0.114304E+01
   ------------------------------------------------------------------------

         :::::::::::::::::::::::::::::::::::::::::::::::::::::
         ::                  THERMODYNAMIC                  ::
         :::::::::::::::::::::::::::::::::::::::::::::::::::::
         :: total free energy        -220.974002541604 Eh   ::
         ::.................................................::
         :: total energy             -222.117038933345 Eh   ::
         :: zero point energy           1.244259892638 Eh   ::
         :: G(RRHO) w/o ZPVE           -0.101223500897 Eh   ::
         :: G(RRHO) contrib.            1.143036391741 Eh   ::
         :::::::::::::::::::::::::::::::::::::::::::::::::::::

           -------------------------------------------------
          | TOTAL ENERGY             -222.117038933345 Eh   |
          | TOTAL ENTHALPY           -220.796328489591 Eh   |
          | TOTAL FREE ENERGY        -220.974002541604 Eh   |
          | GRADIENT NORM               0.000078976385 Eh/α |
          | HOMO-LUMO GAP               1.441141283475 eV   |
           -------------------------------------------------

 * finished run on 2025/07/19 at 07:28:20.797
