   * xtb version 6.7.1 (edcfbbe) compiled by 'albert@albert-system' on 2024-07-22

   ID    Z sym.   atoms
    1    6 C      1-9, 11-15, 17-23, 25-28, 30-54
    2    7 N      10, 29
    3    8 O      16, 24
    4    1 H      55-94

          program call               : xtb data2507/toluene/o-Ac2BBP/o-Ac2BBP_toluene_T1_crest.xyz --gfn 2 --uhf 2 --gbsa toluene --ohess vtight --parallel 40 --molden --ceasefiles --namespace data2507/toluene/o-Ac2BBP/o-Ac2BBP_toluene_T1_finalOpt
      * Solvation model:               GBSA
        Solvent                        toluene
        Solvent mass                       9.2140E+01 g/mol
          :  Hamiltonian                  GFN2-xTB          :
 * total energy  :  -141.4834842 Eh     change       -0.9006556E-08 Eh
 * total energy  :  -141.4838150 Eh     change       -0.3307889E-03 Eh
 * total energy  :  -141.4839583 Eh     change       -0.1432812E-03 Eh
 * total energy  :  -141.4839955 Eh     change       -0.3723284E-04 Eh
 * total energy  :  -141.4840471 Eh     change       -0.5164295E-04 Eh
 * total energy  :  -141.4840691 Eh     change       -0.2190626E-04 Eh
 * total energy  :  -141.4840862 Eh     change       -0.1715959E-04 Eh
 * total energy  :  -141.4841029 Eh     change       -0.1669908E-04 Eh
 * total energy  :  -141.4841131 Eh     change       -0.1021808E-04 Eh
 * total energy  :  -141.4841274 Eh     change       -0.1426851E-04 Eh
 * total energy  :  -141.4843179 Eh     change       -0.5351349E-06 Eh
 * total energy  :  -141.4843183 Eh     change       -0.4656588E-06 Eh
 * total energy  :  -141.4843188 Eh     change       -0.4255908E-06 Eh
 * total energy  :  -141.4843192 Eh     change       -0.4529488E-06 Eh
 * total energy  :  -141.4843198 Eh     change       -0.5869487E-06 Eh
 * total energy  :  -141.4843206 Eh     change       -0.7961121E-06 Eh
 * total energy  :  -141.4843206 Eh     change        0.1253406E-07 Eh
 * total energy  :  -141.4843206 Eh     change        0.2133561E-08 Eh
 * total energy  :  -141.4843206 Eh     change       -0.7372904E-08 Eh
   *** GEOMETRY OPTIMIZATION CONVERGED AFTER 70 ITERATIONS ***

 final structure:
================
94
 xtb: 6.7.1 (edcfbbe)
C           -7.52726902402603       -2.41990953183078        0.77277902725017
C           -6.05971782758070       -2.69282172955907        0.38616543859903
C           -5.79626244650426       -4.21144792928963        0.34415675087409
C           -5.80785085645921       -2.11827452725661       -0.99063504929944
C           -6.56264656190237       -2.55569183837896       -2.07078153898619
C           -6.37651430877704       -2.05197379668003       -3.34529123533035
C           -5.41428664068533       -1.07587906378581       -3.56340545634955
C           -4.64716399636443       -0.62507770187459       -2.51381038049789
C           -4.82360789711748       -1.14240598092682       -1.22095073650027
N           -4.03535019059430       -0.67548205197972       -0.19250332273443
C           -3.00640376042483        0.26794084295456       -0.47911311929568
C           -1.79064506475084       -0.16413645922723       -0.99995677287689
C           -0.78269415031380        0.74474680455223       -1.22777329083688
C           -0.94852776605549        2.10343322886171       -0.91243614904456
C            0.15711814951993        3.03639981299260       -1.16198931589666
O            1.03339864064176        2.79562511900024       -2.01444657970005
C            0.14197545195478        4.27290138648935       -0.36436035651269
C            0.35772638583320        5.52878985848435       -0.92711576516567
C            0.19102308192140        6.66676484427217       -0.16433492735821
C           -0.19573321860124        6.56626348206348        1.17110746392677
C           -0.36140724959021        5.32710284164768        1.75567926651993
C           -0.14514420507948        4.16942962722586        1.01187020915022
C           -0.16012818471566        2.82702427398342        1.61481893368302
O           -1.03947263138485        2.45876617223726        2.41697220404095
C            0.94857481694376        1.94480329639721        1.23062666158361
C            0.78602053026078        0.55355389698529        1.33586773867730
C            1.79591137086212       -0.30765857978351        0.97264829137994
C            3.01107000503734        0.20117577522873        0.52414727889078
N            4.04076485935222       -0.68535412125221        0.09596570263485
C            4.79984095437268       -1.33917482186774        1.04160224371819
C            4.59945700392155       -1.05708582403147        2.40198229492371
C            5.33426923844536       -1.70112409868879        3.37081502281081
C            6.28841001822702       -2.63953043748773        3.00328396526115
C            6.50133959517582       -2.90876950417620        1.66354429859917
C            5.77891401130456       -2.27293862320485        0.66267363605775
C            6.06153754737011       -2.59283669943104       -0.78870431549220
C            5.78742131170691       -4.09109321765537       -1.02826682238728
C            7.54026530159787       -2.27047513043467       -1.08414259419012
C            5.19192086101389       -1.78470438213573       -1.72757389869054
C            5.32908944315332       -1.94364576927352       -3.10002365440545
C            4.55390709834752       -1.23505068066527       -3.99992782908122
C            3.60606704012985       -0.33729825464802       -3.52912830584732
C            3.44300855732000       -0.15971901981973       -2.17435276946234
C            4.23028219421827       -0.87386438567321       -1.25690396040897
C            3.21722129687342        1.58201874467799        0.48775349403449
C            2.20357909822302        2.43873642444858        0.84187181231998
C           -2.20397141106689        2.52935516871762       -0.45145684071166
C           -3.21537298853357        1.62627149576151       -0.23140602061525
C           -4.19827463208097       -1.09978206409494        1.10899513789231
C           -3.38547044578940       -0.56249297016040        2.11981932335817
C           -3.51924244253739       -0.97744903826406        3.42493835679523
C           -4.46423106090309       -1.94029316079679        3.75070761068479
C           -5.26686116279655       -2.47293782133538        2.75815576474224
C           -5.15919344057043       -2.07307645250774        1.43296466471957
H           -7.75047305960333       -2.83287514874104        1.75162905379921
H           -8.20521782095208       -2.86582454958756        0.05156438591477
H           -7.71018244527372       -1.34740549619004        0.80140209379338
H           -4.76017756812293       -4.40077304397082        0.07025082815902
H           -6.43967067470947       -4.69252417781622       -0.38627512955374
H           -5.98334909920937       -4.66047417851758        1.31480189914356
H           -7.31918073159595       -3.30938782505013       -1.91958340125966
H           -6.98074614553619       -2.41375975785524       -4.16291271165561
H           -5.26465079001639       -0.66528043224044       -4.55032791293468
H           -3.90303273357435        0.13835441430165       -2.67815480582049
H           -1.64203921372296       -1.21310981484027       -1.21162408139716
H            0.16623673990410        0.42810751421092       -1.63349084217633
H            0.62154613729838        5.59104401207737       -1.97390179101079
H            0.34119107945862        7.64030913775176       -0.60787451106378
H           -0.34681961616608        7.46244854064028        1.75509724168602
H           -0.62492307649105        5.23272508281949        2.80013146790275
H           -0.16235515893209        0.17653476770481        1.68742618785965
H            1.64946988383549       -1.37699744501040        1.02155933924300
H            3.86284205451695       -0.32158542326869        2.68435958943859
H            5.16512958764602       -1.47085434691689        4.41168042466187
H            6.86650540129526       -3.15241403160500        3.75643610145721
H            7.25288683508403       -3.63491613063114        1.39667988945222
H            4.74200250413685       -4.31440792179222       -0.82445322156428
H            6.40414203660823       -4.70313815722872       -0.37713913257791
H            6.00274578193537       -4.36113532823486       -2.05757862734808
H            8.19684059642740       -2.84922401077175       -0.44183200504698
H            7.73133870775119       -1.21311269796966       -0.91070097615793
H            7.78499627403161       -2.49899475550734       -2.11681315273321
H            6.05907240078956       -2.63869497824123       -3.48393482201497
H            4.68677312784548       -1.38109448276934       -5.06090163047623
H            2.99190931322360        0.22805398387172       -4.21347959590436
H            2.70911572315615        0.54665850417311       -1.81903592025472
H            4.17537267209565        1.96886861379716        0.17295741108186
H            2.37259602535129        3.50525409209638        0.81220361450128
H           -2.37554083639813        3.57841469543295       -0.25947561291212
H           -4.17370939791015        1.95804703629984        0.14049480886652
H           -2.65617176934938        0.19444315782024        1.87694878581624
H           -2.88609035126097       -0.54509764079415        4.18477335672288
H           -4.57422103070973       -2.27230424557935        4.77165709032953
H           -5.99492017660259       -3.22083448267464        3.03024046838917

          :  Hamiltonian                  GFN2-xTB          :
         :: gradient norm              0.000117143136 Eh/a0 ::
         :: HOMO-LUMO gap              0.712498072278 eV    ::
         :: SCC energy              -143.957232652862 Eh    ::
         :: -> dispersion             -0.141288642641 Eh    ::
         :: -> Gsolv                  -0.074723329718 Eh    ::
         :: repulsion energy           2.472912051344 Eh    ::

    * Orbital Energies and Occupations

         #    Occupation            Energy/Eh            Energy/eV
      -------------------------------------------------------------
         1        2.0000           -0.6863830             -18.6774
       ...           ...                  ...                  ...
       120        2.0000           -0.4129471             -11.2369
       121        2.0000           -0.4091159             -11.1326
       122        2.0000           -0.4073533             -11.0846
       123        2.0000           -0.4072257             -11.0812
       124        2.0000           -0.4052510             -11.0274
       125        2.0000           -0.4021604             -10.9433
       126        2.0000           -0.3973777             -10.8132
       127        2.0000           -0.3945728             -10.7369
       128        2.0000           -0.3746616             -10.1951
       129        1.9829           -0.3676763             -10.0050
       130        1.5536           -0.3640324              -9.9058
       131        1.4635           -0.3636890              -9.8965
       132        1.0000           -0.2858862              -7.7794 (HOMO)
       133        0.0000           -0.2597024              -7.0669 (LUMO)
       134                         -0.2425616              -6.6004
       135                         -0.2425389              -6.5998
       136                         -0.2349402              -6.3930
       137                         -0.2343733              -6.3776
       138                         -0.2331606              -6.3446
       139                         -0.2326912              -6.3319
       140                         -0.2326089              -6.3296
       141                         -0.2280323              -6.2051
       142                         -0.2260997              -6.1525
       143                         -0.2213627              -6.0236
       ...                                ...                  ...
       256                          0.6818903              18.5552
      -------------------------------------------------------------
                  HL-Gap            0.0261838 Eh            0.7125 eV

     #   Z          covCN         q      C6AA      α(0)
     1   6 C        3.761    -0.109    22.623     6.780
     2   6 C        3.909     0.024    20.105     6.373
     3   6 C        3.761    -0.108    22.621     6.780
     4   6 C        2.978    -0.000    28.024     8.684
     5   6 C        2.925    -0.032    28.803     8.801
     6   6 C        2.917    -0.030    28.757     8.794
     7   6 C        2.917    -0.027    28.669     8.780
     8   6 C        2.922    -0.046    29.146     8.853
     9   6 C        2.929     0.062    26.612     8.460
    10   7 N        2.755    -0.016    21.559     6.896
    11   6 C        2.931     0.048    26.929     8.510
    12   6 C        2.916    -0.040    28.985     8.828
    13   6 C        2.924    -0.029    28.727     8.789
    14   6 C        2.971    -0.022    28.563     8.766
    15   6 C        2.830     0.193    23.880     8.008
    16   8 O        0.857    -0.510    24.015     6.570
    17   6 C        2.979    -0.026    28.636     8.778
    18   6 C        2.917    -0.027    28.682     8.782
    19   6 C        2.918    -0.036    28.906     8.817
    20   6 C        2.918    -0.036    28.906     8.817
    21   6 C        2.917    -0.027    28.683     8.782
    22   6 C        2.979    -0.026    28.636     8.778
    23   6 C        2.830     0.193    23.878     8.007
    24   8 O        0.857    -0.510    24.009     6.569
    25   6 C        2.971    -0.022    28.561     8.766
    26   6 C        2.924    -0.029    28.727     8.790
    27   6 C        2.916    -0.040    28.983     8.828
    28   6 C        2.931     0.048    26.930     8.511
    29   7 N        2.755    -0.016    21.554     6.895
    30   6 C        2.929     0.062    26.614     8.460
    31   6 C        2.922    -0.046    29.146     8.853
    32   6 C        2.917    -0.027    28.669     8.780
    33   6 C        2.917    -0.030    28.756     8.794
    34   6 C        2.925    -0.032    28.803     8.801
    35   6 C        2.978     0.000    28.022     8.683
    36   6 C        3.909     0.024    20.105     6.373
    37   6 C        3.761    -0.109    22.621     6.780
    38   6 C        3.761    -0.109    22.623     6.780
    39   6 C        2.978    -0.001    28.036     8.685
    40   6 C        2.925    -0.033    28.821     8.804
    41   6 C        2.917    -0.030    28.746     8.792
    42   6 C        2.918    -0.025    28.626     8.774
    43   6 C        2.922    -0.043    29.080     8.843
    44   6 C        2.930     0.062    26.600     8.458
    45   6 C        2.917    -0.037    28.919     8.818
    46   6 C        2.920    -0.029    28.718     8.788
    47   6 C        2.920    -0.029    28.714     8.787
    48   6 C        2.917    -0.037    28.919     8.818
    49   6 C        2.930     0.063    26.598     8.458
    50   6 C        2.922    -0.043    29.078     8.843
    51   6 C        2.917    -0.025    28.626     8.774
    52   6 C        2.917    -0.030    28.747     8.792
    53   6 C        2.925    -0.033    28.820     8.804
    54   6 C        2.978    -0.001    28.036     8.685
    55   1 H        0.925     0.054     2.276     2.359
    56   1 H        0.925     0.054     2.270     2.356
    57   1 H        0.925     0.037     2.488     2.467
    58   1 H        0.925     0.038     2.474     2.460
    59   1 H        0.925     0.054     2.270     2.356
    60   1 H        0.925     0.054     2.276     2.359
    61   1 H        0.926     0.054     2.276     2.359
    62   1 H        0.926     0.047     2.358     2.401
    63   1 H        0.926     0.044     2.402     2.424
    64   1 H        0.926     0.040     2.454     2.450
    65   1 H        0.926     0.043     2.407     2.426
    66   1 H        0.926     0.036     2.504     2.475
    67   1 H        0.925     0.029     2.602     2.522
    68   1 H        0.926     0.034     2.530     2.488
    69   1 H        0.926     0.034     2.531     2.488
    70   1 H        0.925     0.029     2.603     2.523
    71   1 H        0.926     0.036     2.503     2.474
    72   1 H        0.926     0.043     2.405     2.425
    73   1 H        0.926     0.040     2.451     2.448
    74   1 H        0.926     0.044     2.401     2.423
    75   1 H        0.926     0.047     2.358     2.401
    76   1 H        0.926     0.054     2.276     2.359
    77   1 H        0.925     0.038     2.474     2.460
    78   1 H        0.925     0.054     2.270     2.356
    79   1 H        0.925     0.054     2.276     2.359
    80   1 H        0.925     0.054     2.270     2.356
    81   1 H        0.925     0.037     2.488     2.466
    82   1 H        0.925     0.053     2.277     2.360
    83   1 H        0.926     0.054     2.272     2.357
    84   1 H        0.926     0.046     2.368     2.406
    85   1 H        0.926     0.041     2.436     2.441
    86   1 H        0.926     0.044     2.397     2.421
    87   1 H        0.926     0.039     2.458     2.452
    88   1 H        0.926     0.026     2.641     2.542
    89   1 H        0.926     0.026     2.642     2.542
    90   1 H        0.926     0.039     2.461     2.453
    91   1 H        0.926     0.043     2.405     2.425
    92   1 H        0.926     0.041     2.436     2.441
    93   1 H        0.926     0.046     2.367     2.406
    94   1 H        0.926     0.054     2.272     2.357

molecular dipole:
                 x           y           z       tot (Debye)
 q only:        0.017      -6.095      -0.461
   full:        0.016      -5.508      -0.416      14.039

 projected vibrational frequencies (cm⁻¹)
eigval :       -0.00    -0.00    -0.00    -0.00    -0.00     0.00
eigval :        2.58    10.18    12.04    16.02    25.53    26.68
eigval :       30.10    40.94    55.26    57.73    63.51    63.95
eigval :       77.75    89.17    96.08   100.33   102.52   103.60
eigval :      113.76   125.10   127.83   136.12   137.00   156.44
eigval :      164.22   172.24   181.79   193.91   202.78   214.35
eigval :      215.89   216.52   218.09   233.53   235.14   237.07
eigval :      264.81   292.52   295.85   299.18   312.94   314.70
eigval :      325.06   325.37   338.69   339.07   348.76   360.58
eigval :      371.91   376.97   378.32   379.99   383.63   384.75
eigval :      400.93   406.67   408.73   409.06   449.45   450.38
eigval :      453.68   460.04   468.68   480.90   501.69   502.04
eigval :      516.51   517.25   532.68   540.96   541.62   542.91
eigval :      555.85   556.64   575.13   577.49   586.61   588.67
eigval :      604.63   606.76   609.51   621.63   622.00   641.40
eigval :      653.24   664.12   682.39   682.96   688.77   689.11
eigval :      699.40   703.03   703.23   717.30   718.32   748.79
eigval :      758.13   773.14   774.70   775.74   778.03   778.27
eigval :      799.59   803.15   825.26   825.77   848.59   852.30
eigval :      870.55   871.73   873.40   880.02   880.37   885.74
eigval :      897.11   897.98   899.85   903.70   912.06   912.35
eigval :      912.91   913.70   915.03   915.21   915.44   915.88
eigval :      917.02   924.25   925.93   930.15   931.11   931.76
eigval :      936.04   936.96   949.91   957.94   958.45  1006.32
eigval :     1010.19  1011.22  1012.46  1072.44  1072.94  1073.32
eigval :     1082.87  1083.39  1093.55  1103.73  1105.07  1109.32
eigval :     1109.41  1128.99  1129.72  1137.65  1137.83  1144.76
eigval :     1145.09  1159.71  1164.22  1165.28  1167.82  1173.86
eigval :     1180.69  1181.67  1181.87  1182.46  1182.97  1190.61
eigval :     1203.95  1212.42  1226.22  1235.21  1235.69  1239.63
eigval :     1239.72  1247.93  1252.91  1255.64  1256.61  1260.48
eigval :     1261.45  1291.19  1291.36  1306.68  1307.52  1310.24
eigval :     1311.07  1323.51  1324.80  1327.30  1327.57  1331.96
eigval :     1333.96  1334.15  1395.62  1395.85  1406.46  1408.08
eigval :     1413.46  1413.65  1414.18  1414.42  1421.76  1425.13
eigval :     1425.51  1426.99  1447.11  1451.12  1451.30  1454.15
eigval :     1469.20  1474.66  1478.97  1479.65  1479.98  1480.83
eigval :     1481.69  1490.04  1490.67  1495.15  1495.95  1510.50
eigval :     1513.65  1538.16  1547.01  1547.04  1554.45  1555.63
eigval :     1559.01  1561.30  1571.73  1574.70  1574.90  1584.89
eigval :     1586.00  1590.28  3028.85  3029.50  3030.93  3031.46
eigval :     3049.81  3050.21  3052.23  3052.64  3056.73  3056.91
eigval :     3061.17  3061.30  3064.09  3065.79  3073.35  3074.07
eigval :     3074.52  3076.81  3077.43  3084.44  3085.89  3085.97
eigval :     3085.99  3086.12  3086.34  3087.21  3092.86  3092.95
eigval :     3093.03  3093.06  3093.50  3094.82  3101.83  3101.98
eigval :     3102.35  3102.63  3107.96  3108.47  3110.70  3111.13

   temp. (K)  partition function   enthalpy   heat capacity  entropy
                                   cal/mol     cal/K/mol   cal/K/mol   J/K/mol
 298.15  VIB  0.849E+22            27477.878    172.078    172.428
         ROT  0.109E+09              888.752      2.981     39.751
         INT  0.922E+30            28366.631    175.059    212.179
         TR   0.180E+29             1481.254      4.968     45.501
         TOT                       29847.8847   180.0268   257.6804  1078.1347

       T/K    H(0)-H(T)+PV         H(T)/Eh          T*S/Eh         G(T)/Eh
   ------------------------------------------------------------------------
    298.15    0.475656E-01    0.785632E+00    0.122432E+00    0.663200E+00
   ------------------------------------------------------------------------

         :::::::::::::::::::::::::::::::::::::::::::::::::::::
         ::                  THERMODYNAMIC                  ::
         :::::::::::::::::::::::::::::::::::::::::::::::::::::
         :: total free energy        -140.821120669383 Eh   ::
         ::.................................................::
         :: total energy             -141.484320602152 Eh   ::
         :: zero point energy           0.738066568762 Eh   ::
         :: G(RRHO) w/o ZPVE           -0.074866635993 Eh   ::
         :: G(RRHO) contrib.            0.663199932769 Eh   ::
         :::::::::::::::::::::::::::::::::::::::::::::::::::::

           -------------------------------------------------
          | TOTAL ENERGY             -141.484320602152 Eh   |
          | TOTAL ENTHALPY           -140.698688401476 Eh   |
          | TOTAL FREE ENERGY        -140.821120669383 Eh   |
          | GRADIENT NORM               0.000116664350 Eh/α |
          | HOMO-LUMO GAP               0.712498099472 eV   |
           -------------------------------------------------

 * finished run on 2025/08/23 at 02:31:45.200
