   * xtb version 6.7.1 (edcfbbe) compiled by 'albert@albert-system' on 2024-07-22

   ID    Z sym.   atoms
    1    6 C      1-9, 11-15, 17-23, 25-28, 30-54
    2    7 N      10, 29
    3    8 O      16, 24
    4    1 H      55-94

          program call               : xtb data2507/toluene/o-Ac2BBP/o-Ac2BBP_toluene_S0_crest.xyz --gfn 2 --gbsa toluene --ohess vtight --parallel 40 --molden --ceasefiles --namespace data2507/toluene/o-Ac2BBP/o-Ac2BBP_toluene_S0_finalOpt
      * Solvation model:               GBSA
        Solvent                        toluene
        Solvent mass                       9.2140E+01 g/mol
          :  Hamiltonian                  GFN2-xTB          :
 * total energy  :  -141.5397030 Eh     change       -0.2678320E-08 Eh
 * total energy  :  -141.5399632 Eh     change       -0.2602000E-03 Eh
 * total energy  :  -141.5401423 Eh     change       -0.1790918E-03 Eh
 * total energy  :  -141.5402290 Eh     change       -0.8669130E-04 Eh
 * total energy  :  -141.5403390 Eh     change       -0.1099549E-03 Eh
 * total energy  :  -141.5404401 Eh     change       -0.1011564E-03 Eh
 * total energy  :  -141.5405104 Eh     change       -0.7024994E-04 Eh
 * total energy  :  -141.5405698 Eh     change       -0.5945641E-04 Eh
 * total energy  :  -141.5406376 Eh     change       -0.6777021E-04 Eh
 * total energy  :  -141.5407095 Eh     change       -0.7193103E-04 Eh
 * total energy  :  -141.5416612 Eh     change       -0.9099276E-06 Eh
 * total energy  :  -141.5416618 Eh     change       -0.5748805E-06 Eh
 * total energy  :  -141.5416622 Eh     change       -0.3969453E-06 Eh
 * total energy  :  -141.5416625 Eh     change       -0.3406983E-06 Eh
 * total energy  :  -141.5416629 Eh     change       -0.3454572E-06 Eh
 * total energy  :  -141.5416632 Eh     change       -0.3748618E-06 Eh
 * total energy  :  -141.5416636 Eh     change       -0.3622210E-06 Eh
 * total energy  :  -141.5416640 Eh     change       -0.3893922E-06 Eh
 * total energy  :  -141.5416640 Eh     change       -0.7701829E-08 Eh
   *** GEOMETRY OPTIMIZATION CONVERGED AFTER 68 ITERATIONS ***

 final structure:
================
94
 xtb: 6.7.1 (edcfbbe)
C           -4.80369496547170       -2.06389549283475        0.91274936635891
C           -4.51658890371122       -2.54158924592188       -0.52890546600293
C           -5.85349910382259       -2.83062291752412       -1.21523557399417
C           -3.73884451796445       -1.43019954545824       -1.20936964298619
C           -4.34610461734023       -0.45471070417646       -1.98525659811722
C           -3.65244931868254        0.65808471688643       -2.43146281045236
C           -2.33425554956129        0.83592390685554       -2.05251092398968
C           -1.69858968058658       -0.13792959737773       -1.30937909515211
C           -2.36911681993198       -1.30217588498914       -0.93430697832949
N           -1.69866430430017       -2.32786665031085       -0.27138103713820
C           -0.31736082654008       -2.18821716322577        0.00254839613050
C            0.12236952839534       -2.16775682681034        1.32286786547794
C            1.45633482832398       -1.95379385675665        1.59882317626775
C            2.38222895736515       -1.78400417225548        0.56689122668471
C            3.76990608618337       -1.42492235864009        0.91660434874151
O            4.08130487119368       -1.08076140195993        2.04722568471881
C            4.79924196695992       -1.48596885116896       -0.15949830012240
C            5.02508523091957       -2.67319924815789       -0.84852242270405
C            6.06970291987771       -2.76964730633672       -1.75219371209485
C            6.90641807497393       -1.68590379185771       -1.96834471540290
C            6.69694946279508       -0.50296171908820       -1.28148632618403
C            5.64185280268871       -0.38902229238012       -0.38312362320864
C            5.41550914374462        0.89997616003726        0.32836776937669
O            6.32823721794740        1.51080418261759        0.85551714208315
C            4.01921926320335        1.39201331675454        0.32719904384691
C            3.15506128553187        1.11738119898782       -0.73207478367271
C            1.84691356799821        1.55589414722169       -0.69842618555264
C            1.37270895751175        2.26758269258835        0.40147634791386
N            0.02020553508168        2.67431374736651        0.47195449453223
C           -0.46422655972180        3.63825578905348       -0.40727102631487
C            0.37274154704172        4.16670866508670       -1.39496748977003
C           -0.08540461681941        5.11166693014401       -2.28956483879992
C           -1.39019782608286        5.56262681112265       -2.20621136108683
C           -2.20701340359854        5.07477207342006       -1.20328820092096
C           -1.77331418659873        4.12074705530029       -0.29165177284734
C           -2.70011123568098        3.69684369630570        0.83175580240461
C           -4.02688425763500        3.18465150652643        0.24371041307523
C           -2.95692273237636        4.92534419966232        1.72714430923810
C           -2.08668915702822        2.60106068180205        1.68028100882073
C           -2.83152871092474        2.03879096048231        2.70877586857009
C           -2.33290004375299        1.03188481017432        3.51369423421361
C           -1.06019187892835        0.54711566585228        3.27375213572278
C           -0.29969121404403        1.08655575577595        2.25771329692493
C           -0.78486281826145        2.13543816951126        1.47123560471809
C            2.24588074021244        2.57450401691965        1.44510207788457
C            3.55770151181019        2.15221696618438        1.40164104991820
C            1.94520384462709       -1.87016913517971       -0.75673531249839
C            0.60871464066187       -2.06421902042809       -1.03363473493244
C           -2.26180922723720       -3.60144012697222       -0.21823082133261
C           -1.44787452882030       -4.71490609893797       -0.00743081493707
C           -1.98161807756450       -5.98798740258479       -0.00394259038336
C           -3.33248837480710       -6.16680375739743       -0.23737852808939
C           -4.14266159071145       -5.06341932680122       -0.44658945715828
C           -3.63682920252580       -3.77255183281865       -0.42760537990796
H           -5.39975202734741       -1.15383637386203        0.89390044366846
H           -3.87549885354545       -1.85415108410506        1.43889715196641
H           -5.34619959516116       -2.83205862209852        1.46008659128756
H           -6.47409031786163       -1.93914369533684       -1.22489020215361
H           -6.40488824366138       -3.58947751284450       -0.66746769612361
H           -5.70087676020695       -3.17029094455276       -2.23742681827980
H           -5.38810130454999       -0.54210335344416       -2.24497453869758
H           -4.15195674285959        1.39946263507640       -3.03702574282036
H           -1.79989583261859        1.73178242989597       -2.33321167768629
H           -0.67519543241013        0.01058114140620       -1.00476865542092
H           -0.59148600487557       -2.29557562728415        2.12154696832055
H            1.80912789647161       -1.89818442327910        2.61832696067974
H            4.39229513342441       -3.52655479811427       -0.65436476598907
H            6.23587027692797       -3.69594619421013       -2.28079698508227
H            7.72538390872848       -1.76305166893197       -2.66704722450152
H            7.34052216870517        0.35066509276193       -1.43550304765552
H            3.51654759889539        0.57507473164569       -1.59251686818375
H            1.18221165575504        1.34100425449248       -1.52157309442627
H            1.40079180049876        3.84547872711456       -1.45553672241600
H            0.58287903874243        5.49892287109491       -3.04470785689918
H           -1.76302939970052        6.30072911002286       -2.90032767498810
H           -3.21137180252163        5.46208972237327       -1.12621791278934
H           -3.84652127726460        2.28899491439092       -0.34681459731467
H           -4.48600985958256        3.93344556438926       -0.39480282315774
H           -4.73270859716244        2.94138653829241        1.03234235040245
H           -3.42072230053889        5.72681874963913        1.15831378361641
H           -2.01668944871137        5.29352214649862        2.13474844769151
H           -3.61171009149332        4.66706069627167        2.55519156822594
H           -3.83042366115466        2.40036724721822        2.89811333820803
H           -2.93574148741516        0.62499731428383        4.31165694115786
H           -0.65231696381814       -0.24923039770993        3.87851267388588
H            0.68591052875419        0.68857191399211        2.07181646335460
H            1.88296638455470        3.14121166997065        2.28979861116892
H            4.24057629480140        2.38255324345971        2.20582163315448
H            2.64869997289961       -1.76962051283581       -1.56772143329392
H            0.26625854999186       -2.11696885830278       -2.05665669402026
H           -0.38825017007496       -4.58202375089786        0.14989564620481
H           -1.33708410411702       -6.83733376789581        0.16892469374305
H           -3.75936724851297       -7.15848604028785       -0.24997813028229
H           -5.19357434506045       -5.22914961286516       -0.61737269795772

          :  Hamiltonian                  GFN2-xTB          :
         :: gradient norm              0.000058852291 Eh/a0 ::
         :: HOMO-LUMO gap              1.242117567321 eV    ::
         :: SCC energy              -144.029967421537 Eh    ::
         :: -> dispersion             -0.148052602879 Eh    ::
         :: -> Gsolv                  -0.055105209095 Eh    ::
         :: repulsion energy           2.488303436807 Eh    ::

    * Orbital Energies and Occupations

         #    Occupation            Energy/Eh            Energy/eV
      -------------------------------------------------------------
         1        2.0000           -0.7214541             -19.6318
       ...           ...                  ...                  ...
       119        2.0000           -0.4116077             -11.2004
       120        2.0000           -0.4096743             -11.1478
       121        2.0000           -0.4086067             -11.1188
       122        2.0000           -0.4070950             -11.0776
       123        2.0000           -0.4047977             -11.0151
       124        2.0000           -0.4032824             -10.9739
       125        2.0000           -0.3996195             -10.8742
       126        2.0000           -0.3985079             -10.8440
       127        2.0000           -0.3958588             -10.7719
       128        2.0000           -0.3947102             -10.7406
       129        2.0000           -0.3932349             -10.7005
       130        2.0000           -0.3511343              -9.5549
       131        2.0000           -0.3496490              -9.5144 (HOMO)
       132                         -0.3040021              -8.2723 (LUMO)
       133                         -0.2928077              -7.9677
       134                         -0.2511071              -6.8330
       135                         -0.2485609              -6.7637
       136                         -0.2462897              -6.7019
       137                         -0.2440415              -6.6407
       138                         -0.2260700              -6.1517
       139                         -0.2255666              -6.1380
       140                         -0.2210832              -6.0160
       141                         -0.2207383              -6.0066
       142                         -0.2195824              -5.9751
       ...                                ...                  ...
       256                          0.6778392              18.4449
      -------------------------------------------------------------
                  HL-Gap            0.0456470 Eh            1.2421 eV

     #   Z          covCN         q      C6AA      α(0)
     1   6 C        3.766    -0.100    22.446     6.753
     2   6 C        3.909     0.022    20.150     6.380
     3   6 C        3.758    -0.107    22.605     6.778
     4   6 C        2.982    -0.012    28.303     8.727
     5   6 C        2.925    -0.041    29.013     8.833
     6   6 C        2.918    -0.045    29.112     8.848
     7   6 C        2.919    -0.033    28.822     8.804
     8   6 C        2.923    -0.059    29.462     8.901
     9   6 C        2.931     0.057    26.712     8.476
    10   7 N        2.753    -0.073    22.659     7.070
    11   6 C        2.927     0.081    26.202     8.395
    12   6 C        2.919    -0.034    28.840     8.806
    13   6 C        2.925    -0.013    28.339     8.730
    14   6 C        2.971    -0.019    28.482     8.754
    15   6 C        2.828     0.230    23.181     7.889
    16   8 O        0.858    -0.421    22.111     6.304
    17   6 C        2.973    -0.009    28.248     8.718
    18   6 C        2.921    -0.024    28.610     8.771
    19   6 C        2.918    -0.021    28.525     8.758
    20   6 C        2.918    -0.021    28.536     8.760
    21   6 C        2.922    -0.017    28.434     8.744
    22   6 C        2.975    -0.005    28.134     8.701
    23   6 C        2.827     0.236    23.067     7.870
    24   8 O        0.857    -0.407    21.818     6.263
    25   6 C        2.973    -0.017    28.426     8.745
    26   6 C        2.921    -0.030    28.759     8.794
    27   6 C        2.920    -0.040    28.999     8.831
    28   6 C        2.925     0.077    26.281     8.407
    29   7 N        2.752    -0.068    22.565     7.055
    30   6 C        2.924     0.059    26.681     8.471
    31   6 C        2.924    -0.060    29.494     8.906
    32   6 C        2.919    -0.034    28.859     8.809
    33   6 C        2.917    -0.045    29.114     8.848
    34   6 C        2.928    -0.037    28.913     8.818
    35   6 C        2.979    -0.011    28.279     8.723
    36   6 C        3.909     0.021    20.157     6.382
    37   6 C        3.760    -0.106    22.577     6.774
    38   6 C        3.762    -0.103    22.512     6.764
    39   6 C        2.980    -0.011    28.283     8.724
    40   6 C        2.928    -0.037    28.918     8.819
    41   6 C        2.917    -0.045    29.107     8.847
    42   6 C        2.920    -0.034    28.858     8.809
    43   6 C        2.924    -0.058    29.448     8.899
    44   6 C        2.928     0.058    26.697     8.473
    45   6 C        2.920    -0.036    28.890     8.814
    46   6 C        2.922    -0.013    28.338     8.730
    47   6 C        2.920    -0.026    28.648     8.777
    48   6 C        2.920    -0.036    28.898     8.815
    49   6 C        2.934     0.058    26.708     8.476
    50   6 C        2.923    -0.058    29.446     8.899
    51   6 C        2.919    -0.035    28.864     8.810
    52   6 C        2.918    -0.045    29.106     8.847
    53   6 C        2.925    -0.040    28.995     8.831
    54   6 C        2.981    -0.011    28.291     8.725
    55   1 H        0.925     0.041     2.440     2.443
    56   1 H        0.925     0.032     2.556     2.500
    57   1 H        0.925     0.041     2.440     2.443
    58   1 H        0.925     0.044     2.401     2.423
    59   1 H        0.925     0.043     2.410     2.428
    60   1 H        0.925     0.037     2.485     2.465
    61   1 H        0.926     0.040     2.449     2.447
    62   1 H        0.926     0.028     2.612     2.527
    63   1 H        0.926     0.025     2.652     2.547
    64   1 H        0.926     0.023     2.687     2.563
    65   1 H        0.926     0.057     2.236     2.338
    66   1 H        0.926     0.057     2.232     2.336
    67   1 H        0.926     0.053     2.280     2.361
    68   1 H        0.926     0.060     2.197     2.318
    69   1 H        0.926     0.059     2.216     2.328
    70   1 H        0.926     0.052     2.297     2.370
    71   1 H        0.926     0.049     2.326     2.385
    72   1 H        0.926     0.057     2.232     2.337
    73   1 H        0.926     0.026     2.648     2.545
    74   1 H        0.926     0.028     2.617     2.530
    75   1 H        0.926     0.028     2.620     2.531
    76   1 H        0.926     0.035     2.515     2.480
    77   1 H        0.925     0.035     2.515     2.480
    78   1 H        0.925     0.042     2.424     2.435
    79   1 H        0.925     0.041     2.432     2.439
    80   1 H        0.925     0.043     2.414     2.429
    81   1 H        0.925     0.029     2.602     2.523
    82   1 H        0.925     0.042     2.416     2.431
    83   1 H        0.926     0.036     2.498     2.472
    84   1 H        0.926     0.029     2.596     2.520
    85   1 H        0.926     0.028     2.620     2.531
    86   1 H        0.926     0.018     2.757     2.596
    87   1 H        0.926     0.053     2.285     2.364
    88   1 H        0.926     0.052     2.294     2.369
    89   1 H        0.926     0.058     2.226     2.333
    90   1 H        0.926     0.058     2.222     2.331
    91   1 H        0.926     0.024     2.680     2.560
    92   1 H        0.926     0.028     2.613     2.528
    93   1 H        0.926     0.028     2.618     2.530
    94   1 H        0.926     0.040     2.455     2.450

molecular dipole:
                 x           y           z       tot (Debye)
 q only:       -2.349      -1.120      -1.931
   full:       -2.123      -1.155      -1.903       7.819

 projected vibrational frequencies (cm⁻¹)
eigval :       -0.00    -0.00    -0.00    -0.00     0.00     0.00
eigval :        8.58    16.27    22.70    26.45    27.49    33.88
eigval :       37.70    41.70    50.49    60.45    61.91    69.97
eigval :       75.57    90.04    99.44   106.85   108.18   112.92
eigval :      118.87   120.43   136.29   141.97   162.31   164.46
eigval :      167.08   172.99   179.05   204.94   206.98   210.00
eigval :      213.76   223.37   234.85   241.12   256.35   258.82
eigval :      272.81   294.37   298.11   304.61   307.51   314.22
eigval :      333.09   334.13   340.08   345.27   362.43   367.59
eigval :      371.36   374.72   378.69   381.99   383.51   394.36
eigval :      400.29   410.50   412.47   413.54   443.85   455.34
eigval :      458.28   464.84   481.29   489.97   497.97   502.86
eigval :      514.34   516.95   535.65   545.43   549.62   556.93
eigval :      562.32   566.37   575.41   581.43   589.99   590.09
eigval :      606.08   610.35   618.21   624.54   647.41   656.65
eigval :      664.46   669.43   682.21   684.58   694.03   695.65
eigval :      702.80   704.72   719.28   726.09   747.12   752.91
eigval :      765.36   772.92   777.55   779.07   784.63   788.93
eigval :      814.00   821.01   827.35   830.75   862.65   863.64
eigval :      867.86   871.25   873.27   881.05   887.10   891.80
eigval :      900.31   902.65   903.58   912.79   913.04   914.61
eigval :      915.91   920.49   920.55   921.68   924.30   925.99
eigval :      926.44   929.92   932.83   934.39   936.70   938.37
eigval :      940.34   942.33   952.23   959.06   962.84  1005.06
eigval :     1013.61  1014.87  1019.50  1073.70  1076.01  1082.69
eigval :     1084.86  1087.63  1098.60  1112.70  1115.53  1120.54
eigval :     1121.29  1128.96  1130.56  1140.84  1142.07  1149.90
eigval :     1157.94  1167.04  1171.78  1174.27  1178.15  1179.65
eigval :     1182.27  1186.68  1187.36  1188.17  1188.96  1191.80
eigval :     1205.14  1211.97  1236.09  1244.08  1246.27  1249.98
eigval :     1251.33  1258.48  1259.44  1260.49  1265.66  1269.37
eigval :     1273.39  1282.63  1294.33  1307.69  1310.33  1311.63
eigval :     1314.31  1317.89  1321.89  1325.48  1330.48  1330.98
eigval :     1332.97  1333.07  1394.16  1400.04  1401.07  1403.47
eigval :     1412.03  1414.74  1418.95  1434.61  1437.86  1437.94
eigval :     1441.02  1444.89  1467.10  1469.06  1470.97  1475.18
eigval :     1483.78  1485.70  1488.11  1489.05  1492.42  1494.12
eigval :     1498.99  1500.72  1504.15  1530.28  1553.59  1554.30
eigval :     1561.62  1573.03  1574.03  1575.27  1575.97  1578.49
eigval :     1585.15  1587.94  1589.39  1590.85  1599.77  1600.71
eigval :     1649.18  1670.92  3020.54  3024.00  3025.05  3032.25
eigval :     3035.52  3037.62  3038.92  3040.42  3043.82  3045.63
eigval :     3054.89  3056.49  3073.52  3074.05  3074.50  3075.66
eigval :     3081.88  3082.56  3083.10  3084.04  3084.86  3086.07
eigval :     3086.99  3087.29  3087.72  3089.01  3092.40  3093.29
eigval :     3093.95  3094.76  3096.57  3098.60  3099.94  3101.50
eigval :     3101.83  3103.93  3106.16  3109.74  3113.89  3115.39

   temp. (K)  partition function   enthalpy   heat capacity  entropy
                                   cal/mol     cal/K/mol   cal/K/mol   J/K/mol
 298.15  VIB  0.152E+21            27063.626    170.949    166.961
         ROT  0.784E+08              888.752      2.981     39.105
         INT  0.119E+29            27952.378    173.930    206.066
         TR   0.180E+29             1481.254      4.968     45.501
         TOT                       29433.6320   178.8981   251.5676  1052.5589

       T/K    H(0)-H(T)+PV         H(T)/Eh          T*S/Eh         G(T)/Eh
   ------------------------------------------------------------------------
    298.15    0.469055E-01    0.789119E+00    0.119528E+00    0.669591E+00
   ------------------------------------------------------------------------

         :::::::::::::::::::::::::::::::::::::::::::::::::::::
         ::                  THERMODYNAMIC                  ::
         :::::::::::::::::::::::::::::::::::::::::::::::::::::
         :: total free energy        -140.872072561915 Eh   ::
         ::.................................................::
         :: total energy             -141.541663986530 Eh   ::
         :: zero point energy           0.742213839425 Eh   ::
         :: G(RRHO) w/o ZPVE           -0.072622414810 Eh   ::
         :: G(RRHO) contrib.            0.669591424615 Eh   ::
         :::::::::::::::::::::::::::::::::::::::::::::::::::::

           -------------------------------------------------
          | TOTAL ENERGY             -141.541663986530 Eh   |
          | TOTAL ENTHALPY           -140.752544668780 Eh   |
          | TOTAL FREE ENERGY        -140.872072561915 Eh   |
          | GRADIENT NORM               0.000058851155 Eh/α |
          | HOMO-LUMO GAP               1.242117479574 eV   |
           -------------------------------------------------

 * finished run on 2025/08/23 at 02:20:49.615
