   * xtb version 6.7.1 (edcfbbe) compiled by 'albert@albert-system' on 2024-07-22

   ID    Z sym.   atoms
    1    6 C      1-9, 11-15, 17-23, 25-28, 30-54
    2    7 N      10, 29
    3    8 O      16, 24
    4    1 H      55-94

          program call               : xtb data2507/toluene/o-Ac2BBP/o-Ac2BBP.xyz --gfn 2 --gbsa toluene --ohess vtight --parallel 40 --molden --ceasefiles --namespace data2507/toluene/o-Ac2BBP/o-Ac2BBP_toluene_S0_preOpt
      * Solvation model:               GBSA
        Solvent                        toluene
        Solvent mass                       9.2140E+01 g/mol
          :  Hamiltonian                  GFN2-xTB          :
 * total energy  :  -141.5067910 Eh     change       -0.9242854E-08 Eh
 * total energy  :  -141.5260695 Eh     change       -0.1927850E-01 Eh
 * total energy  :  -141.5326500 Eh     change       -0.6580513E-02 Eh
 * total energy  :  -141.5340436 Eh     change       -0.1393573E-02 Eh
 * total energy  :  -141.5351098 Eh     change       -0.1066258E-02 Eh
 * total energy  :  -141.5357318 Eh     change       -0.6219708E-03 Eh
 * total energy  :  -141.5360625 Eh     change       -0.3306984E-03 Eh
 * total energy  :  -141.5362405 Eh     change       -0.1779928E-03 Eh
 * total energy  :  -141.5363292 Eh     change       -0.8876954E-04 Eh
 * total energy  :  -141.5363899 Eh     change       -0.6066753E-04 Eh
 * total energy  :  -141.5410003 Eh     change       -0.1966295E-06 Eh
 * total energy  :  -141.5410006 Eh     change       -0.2287904E-06 Eh
 * total energy  :  -141.5410009 Eh     change       -0.3126473E-06 Eh
 * total energy  :  -141.5410013 Eh     change       -0.4320822E-06 Eh
 * total energy  :  -141.5410018 Eh     change       -0.4812833E-06 Eh
 * total energy  :  -141.5410023 Eh     change       -0.4704835E-06 Eh
 * total energy  :  -141.5410027 Eh     change       -0.4409967E-06 Eh
 * total energy  :  -141.5410030 Eh     change       -0.3031872E-06 Eh
 * total energy  :  -141.5410030 Eh     change       -0.4569472E-08 Eh
   *** GEOMETRY OPTIMIZATION CONVERGED AFTER 221 ITERATIONS ***

 final structure:
================
94
 xtb: 6.7.1 (edcfbbe)
C          -10.06915990574248        2.07376258837073        0.77004213239337
C           -9.37257123194103        1.02990250141416       -0.12329688052816
C          -10.39537100929424        0.36697902951217       -1.06522593553963
C           -8.32303308364874        1.73088854495414       -0.96530118537979
C           -8.71337464557937        2.73247310362584       -1.84460394761735
C           -7.81056132895396        3.38786462002504       -2.66126784555788
C           -6.47605280039779        3.02603284040585       -2.61884798838835
C           -6.06063761037518        2.03564711594860       -1.75335119839018
C           -6.96713741120201        1.39226971647375       -0.90502759270782
N           -6.51752229716942        0.40195853067478       -0.04024355989755
C           -5.13380573377014        0.10270093840820        0.00658450769550
C           -4.24353198184702        0.99619988544952        0.59899920324022
C           -2.89809748341455        0.69842197504829        0.64384189461690
C           -2.41710217542001       -0.50042924133680        0.11336067215348
C           -0.96622525805916       -0.76824622737571        0.16542831775834
O           -0.14282495629812        0.13154715418651        0.25658318545399
C           -0.52679844744482       -2.18515724268321        0.11533120676021
C           -1.17230332062680       -3.18889698475998        0.83279467541322
C           -0.67440504207747       -4.47953648216550        0.82139913806142
C            0.46957018446338       -4.77868548355595        0.09716528712746
C            1.12790130378029       -3.78506430882539       -0.60799066933197
C            0.63973491421596       -2.48456581708967       -0.59715387510019
C            1.28002429264497       -1.42077177561363       -1.42869545208657
O            0.68811460442313       -0.94416653198343       -2.38378998483612
C            2.65366077772878       -1.02662551166157       -1.06469318986188
C            3.24603038488764       -1.42670654724864        0.13407094398147
C            4.52454068362780       -1.01302714281204        0.44779198136854
C            5.23450422780919       -0.19472081173306       -0.42899786412686
N            6.54738498041411        0.22408352240491       -0.10432278879409
C            6.72953031489242        1.14796049743340        0.91830140906936
C            5.61724408124973        1.69187643095956        1.56845001148216
C            5.76701869588772        2.59998773623860        2.59578398909944
C            7.03390232181077        2.99356125261712        2.98789574359867
C            8.13368077182655        2.48487785726534        2.32237639179080
C            8.01191388410626        1.57070897748741        1.28381269820374
C            9.26015651981144        1.08546657354728        0.57117585063027
C           10.17758523222211        0.38901724196299        1.59390083192519
C            9.97598891732551        2.30203443193829       -0.04574769711805
C            8.93183241018016        0.09967517520666       -0.53408409126350
C            9.96385487968945       -0.44958585321832       -1.28406702942227
C            9.73495006041219       -1.37753309057651       -2.28295021991291
C            8.43909026307777       -1.79073410340652       -2.53503615132832
C            7.39539184813051       -1.26061315134341       -1.80567722945285
C            7.62063865183263       -0.29709269478454       -0.81744505362010
C            4.64502356375621        0.21191569184038       -1.62474448586726
C            3.36564526772308       -0.19676305051909       -1.93396370534841
C           -3.31032119956208       -1.38534404236791       -0.49275618170869
C           -4.65643907928595       -1.08427699039762       -0.54500877580411
C           -7.38832746521306       -0.29733743144227        0.78621416006224
C           -6.88405506241744       -1.25004486566521        1.67692996075470
C           -7.72346003400840       -1.96552776846984        2.50509817558384
C           -9.08694014259192       -1.73545098169363        2.46791444478549
C           -9.58498072645161       -0.77290750717311        1.60941253081921
C           -8.76259810011834       -0.03714080323503        0.76602101566194
H          -10.53194023541624        2.85106445585901        0.16844896851743
H           -9.34148177204073        2.53979589976455        1.43248629107152
H          -10.84026114089702        1.61077708246962        1.37937796094931
H          -10.86854351858971        1.10579359300009       -1.70588887384831
H          -11.17222222605424       -0.13920765915578       -0.49905027093858
H           -9.89686305270951       -0.36636647538145       -1.69700690577487
H           -9.75424059416861        3.01279231274529       -1.90004550898309
H           -8.14844884627819        4.16441998000885       -3.33095242984750
H           -5.75447621565090        3.50961921195247       -3.26097412054180
H           -5.01950091809756        1.75165230303155       -1.73982676841347
H           -4.61650727755871        1.91932775979181        1.01707059878162
H           -2.19470297229711        1.37936453149393        1.10024659851593
H           -2.04997701252462       -2.94751474639839        1.41321494365508
H           -1.17849035739294       -5.25344117043771        1.37992772750603
H            0.85375037832634       -5.78732822166416        0.08412556544329
H            2.01697803467027       -4.01391691192993       -1.17678346175547
H            2.70108094104939       -2.05352599688502        0.82307575279308
H            4.98543259429235       -1.31720598063653        1.37598753979859
H            4.62308857087723        1.40626291541990        1.26059501724319
H            4.89072998403509        3.00100674855902        3.08374719532251
H            7.16554639183478        3.69934908827854        3.79423854735592
H            9.11563898912019        2.81635619684566        2.62393637620434
H           10.44987199312912        1.06923057915535        2.39601041349330
H           11.09046212185675        0.03812851401979        1.12092332970127
H            9.66488268763213       -0.46738012452453        2.02874257772487
H           10.24033023130622        3.02620416765194        0.71970484790196
H            9.32305235471956        2.78925412058785       -0.76813768416416
H           10.88596290716511        1.99854907205247       -0.55573547344106
H           10.98126991804697       -0.14909079956158       -1.08490550245458
H           10.56080264543873       -1.78103681643586       -2.84928980113111
H            8.23665863357526       -2.52954418358308       -3.29661524617940
H            6.39048086808902       -1.60133437932353       -2.00103445828566
H            5.19648903601010        0.85083403848917       -2.29860604849584
H            2.88840031821330        0.11796449299404       -2.85049631902008
H           -2.94527687721078       -2.29258387098307       -0.94914983984198
H           -5.35073303634397       -1.76366934239765       -1.01664106347808
H           -5.82058854077492       -1.42568324825810        1.72445967045924
H           -7.30887903181571       -2.69834584537560        3.18175020160334
H           -9.75618499264082       -2.29077858226283        3.10773675709185
H          -10.64886548620310       -0.59065719923945        1.60294711483312

          :  Hamiltonian                  GFN2-xTB          :
         :: gradient norm              0.000049647833 Eh/a0 ::
         :: HOMO-LUMO gap              1.298725461094 eV    ::
         :: SCC energy              -144.028407312008 Eh    ::
         :: -> dispersion             -0.130690545042 Eh    ::
         :: -> Gsolv                  -0.063145986088 Eh    ::
         :: repulsion energy           2.487404306681 Eh    ::

    * Orbital Energies and Occupations

         #    Occupation            Energy/Eh            Energy/eV
      -------------------------------------------------------------
         1        2.0000           -0.7192956             -19.5730
       ...           ...                  ...                  ...
       119        2.0000           -0.4090344             -11.1304
       120        2.0000           -0.4084128             -11.1135
       121        2.0000           -0.4075300             -11.0895
       122        2.0000           -0.4054268             -11.0322
       123        2.0000           -0.4042568             -11.0004
       124        2.0000           -0.4039244             -10.9913
       125        2.0000           -0.3989307             -10.8555
       126        2.0000           -0.3984328             -10.8419
       127        2.0000           -0.3979286             -10.8282
       128        2.0000           -0.3931170             -10.6973
       129        2.0000           -0.3926887             -10.6856
       130        2.0000           -0.3485390              -9.4842
       131        2.0000           -0.3481880              -9.4747 (HOMO)
       132                         -0.3004607              -8.1760 (LUMO)
       133                         -0.2941302              -8.0037
       134                         -0.2497361              -6.7957
       135                         -0.2477171              -6.7407
       136                         -0.2443705              -6.6497
       137                         -0.2426156              -6.6019
       138                         -0.2251942              -6.1278
       139                         -0.2248696              -6.1190
       140                         -0.2200482              -5.9878
       141                         -0.2197335              -5.9793
       142                         -0.2188854              -5.9562
       ...                                ...                  ...
       256                          0.6774699              18.4349
      -------------------------------------------------------------
                  HL-Gap            0.0477273 Eh            1.2987 eV

     #   Z          covCN         q      C6AA      α(0)
     1   6 C        3.761    -0.104    22.530     6.767
     2   6 C        3.909     0.021    20.162     6.382
     3   6 C        3.761    -0.104    22.533     6.767
     4   6 C        2.979    -0.013    28.326     8.730
     5   6 C        2.928    -0.037    28.925     8.820
     6   6 C        2.917    -0.045    29.123     8.850
     7   6 C        2.919    -0.034    28.851     8.808
     8   6 C        2.924    -0.059    29.473     8.903
     9   6 C        2.927     0.058    26.707     8.475
    10   7 N        2.753    -0.069    22.579     7.057
    11   6 C        2.927     0.080    26.226     8.398
    12   6 C        2.919    -0.035    28.876     8.812
    13   6 C        2.924    -0.015    28.381     8.736
    14   6 C        2.972    -0.014    28.359     8.735
    15   6 C        2.830     0.233    23.118     7.879
    16   8 O        0.858    -0.421    22.114     6.305
    17   6 C        2.976    -0.008    28.210     8.712
    18   6 C        2.919    -0.024    28.602     8.770
    19   6 C        2.918    -0.023    28.578     8.766
    20   6 C        2.919    -0.019    28.493     8.753
    21   6 C        2.920    -0.025    28.618     8.773
    22   6 C        2.977    -0.000    28.027     8.684
    23   6 C        2.828     0.241    22.975     7.854
    24   8 O        0.858    -0.419    22.065     6.298
    25   6 C        2.972    -0.013    28.326     8.730
    26   6 C        2.920    -0.021    28.530     8.759
    27   6 C        2.920    -0.036    28.891     8.814
    28   6 C        2.927     0.080    26.214     8.396
    29   7 N        2.753    -0.068    22.566     7.055
    30   6 C        2.927     0.058    26.706     8.475
    31   6 C        2.924    -0.059    29.468     8.902
    32   6 C        2.919    -0.034    28.849     8.808
    33   6 C        2.917    -0.045    29.122     8.849
    34   6 C        2.928    -0.037    28.927     8.820
    35   6 C        2.979    -0.013    28.322     8.730
    36   6 C        3.909     0.021    20.162     6.382
    37   6 C        3.761    -0.104    22.536     6.767
    38   6 C        3.761    -0.104    22.532     6.767
    39   6 C        2.979    -0.012    28.320     8.729
    40   6 C        2.928    -0.037    28.923     8.820
    41   6 C        2.917    -0.045    29.125     8.850
    42   6 C        2.919    -0.034    28.854     8.809
    43   6 C        2.924    -0.060    29.482     8.904
    44   6 C        2.926     0.058    26.708     8.475
    45   6 C        2.919    -0.035    28.881     8.813
    46   6 C        2.924    -0.014    28.360     8.733
    47   6 C        2.920    -0.023    28.573     8.766
    48   6 C        2.920    -0.035    28.883     8.813
    49   6 C        2.927     0.058    26.710     8.475
    50   6 C        2.924    -0.060    29.489     8.905
    51   6 C        2.919    -0.034    28.856     8.809
    52   6 C        2.917    -0.045    29.128     8.850
    53   6 C        2.928    -0.037    28.921     8.819
    54   6 C        2.979    -0.013    28.323     8.730
    55   1 H        0.925     0.042     2.420     2.433
    56   1 H        0.925     0.030     2.582     2.513
    57   1 H        0.925     0.042     2.417     2.431
    58   1 H        0.925     0.042     2.422     2.434
    59   1 H        0.925     0.043     2.414     2.430
    60   1 H        0.925     0.031     2.578     2.511
    61   1 H        0.926     0.034     2.524     2.484
    62   1 H        0.926     0.027     2.630     2.536
    63   1 H        0.926     0.027     2.634     2.538
    64   1 H        0.926     0.023     2.686     2.563
    65   1 H        0.926     0.055     2.256     2.349
    66   1 H        0.926     0.056     2.250     2.346
    67   1 H        0.926     0.054     2.273     2.358
    68   1 H        0.926     0.059     2.206     2.322
    69   1 H        0.926     0.060     2.200     2.319
    70   1 H        0.926     0.049     2.335     2.389
    71   1 H        0.926     0.053     2.288     2.366
    72   1 H        0.926     0.056     2.241     2.341
    73   1 H        0.926     0.024     2.672     2.556
    74   1 H        0.926     0.027     2.631     2.537
    75   1 H        0.926     0.027     2.625     2.534
    76   1 H        0.926     0.035     2.520     2.482
    77   1 H        0.925     0.043     2.415     2.430
    78   1 H        0.925     0.043     2.415     2.430
    79   1 H        0.925     0.031     2.574     2.509
    80   1 H        0.925     0.042     2.419     2.432
    81   1 H        0.925     0.030     2.584     2.514
    82   1 H        0.925     0.043     2.413     2.429
    83   1 H        0.926     0.034     2.524     2.484
    84   1 H        0.926     0.027     2.624     2.533
    85   1 H        0.926     0.028     2.615     2.529
    86   1 H        0.926     0.025     2.660     2.550
    87   1 H        0.926     0.055     2.260     2.351
    88   1 H        0.926     0.058     2.228     2.334
    89   1 H        0.926     0.055     2.260     2.351
    90   1 H        0.926     0.057     2.228     2.334
    91   1 H        0.926     0.025     2.659     2.550
    92   1 H        0.926     0.029     2.606     2.525
    93   1 H        0.926     0.027     2.626     2.534
    94   1 H        0.926     0.034     2.531     2.488

molecular dipole:
                 x           y           z       tot (Debye)
 q only:       -0.208      -1.606       1.124
   full:       -0.233      -1.632       1.110       5.052

 projected vibrational frequencies (cm⁻¹)
eigval :       -0.00    -0.00    -0.00    -0.00     0.00     0.00
eigval :        3.97     6.77     9.05    15.20    16.04    18.05
eigval :       31.54    35.57    37.61    46.03    53.91    60.14
eigval :       61.54    77.62    98.52   101.11   102.30   103.38
eigval :      108.04   119.83   128.71   134.97   135.82   151.08
eigval :      160.17   171.16   182.40   190.95   197.60   203.36
eigval :      212.85   220.05   221.00   231.81   235.87   236.89
eigval :      277.65   283.43   296.23   303.41   311.10   323.20
eigval :      330.72   331.30   334.86   343.90   344.14   358.16
eigval :      366.41   373.23   375.18   378.23   380.92   382.40
eigval :      395.10   400.59   410.03   410.76   451.83   452.76
eigval :      460.44   473.77   483.48   486.07   494.40   496.38
eigval :      514.12   514.47   545.85   546.44   546.88   551.19
eigval :      558.84   565.04   578.28   579.56   590.25   592.08
eigval :      606.21   608.69   613.72   626.67   646.89   660.54
eigval :      661.43   670.14   682.76   683.24   690.55   693.84
eigval :      694.30   712.60   717.91   726.80   749.45   758.61
eigval :      760.47   774.85   775.54   776.85   781.32   786.14
eigval :      819.39   821.26   828.98   831.45   865.37   866.42
eigval :      867.31   871.69   872.94   876.38   889.16   892.12
eigval :      900.97   911.89   912.35   913.19   914.27   915.05
eigval :      915.35   918.66   919.91   920.52   921.48   924.14
eigval :      924.69   926.91   930.01   932.74   935.05   935.31
eigval :      937.22   939.54   951.73   956.43   956.46  1012.75
eigval :     1013.18  1014.59  1019.45  1075.62  1075.65  1084.04
eigval :     1084.29  1088.14  1103.57  1112.90  1113.43  1118.58
eigval :     1118.59  1128.61  1130.16  1139.33  1140.24  1157.96
eigval :     1158.11  1167.89  1170.07  1170.83  1174.94  1177.73
eigval :     1182.50  1185.29  1186.83  1186.99  1187.60  1190.40
eigval :     1204.53  1211.19  1240.14  1242.52  1243.77  1248.14
eigval :     1248.86  1254.80  1258.05  1259.05  1266.67  1267.26
eigval :     1270.31  1293.08  1293.72  1309.23  1312.26  1313.78
eigval :     1314.54  1315.99  1324.24  1325.66  1332.16  1332.44
eigval :     1332.89  1333.66  1398.98  1399.07  1401.29  1403.22
eigval :     1417.09  1417.43  1417.57  1434.57  1434.85  1438.32
eigval :     1438.41  1445.69  1469.26  1469.43  1475.04  1475.49
eigval :     1486.01  1486.22  1487.07  1487.20  1493.43  1493.93
eigval :     1496.51  1496.51  1501.88  1501.97  1553.14  1555.20
eigval :     1562.81  1573.86  1573.87  1574.56  1576.20  1577.40
eigval :     1589.39  1589.42  1590.14  1590.24  1599.95  1600.10
eigval :     1644.68  1660.45  3020.74  3021.02  3023.43  3023.49
eigval :     3039.50  3040.07  3041.49  3042.25  3048.16  3048.54
eigval :     3052.55  3052.89  3073.04  3073.31  3073.38  3073.91
eigval :     3080.31  3080.38  3080.44  3080.84  3083.07  3084.84
eigval :     3085.01  3086.40  3087.10  3088.63  3090.92  3091.32
eigval :     3091.43  3091.78  3093.18  3094.66  3095.05  3097.84
eigval :     3098.64  3099.09  3099.23  3100.33  3100.39  3101.61

   temp. (K)  partition function   enthalpy   heat capacity  entropy
                                   cal/mol     cal/K/mol   cal/K/mol   J/K/mol
 298.15  VIB  0.846E+23            27518.600    169.825    173.918
         ROT  0.159E+09              888.752      2.981     40.503
         INT  0.134E+32            28407.352    172.806    214.421
         TR   0.180E+29             1481.254      4.968     45.501
         TOT                       29888.6064   177.7744   259.9227  1087.5165

       T/K    H(0)-H(T)+PV         H(T)/Eh          T*S/Eh         G(T)/Eh
   ------------------------------------------------------------------------
    298.15    0.476305E-01    0.788530E+00    0.123498E+00    0.665032E+00
   ------------------------------------------------------------------------

         :::::::::::::::::::::::::::::::::::::::::::::::::::::
         ::                  THERMODYNAMIC                  ::
         :::::::::::::::::::::::::::::::::::::::::::::::::::::
         :: total free energy        -140.875970808374 Eh   ::
         ::.................................................::
         :: total energy             -141.541003001674 Eh   ::
         :: zero point energy           0.740899322534 Eh   ::
         :: G(RRHO) w/o ZPVE           -0.075867129234 Eh   ::
         :: G(RRHO) contrib.            0.665032193300 Eh   ::
         :::::::::::::::::::::::::::::::::::::::::::::::::::::

           -------------------------------------------------
          | TOTAL ENERGY             -141.541003001674 Eh   |
          | TOTAL ENTHALPY           -140.752473153064 Eh   |
          | TOTAL FREE ENERGY        -140.875970808374 Eh   |
          | GRADIENT NORM               0.000049640510 Eh/α |
          | HOMO-LUMO GAP               1.298725905570 eV   |
           -------------------------------------------------

 * finished run on 2025/08/23 at 02:15:07.214
