   * xtb version 6.7.1 (edcfbbe) compiled by 'albert@albert-system' on 2024-07-22

   ID    Z sym.   atoms
    1    6 C      1-9, 11-15, 17-23, 25-28, 30-54
    2    7 N      10, 29
    3    8 O      16, 24
    4    1 H      55-94

          program call               : xtb data2507/toluene/o-Ac2BBP/o-Ac2BBP_toluene_S0_finalOpt.xtbopt.xyz --gfn 2 --uhf 2 --gbsa toluene --ohess vtight --parallel 40 --molden --ceasefiles --namespace data2507/toluene/o-Ac2BBP/o-Ac2BBP_toluene_T1_preOpt
      * Solvation model:               GBSA
        Solvent                        toluene
        Solvent mass                       9.2140E+01 g/mol
          :  Hamiltonian                  GFN2-xTB          :
 * total energy  :  -141.4708771 Eh     change       -0.3586217E-07 Eh
 * total energy  :  -141.4740937 Eh     change       -0.3216662E-02 Eh
 * total energy  :  -141.4749990 Eh     change       -0.9052316E-03 Eh
 * total energy  :  -141.4752463 Eh     change       -0.2472957E-03 Eh
 * total energy  :  -141.4755142 Eh     change       -0.2679747E-03 Eh
 * total energy  :  -141.4757073 Eh     change       -0.1930989E-03 Eh
 * total energy  :  -141.4758598 Eh     change       -0.1524641E-03 Eh
 * total energy  :  -141.4759574 Eh     change       -0.9757475E-04 Eh
 * total energy  :  -141.4760355 Eh     change       -0.7810740E-04 Eh
 * total energy  :  -141.4761026 Eh     change       -0.6709597E-04 Eh
 * total energy  :  -141.4787360 Eh     change       -0.7941905E-06 Eh
 * total energy  :  -141.4787370 Eh     change       -0.9531004E-06 Eh
 * total energy  :  -141.4787373 Eh     change       -0.2822663E-06 Eh
 * total energy  :  -141.4787381 Eh     change       -0.8447763E-06 Eh
 * total energy  :  -141.4787385 Eh     change       -0.3580681E-06 Eh
 * total energy  :  -141.4787387 Eh     change       -0.2514375E-06 Eh
 * total energy  :  -141.4787391 Eh     change       -0.4082060E-06 Eh
 * total energy  :  -141.4787395 Eh     change       -0.3629399E-06 Eh
 * total energy  :  -141.4787395 Eh     change       -0.4011292E-07 Eh
   *** GEOMETRY OPTIMIZATION CONVERGED AFTER 100 ITERATIONS ***

 final structure:
================
94
 xtb: 6.7.1 (edcfbbe)
C           -5.72141324916794       -2.68533701918148       -0.03954332425819
C           -4.52909259720150       -2.93231149060856       -0.98537515363984
C           -5.03226420236098       -3.42939894041747       -2.35539229267081
C           -3.79332539635399       -1.62419780674675       -1.17818918206255
C           -4.45390427946901       -0.53589244173481       -1.73266355569741
C           -3.82895634444962        0.68404430733191       -1.91525272582806
C           -2.51431117664995        0.84904996233367       -1.50163804157591
C           -1.83621712509390       -0.20926993692176       -0.94227981252402
C           -2.44961121848728       -1.46399524715773       -0.80301171555765
N           -1.72365607891879       -2.52212977309344       -0.29714135733136
C           -0.34053264037248       -2.32116202732867       -0.02633366570007
C            0.10877749475353       -2.15361212032202        1.28383558920939
C            1.43169177100601       -1.86951257995327        1.52018409268633
C            2.35365954092722       -1.74909261402779        0.46410685244540
C            3.69764684435799       -1.26628178258866        0.75664133253295
O            3.96863340808114       -0.77869651673035        1.88230985669549
C            4.72353963098658       -1.38836309843687       -0.28851805688931
C            4.92500356510713       -2.62472887203906       -0.91246329897047
C            6.01760704169573       -2.84419593435582       -1.72117840207334
C            6.96088143614211       -1.83166575682821       -1.91685006253750
C            6.77410250868585       -0.60398723609996       -1.33025966456295
C            5.63888975127092       -0.34147205459446       -0.55034143183385
C            5.41248391861527        1.01508846960883       -0.06910832522541
O            6.33877401176345        1.81401480276755        0.14978997225355
C            4.00264964479408        1.44767924028450        0.08225599311455
C            3.03684192392772        1.13258157680291       -0.87508368613132
C            1.74108093341145        1.58356942345708       -0.74360984673793
C            1.38624371929684        2.36778045249116        0.35404778374901
N            0.04773227269287        2.82967225743676        0.51272413463054
C           -0.41564309966914        3.85794762526548       -0.28398245393939
C            0.40611838705204        4.37749032121763       -1.29592157713105
C           -0.03630941210151        5.39109544316155       -2.11563230366585
C           -1.30532338269441        5.92093017351821       -1.93388567658882
C           -2.10747227553178        5.43395254109311       -0.91818600638982
C           -1.69475889992218        4.40531937983293       -0.08142303552405
C           -2.58495618896519        3.96461286579515        1.06073024012464
C           -3.98515225378069        3.59773164478920        0.53426597025664
C           -2.69215986527605        5.14325264742337        2.05210837835293
C           -2.00775198795036        2.77538619334652        1.79595480584055
C           -2.73741480501619        2.17387315568995        2.81232924460107
C           -2.24529858652836        1.09780872595130        3.52761373750589
C           -0.99055778247734        0.59103467434734        3.22339951208975
C           -0.24493142926748        1.16221272566940        2.21750874815254
C           -0.73144033136484        2.26728952823830        1.50386335967369
C            2.34738058305858        2.71096857647698        1.29827582686482
C            3.64487355518386        2.26353448821866        1.15681551354688
C            1.88969412176767       -1.96076424478550       -0.84547365483640
C            0.56511126440801       -2.24236690006075       -1.08502224726954
C           -2.28657320748283       -3.76295131901714       -0.08976323474822
C           -1.49248719983837       -4.80632994151791        0.40999474267738
C           -2.03020723240780       -6.05097188221443        0.64560839133335
C           -3.37211278958342       -6.28384597558704        0.37974982013638
C           -4.15303777592414       -5.26534337764544       -0.13574282672107
C           -3.63931924718962       -3.99993359323199       -0.38587530145768
H           -6.38926219143867       -1.93505776850914       -0.45182117026550
H           -5.36245089644117       -2.33520014227153        0.92639399859723
H           -6.28741759524745       -3.59917475888567        0.11325854413257
H           -5.69037006108724       -2.69725971225136       -2.81330338728208
H           -5.57995258810868       -4.36086495357138       -2.24915467656046
H           -4.18873533807141       -3.60007452567994       -3.02182569642698
H           -5.48337425460451       -0.63828010889605       -2.03738291206015
H           -4.36574337592798        1.50342585106726       -2.36824283525944
H           -2.02108784616635        1.80249326909662       -1.61704130680958
H           -0.82115327431604       -0.07994657279275       -0.60290934647633
H           -0.59438390240387       -2.23311413696041        2.09910938136618
H            1.80005147567503       -1.71288808534750        2.52390219031597
H            4.23626948633516       -3.43273379268016       -0.70641505849266
H            6.16440932286215       -3.81149471693003       -2.17920040661647
H            7.83157025070030       -2.01543904601417       -2.52900941193719
H            7.47955273230136        0.20274631950598       -1.47573275079892
H            3.31484796843499        0.53628280751820       -1.73147699053143
H            0.99991398320124        1.33516685808160       -1.48867688640763
H            1.40103587293629        3.98291639976907       -1.42623182685141
H            0.61182602323429        5.77304683033915       -2.88959977897978
H           -1.65960890272006        6.71876808701814       -2.56821326069991
H           -3.07775105790040        5.88121511831930       -0.77110102711128
H           -3.93170781216744        2.68505648707804       -0.05349024269975
H           -4.38746802002877        4.39089952542410       -0.08724573635406
H           -4.67432902843551        3.43849182433375        1.35748040588910
H           -3.14101122635972        6.00725973803996        1.57048688649308
H           -1.70342807685170        5.42366830373194        2.41077977102709
H           -3.30146548594683        4.86641213361115        2.90782738769788
H           -3.71346500337921        2.55680689923073        3.06349765729067
H           -2.83467034507568        0.65774560182552        4.31739102573978
H           -0.58901674883998       -0.24679726421778        3.77215582731657
H            0.72484028338439        0.75625203737082        1.97580142828734
H            2.07209854244440        3.32742122107305        2.14182301791864
H            4.40111339845288        2.52331710346564        1.88229192119904
H            2.57497348337531       -1.87844110331297       -1.67453296004468
H            0.21124633798328       -2.38451371293875       -2.09606931445135
H           -0.44772759933376       -4.62621864373972        0.60794056255791
H           -1.40403953960699       -6.84019532667800        1.03322342927464
H           -3.80355128426904       -7.25563298553164        0.56424087028356
H           -5.19010895450497       -5.46989375775734       -0.35050477010109

          :  Hamiltonian                  GFN2-xTB          :
         :: gradient norm              0.000149561669 Eh/a0 ::
         :: HOMO-LUMO gap              0.383398302466 eV    ::
         :: SCC energy              -143.951135596898 Eh    ::
         :: -> dispersion             -0.146421220441 Eh    ::
         :: -> Gsolv                  -0.078595164958 Eh    ::
         :: repulsion energy           2.472396076005 Eh    ::

    * Orbital Energies and Occupations

         #    Occupation            Energy/Eh            Energy/eV
      -------------------------------------------------------------
         1        2.0000           -0.6882819             -18.7291
       ...           ...                  ...                  ...
       120        2.0000           -0.4146987             -11.2845
       121        2.0000           -0.4128171             -11.2333
       122        2.0000           -0.4096299             -11.1466
       123        2.0000           -0.4086525             -11.1200
       124        2.0000           -0.4066863             -11.0665
       125        2.0000           -0.4036295             -10.9833
       126        2.0000           -0.4006864             -10.9032
       127        2.0000           -0.3948575             -10.7446
       128        2.0000           -0.3747731             -10.1981
       129        1.9256           -0.3674736              -9.9995
       130        1.5559           -0.3652913              -9.9401
       131        1.5185           -0.3651482              -9.9362
       132        0.9994           -0.2828835              -7.6977 (HOMO)
       133        0.0006           -0.2687938              -7.3143 (LUMO)
       134                         -0.2445048              -6.6533
       135                         -0.2437032              -6.6315
       136                         -0.2368061              -6.4438
       137                         -0.2359727              -6.4211
       138                         -0.2358228              -6.4171
       139                         -0.2349455              -6.3932
       140                         -0.2337031              -6.3594
       141                         -0.2322804              -6.3207
       142                         -0.2292401              -6.2379
       143                         -0.2242151              -6.1012
       ...                                ...                  ...
       256                          0.6759586              18.3938
      -------------------------------------------------------------
                  HL-Gap            0.0140896 Eh            0.3834 eV

     #   Z          covCN         q      C6AA      α(0)
     1   6 C        3.761    -0.109    22.623     6.780
     2   6 C        3.909     0.024    20.106     6.373
     3   6 C        3.761    -0.108    22.612     6.779
     4   6 C        2.978    -0.000    28.032     8.685
     5   6 C        2.925    -0.032    28.807     8.802
     6   6 C        2.917    -0.032    28.800     8.800
     7   6 C        2.917    -0.027    28.684     8.783
     8   6 C        2.923    -0.048    29.195     8.861
     9   6 C        2.932     0.060    26.650     8.466
    10   7 N        2.755    -0.016    21.564     6.897
    11   6 C        2.930     0.045    26.999     8.521
    12   6 C        2.915    -0.040    28.994     8.830
    13   6 C        2.925    -0.026    28.644     8.777
    14   6 C        2.969    -0.024    28.606     8.773
    15   6 C        2.831     0.185    24.047     8.036
    16   8 O        0.857    -0.528    24.418     6.625
    17   6 C        2.970    -0.024    28.606     8.773
    18   6 C        2.920    -0.035    28.865     8.810
    19   6 C        2.917    -0.037    28.917     8.818
    20   6 C        2.915    -0.038    28.954     8.824
    21   6 C        2.921    -0.025    28.624     8.774
    22   6 C        2.973    -0.025    28.629     8.777
    23   6 C        2.831     0.205    23.659     7.971
    24   8 O        0.857    -0.496    23.700     6.527
    25   6 C        2.972    -0.003    28.094     8.694
    26   6 C        2.922    -0.031    28.778     8.797
    27   6 C        2.918    -0.042    29.041     8.837
    28   6 C        2.929     0.055    26.775     8.486
    29   7 N        2.754    -0.019    21.619     6.906
    30   6 C        2.927     0.061    26.641     8.464
    31   6 C        2.922    -0.048    29.192     8.860
    32   6 C        2.918    -0.027    28.671     8.781
    33   6 C        2.917    -0.031    28.770     8.796
    34   6 C        2.925    -0.032    28.808     8.802
    35   6 C        2.978    -0.000    28.030     8.684
    36   6 C        3.909     0.025    20.103     6.373
    37   6 C        3.760    -0.114    22.727     6.796
    38   6 C        3.762    -0.106    22.579     6.773
    39   6 C        2.979    -0.001    28.036     8.685
    40   6 C        2.925    -0.033    28.824     8.805
    41   6 C        2.917    -0.031    28.781     8.797
    42   6 C        2.918    -0.027    28.666     8.780
    43   6 C        2.922    -0.046    29.131     8.851
    44   6 C        2.930     0.061    26.630     8.463
    45   6 C        2.919    -0.035    28.882     8.813
    46   6 C        2.924    -0.016    28.422     8.743
    47   6 C        2.920    -0.038    28.938     8.821
    48   6 C        2.917    -0.040    28.987     8.829
    49   6 C        2.928     0.061    26.630     8.463
    50   6 C        2.922    -0.047    29.171     8.857
    51   6 C        2.917    -0.027    28.679     8.782
    52   6 C        2.917    -0.031    28.771     8.796
    53   6 C        2.925    -0.032    28.806     8.802
    54   6 C        2.978    -0.001    28.043     8.687
    55   1 H        0.925     0.054     2.276     2.359
    56   1 H        0.925     0.039     2.465     2.455
    57   1 H        0.925     0.052     2.292     2.367
    58   1 H        0.925     0.053     2.282     2.362
    59   1 H        0.925     0.052     2.296     2.370
    60   1 H        0.925     0.037     2.492     2.469
    61   1 H        0.926     0.053     2.282     2.362
    62   1 H        0.926     0.048     2.345     2.395
    63   1 H        0.926     0.039     2.461     2.453
    64   1 H        0.926     0.036     2.503     2.474
    65   1 H        0.926     0.044     2.393     2.419
    66   1 H        0.926     0.038     2.474     2.460
    67   1 H        0.925     0.030     2.584     2.514
    68   1 H        0.926     0.035     2.518     2.481
    69   1 H        0.926     0.032     2.552     2.498
    70   1 H        0.925     0.030     2.583     2.513
    71   1 H        0.926     0.037     2.493     2.469
    72   1 H        0.926     0.051     2.305     2.374
    73   1 H        0.926     0.039     2.467     2.456
    74   1 H        0.926     0.042     2.424     2.435
    75   1 H        0.926     0.046     2.374     2.409
    76   1 H        0.926     0.054     2.274     2.358
    77   1 H        0.925     0.046     2.375     2.410
    78   1 H        0.925     0.054     2.274     2.358
    79   1 H        0.925     0.053     2.286     2.365
    80   1 H        0.925     0.054     2.274     2.358
    81   1 H        0.925     0.035     2.522     2.484
    82   1 H        0.925     0.052     2.290     2.366
    83   1 H        0.926     0.055     2.258     2.350
    84   1 H        0.926     0.046     2.371     2.408
    85   1 H        0.926     0.040     2.447     2.446
    86   1 H        0.926     0.035     2.518     2.482
    87   1 H        0.926     0.046     2.372     2.409
    88   1 H        0.926     0.037     2.483     2.464
    89   1 H        0.926     0.037     2.495     2.470
    90   1 H        0.926     0.043     2.414     2.430
    91   1 H        0.926     0.041     2.437     2.441
    92   1 H        0.926     0.041     2.429     2.437
    93   1 H        0.926     0.044     2.393     2.419
    94   1 H        0.926     0.051     2.302     2.373

molecular dipole:
                 x           y           z       tot (Debye)
 q only:      -10.218      -0.152      -1.647
   full:       -9.667      -0.340      -1.622      24.929

 projected vibrational frequencies (cm⁻¹)
eigval :       -0.00    -0.00    -0.00     0.00     0.00     0.00
eigval :       11.02    12.38    20.16    23.20    30.33    34.83
eigval :       40.49    43.31    50.79    60.17    65.82    74.02
eigval :       78.41    85.87    99.57   100.93   105.72   113.10
eigval :      115.65   123.18   124.75   129.65   133.53   160.09
eigval :      163.21   172.04   185.63   196.64   198.95   211.81
eigval :      215.32   216.22   220.97   235.48   238.65   243.41
eigval :      261.86   291.62   297.39   303.83   313.92   321.54
eigval :      326.47   330.90   336.91   340.12   344.81   364.75
eigval :      370.80   377.73   380.20   382.26   384.66   392.31
eigval :      397.98   403.90   409.57   411.57   445.98   449.39
eigval :      450.57   462.58   466.45   483.47   503.43   504.54
eigval :      516.19   517.18   534.72   542.34   543.54   547.70
eigval :      554.37   563.11   573.00   581.01   585.39   588.16
eigval :      598.50   605.20   608.63   618.24   623.91   638.84
eigval :      654.50   659.62   682.38   688.14   688.18   692.09
eigval :      700.26   702.20   703.12   711.51   724.58   748.77
eigval :      762.80   772.03   774.21   774.50   778.76   780.72
eigval :      806.52   810.21   825.66   826.38   855.20   859.03
eigval :      870.97   872.42   873.08   873.99   876.26   883.83
eigval :      894.89   902.59   906.12   911.88   912.60   912.85
eigval :      914.98   915.56   916.16   917.04   918.62   922.97
eigval :      923.46   925.88   927.20   928.63   929.63   931.03
eigval :      936.46   938.28   946.14   958.02   958.12  1005.99
eigval :     1011.24  1011.68  1014.40  1072.64  1073.17  1080.07
eigval :     1082.18  1083.81  1103.71  1106.50  1106.91  1111.80
eigval :     1112.24  1126.26  1127.81  1137.62  1138.20  1144.21
eigval :     1145.70  1152.61  1164.21  1166.00  1169.07  1174.16
eigval :     1181.39  1182.04  1182.65  1183.95  1184.86  1188.68
eigval :     1205.41  1207.23  1229.15  1234.20  1235.92  1239.70
eigval :     1241.28  1242.78  1253.28  1256.81  1259.30  1259.50
eigval :     1261.22  1291.32  1291.65  1304.47  1305.66  1307.66
eigval :     1311.29  1319.04  1326.19  1326.41  1328.35  1333.76
eigval :     1334.42  1344.63  1391.56  1395.13  1396.38  1398.71
eigval :     1403.85  1414.44  1414.91  1415.38  1416.14  1420.33
eigval :     1426.82  1428.38  1428.65  1451.49  1452.17  1452.95
eigval :     1461.00  1472.11  1475.14  1479.69  1480.72  1481.07
eigval :     1482.05  1491.23  1492.58  1495.43  1496.34  1499.13
eigval :     1519.45  1533.09  1539.78  1548.69  1549.51  1554.01
eigval :     1559.93  1562.47  1570.30  1576.00  1576.09  1578.68
eigval :     1586.00  1587.16  3027.17  3027.75  3029.66  3045.34
eigval :     3049.38  3049.58  3051.25  3052.23  3054.05  3056.32
eigval :     3060.23  3060.82  3065.36  3066.00  3073.08  3075.95
eigval :     3077.75  3078.95  3079.61  3084.19  3084.58  3084.74
eigval :     3086.31  3086.49  3090.50  3091.20  3091.83  3092.49
eigval :     3093.08  3094.51  3094.74  3096.39  3101.68  3102.72
eigval :     3103.29  3106.04  3109.38  3110.34  3112.63  3114.55

   temp. (K)  partition function   enthalpy   heat capacity  entropy
                                   cal/mol     cal/K/mol   cal/K/mol   J/K/mol
 298.15  VIB  0.275E+21            27346.542    172.457    169.241
         ROT  0.829E+08              888.752      2.981     39.216
         INT  0.228E+29            28235.295    175.438    208.457
         TR   0.180E+29             1481.254      4.968     45.501
         TOT                       29716.5485   180.4058   253.9584  1062.5621

       T/K    H(0)-H(T)+PV         H(T)/Eh          T*S/Eh         G(T)/Eh
   ------------------------------------------------------------------------
    298.15    0.473563E-01    0.785736E+00    0.120664E+00    0.665073E+00
   ------------------------------------------------------------------------

         :::::::::::::::::::::::::::::::::::::::::::::::::::::
         ::                  THERMODYNAMIC                  ::
         :::::::::::::::::::::::::::::::::::::::::::::::::::::
         :: total free energy        -140.813666906416 Eh   ::
         ::.................................................::
         :: total energy             -141.478739517909 Eh   ::
         :: zero point energy           0.738380130738 Eh   ::
         :: G(RRHO) w/o ZPVE           -0.073307519245 Eh   ::
         :: G(RRHO) contrib.            0.665072611493 Eh   ::
         :::::::::::::::::::::::::::::::::::::::::::::::::::::

           -------------------------------------------------
          | TOTAL ENERGY             -141.478739517909 Eh   |
          | TOTAL ENTHALPY           -140.693003052712 Eh   |
          | TOTAL FREE ENERGY        -140.813666906416 Eh   |
          | GRADIENT NORM               0.000148366313 Eh/α |
          | HOMO-LUMO GAP               0.383398586635 eV   |
           -------------------------------------------------

 * finished run on 2025/08/23 at 02:21:08.993
