   * xtb version 6.7.1 (edcfbbe) compiled by 'albert@albert-system' on 2024-07-22

   ID    Z sym.   atoms
    1    6 C      1-8, 10-24, 26-38
    2    7 N      9, 25
    3    1 H      39-62

          program call               : xtb data2507/gas/mCBP/mCBP_gas_S0_crest.xyz --gfn 2 --ohess vtight --parallel 40 --molden --ceasefiles --namespace data2507/gas/mCBP/mCBP_gas_S0_finalOpt
          :  Hamiltonian                  GFN2-xTB          :
 * total energy  :   -95.2396699 Eh     change       -0.1217487E-08 Eh
 * total energy  :   -95.2396711 Eh     change       -0.1149678E-05 Eh
 * total energy  :   -95.2396718 Eh     change       -0.6921553E-06 Eh
 * total energy  :   -95.2396723 Eh     change       -0.5598790E-06 Eh
 * total energy  :   -95.2396728 Eh     change       -0.5082777E-06 Eh
 * total energy  :   -95.2396731 Eh     change       -0.2274506E-06 Eh
 * total energy  :   -95.2396731 Eh     change       -0.6776530E-07 Eh
   *** GEOMETRY OPTIMIZATION CONVERGED AFTER 7 ITERATIONS ***

 final structure:
================
62
 xtb: 6.7.1 (edcfbbe)
C            2.50613604841518       -3.61792724680364        1.46776848932326
C            1.22209249402572       -3.68874067961034        0.95662861304762
C            0.68833388342607       -2.60703049869977        0.26311109635532
C           -0.68808088066344       -2.60742988450386       -0.25517839195318
C           -1.22042849462504       -3.68907249167153       -0.94988435874825
C           -2.50370656484490       -3.61840926705157       -1.46295358958595
C           -3.27098497810552       -2.47890641679453       -1.29852740578692
C           -2.75813025157747       -1.40102068873751       -0.58146853849833
N           -3.50735373323885       -0.23449361354475       -0.38816574510475
C           -4.81622676301896       -0.16517492733062        0.04951901457200
C           -5.69252246285516       -1.18518859821791        0.39146738494790
C           -6.95555343502064       -0.83325650435691        0.82781805866208
C           -7.34395762608388        0.50010740434881        0.93471682191516
C           -6.46720985061480        1.52022379837838        0.62478994542596
C           -5.19220027525594        1.19122592962927        0.18438187186250
C           -4.04606004107307        1.97291375068555       -0.18670623343236
C           -3.80503248056453        3.33891673999225       -0.25532251311982
C           -2.56151674763691        3.77209600893956       -0.66969702467784
C           -1.57345044799795        2.86210405985196       -1.03853865023921
C           -1.79329282254846        1.49923571889858       -0.98422016156036
C           -3.02797937518539        1.05504445638527       -0.53144552978781
C           -1.47402108986243       -1.47867270447471       -0.05737515865384
C            1.47355072660538       -1.47785480556540        0.06477810995689
C            2.75875557635164       -1.40045479922590        0.58613485862562
N            3.50812120883910       -0.23436093347847        0.39039859600290
C            4.81451192317625       -0.16622851258618       -0.05472662280137
C            5.68815409337947       -1.18720981874755       -0.40049827053343
C            6.94884413319776       -0.83656374340643       -0.84455257778644
C            7.33742974584996        0.49645625793525       -0.95511503989172
C            6.46323339013475        1.51748826257535       -0.64100848371707
C            5.19056268779466        1.18981924791028       -0.19288449531985
C            4.04699832481424        1.97251822936632        0.18401782564222
C            3.80704566825211        3.33869278474545        0.25303228933580
C            2.56613429877948        3.77277361960608        0.67423634568303
C            1.57956153638873        2.86358121084612        1.04905408416531
C            1.79825769772834        1.50054937304919        0.99419456575298
C            3.03029396990324        1.05551522623940        0.53510433896446
C            3.27310372891222       -2.47840285705446        1.30197639698554
H            2.91009262707942       -4.45450721278842        2.01873657028068
H            0.62140148689928       -4.57158232301293        1.11594730112762
H           -0.61917256516450       -4.57160024057092       -1.10880633439805
H           -2.90664031162026       -4.45493769020793       -2.01475318231878
H           -4.25565149539634       -2.41406224954566       -1.73536791085692
H           -5.39748783780401       -2.22195624349863        0.33482572737629
H           -7.65606173579298       -1.61046256453268        1.09598342831334
H           -8.34154060016929        0.73374805068166        1.27576462115342
H           -6.76012377478026        2.55443721114085        0.72553771720151
H           -4.57875800989824        4.04348518750867        0.01022385171190
H           -2.35075057535338        4.82992058200431       -0.72189944479098
H           -0.61426774608651        3.22720520736313       -1.37527805777999
H           -1.02757228179076        0.80769817982878       -1.30098638923970
H           -1.09532529558840       -0.65888168634317        0.53403945964449
H            1.09367115672939       -0.65765254748003       -0.52532581523674
H            5.39272065019698       -2.22369882392287       -0.34080529102611
H            7.64731033646018       -1.61449131518733       -1.11592974979730
H            8.33309650062190        0.72909184652136       -1.30239906452249
H            6.75625121278534        2.55139040045609       -0.74463533165647
H            4.57961602830858        4.04271743304729       -0.01728529605881
H            2.35630459870174        4.83075494045877        0.72710027287047
H            0.62250350525334        3.22951507259902        1.39089323061261
H            1.03386884043696        0.80941969192139        1.31511138246233
H            4.25877061697096       -2.41361047446178        1.73658312329969

          :  Hamiltonian                  GFN2-xTB          :
         :: gradient norm              0.000032233474 Eh/a0 ::
         :: HOMO-LUMO gap              2.896259030227 eV    ::
         :: SCC energy               -97.064889962713 Eh    ::
         :: -> dispersion             -0.086731168455 Eh    ::
         :: repulsion energy           1.825216818541 Eh    ::

    * Orbital Energies and Occupations

         #    Occupation            Energy/Eh            Energy/eV
      -------------------------------------------------------------
         1        2.0000           -0.6750187             -18.3682
       ...           ...                  ...                  ...
        77        2.0000           -0.4173749             -11.3574
        78        2.0000           -0.4170068             -11.3473
        79        2.0000           -0.4166247             -11.3369
        80        2.0000           -0.4160747             -11.3220
        81        2.0000           -0.4123606             -11.2209
        82        2.0000           -0.4122603             -11.2182
        83        2.0000           -0.4036099             -10.9828
        84        2.0000           -0.4033838             -10.9766
        85        2.0000           -0.3976832             -10.8215
        86        2.0000           -0.3770825             -10.2609
        87        2.0000           -0.3766304             -10.2486
        88        2.0000           -0.3614341              -9.8351
        89        2.0000           -0.3612362              -9.8297 (HOMO)
        90                         -0.2548006              -6.9335 (LUMO)
        91                         -0.2450341              -6.6677
        92                         -0.2439549              -6.6384
        93                         -0.2344253              -6.3790
        94                         -0.2340151              -6.3679
        95                         -0.2203181              -5.9952
        96                         -0.2201562              -5.9908
        97                         -0.2136967              -5.8150
        98                         -0.1898519              -5.1661
        99                         -0.1853488              -5.0436
       100                         -0.1844965              -5.0204
       ...                                ...                  ...
       176                          0.7474760              20.3399
      -------------------------------------------------------------
                  HL-Gap            0.1064356 Eh            2.8963 eV

     #   Z          covCN         q      C6AA      α(0)
     1   6 C        2.919    -0.029    28.722     8.788
     2   6 C        2.922    -0.039    28.959     8.825
     3   6 C        2.979     0.012    27.747     8.641
     4   6 C        2.979     0.012    27.748     8.641
     5   6 C        2.922    -0.039    28.960     8.825
     6   6 C        2.919    -0.029    28.722     8.788
     7   6 C        2.921    -0.046    29.132     8.851
     8   6 C        2.911     0.065    26.546     8.448
     9   7 N        2.802    -0.044    22.087     6.980
    10   6 C        3.072     0.047    26.875     8.500
    11   6 C        2.910    -0.051    29.272     8.872
    12   6 C        2.924    -0.034    28.836     8.806
    13   6 C        2.920    -0.041    29.014     8.833
    14   6 C        2.913    -0.033    28.818     8.803
    15   6 C        3.068    -0.017    28.359     8.732
    16   6 C        3.067    -0.017    28.360     8.732
    17   6 C        2.913    -0.033    28.820     8.803
    18   6 C        2.920    -0.040    29.004     8.832
    19   6 C        2.923    -0.033    28.814     8.803
    20   6 C        2.910    -0.050    29.229     8.865
    21   6 C        3.074     0.046    26.882     8.501
    22   6 C        2.932    -0.049    29.209     8.863
    23   6 C        2.932    -0.049    29.208     8.863
    24   6 C        2.911     0.065    26.546     8.448
    25   7 N        2.802    -0.044    22.088     6.980
    26   6 C        3.073     0.047    26.875     8.500
    27   6 C        2.910    -0.051    29.272     8.872
    28   6 C        2.924    -0.034    28.836     8.806
    29   6 C        2.920    -0.041    29.014     8.833
    30   6 C        2.913    -0.033    28.818     8.803
    31   6 C        3.068    -0.017    28.359     8.732
    32   6 C        3.067    -0.017    28.361     8.732
    33   6 C        2.913    -0.033    28.820     8.803
    34   6 C        2.920    -0.040    29.005     8.832
    35   6 C        2.923    -0.033    28.814     8.803
    36   6 C        2.910    -0.049    29.229     8.865
    37   6 C        3.074     0.046    26.882     8.501
    38   6 C        2.921    -0.046    29.131     8.851
    39   1 H        0.926     0.036     2.497     2.471
    40   1 H        0.926     0.036     2.503     2.474
    41   1 H        0.926     0.036     2.503     2.474
    42   1 H        0.926     0.036     2.497     2.471
    43   1 H        0.926     0.041     2.431     2.438
    44   1 H        0.926     0.028     2.621     2.532
    45   1 H        0.926     0.029     2.607     2.525
    46   1 H        0.926     0.028     2.619     2.531
    47   1 H        0.926     0.031     2.575     2.509
    48   1 H        0.926     0.031     2.576     2.510
    49   1 H        0.926     0.028     2.615     2.529
    50   1 H        0.926     0.030     2.584     2.514
    51   1 H        0.926     0.025     2.658     2.550
    52   1 H        0.926     0.041     2.434     2.440
    53   1 H        0.926     0.041     2.435     2.440
    54   1 H        0.926     0.028     2.622     2.532
    55   1 H        0.926     0.029     2.607     2.525
    56   1 H        0.926     0.028     2.619     2.531
    57   1 H        0.926     0.031     2.575     2.510
    58   1 H        0.926     0.031     2.576     2.510
    59   1 H        0.926     0.028     2.615     2.529
    60   1 H        0.926     0.030     2.584     2.514
    61   1 H        0.926     0.025     2.659     2.550
    62   1 H        0.926     0.041     2.431     2.438

molecular dipole:
                 x           y           z       tot (Debye)
 q only:       -0.001      -0.711       0.001
   full:       -0.001      -0.851       0.001       2.162

 projected vibrational frequencies (cm⁻¹)
eigval :       -0.00    -0.00     0.00     0.00     0.00     0.00
eigval :       13.85    17.78    24.45    38.17    39.93    62.12
eigval :       77.21    81.50    98.01   107.24   113.94   143.14
eigval :      146.38   174.24   186.52   220.37   221.34   236.84
eigval :      239.87   271.68   272.44   280.37   300.99   301.79
eigval :      332.49   340.93   388.22   388.89   397.46   398.34
eigval :      423.47   423.63   434.48   438.53   444.24   457.28
eigval :      515.53   518.19   521.86   530.06   539.15   541.16
eigval :      541.83   570.54   586.37   590.70   591.13   608.48
eigval :      611.54   625.53   642.73   669.22   672.92   675.12
eigval :      680.54   684.61   707.80   709.26   724.15   755.24
eigval :      757.60   769.34   770.25   780.70   781.97   793.46
eigval :      807.54   810.22   868.18   868.46   871.63   872.10
eigval :      891.14   894.22   895.69   899.18   899.39   901.07
eigval :      904.47   905.86   906.64   914.95   921.72   922.10
eigval :      923.38   923.82   929.83   932.05   935.25   987.13
eigval :      999.76  1004.95  1011.68  1013.77  1070.97  1071.47
eigval :     1074.55  1075.26  1098.84  1119.08  1119.48  1125.35
eigval :     1126.53  1153.33  1153.46  1173.81  1176.91  1180.22
eigval :     1181.00  1181.30  1183.57  1192.97  1194.48  1232.33
eigval :     1235.68  1236.24  1243.71  1260.20  1260.67  1285.89
eigval :     1300.37  1301.87  1302.72  1304.98  1317.68  1323.88
eigval :     1355.38  1356.42  1360.18  1360.35  1361.92  1365.49
eigval :     1414.26  1420.07  1427.54  1427.89  1432.56  1451.75
eigval :     1475.81  1476.42  1476.64  1488.16  1488.31  1491.10
eigval :     1572.06  1573.13  1575.94  1578.96  1588.16  1588.49
eigval :     1588.77  1592.52  1599.30  1599.44  1614.86  1615.18
eigval :     3076.22  3076.28  3076.65  3077.04  3079.28  3080.06
eigval :     3081.41  3081.65  3082.71  3082.93  3088.67  3089.16
eigval :     3090.19  3090.77  3091.31  3093.34  3093.45  3095.47
eigval :     3095.55  3096.79  3097.07  3097.56  3100.50  3100.83

   temp. (K)  partition function   enthalpy   heat capacity  entropy
                                   cal/mol     cal/K/mol   cal/K/mol   J/K/mol
 298.15  VIB  0.393E+12            16182.901    108.251     97.831
         ROT  0.189E+08              888.752      2.981     36.277
         INT  0.742E+19            17071.654    111.232    134.108
         TR   0.103E+29             1481.254      4.968     44.402
         TOT                       18552.9076   116.1999   178.5102   746.8867

       T/K    H(0)-H(T)+PV         H(T)/Eh          T*S/Eh         G(T)/Eh
   ------------------------------------------------------------------------
    298.15    0.295659E-01    0.509603E+00    0.848160E-01    0.424787E+00
   ------------------------------------------------------------------------

         :::::::::::::::::::::::::::::::::::::::::::::::::::::
         ::                  THERMODYNAMIC                  ::
         :::::::::::::::::::::::::::::::::::::::::::::::::::::
         :: total free energy         -94.814885789283 Eh   ::
         ::.................................................::
         :: total energy              -95.239673144173 Eh   ::
         :: zero point energy           0.480037377035 Eh   ::
         :: G(RRHO) w/o ZPVE           -0.055250022145 Eh   ::
         :: G(RRHO) contrib.            0.424787354890 Eh   ::
         :::::::::::::::::::::::::::::::::::::::::::::::::::::

           -------------------------------------------------
          | TOTAL ENERGY              -95.239673144173 Eh   |
          | TOTAL ENTHALPY            -94.730069826946 Eh   |
          | TOTAL FREE ENERGY         -94.814885789283 Eh   |
          | GRADIENT NORM               0.000032237865 Eh/α |
          | HOMO-LUMO GAP               2.896259532395 eV   |
           -------------------------------------------------

 * finished run on 2025/09/14 at 03:16:54.374
