   * xtb version 6.7.1 (edcfbbe) compiled by 'albert@albert-system' on 2024-07-22

   ID    Z sym.   atoms
    1    6 C      1-8, 10-24, 26-38
    2    7 N      9, 25
    3    1 H      39-62

          program call               : xtb data2507/gas/mCBP/mCBP_gas_T1_crest.xyz --gfn 2 --spinpol --tblite --uhf 2 --ohess vtight --parallel 40 --molden --ceasefiles --namespace data2507/gas/mCBP/mCBP_gas_T1_finalOpt
 * total energy  :   -95.1343536 Eh     change        0.3488722E-07 Eh
 * total energy  :   -95.1344661 Eh     change       -0.1125460E-03 Eh
 * total energy  :   -95.1344995 Eh     change       -0.3334113E-04 Eh
 * total energy  :   -95.1345029 Eh     change       -0.3439711E-05 Eh
 * total energy  :   -95.1345053 Eh     change       -0.2405780E-05 Eh
 * total energy  :   -95.1345069 Eh     change       -0.1612137E-05 Eh
 * total energy  :   -95.1345084 Eh     change       -0.1476718E-05 Eh
 * total energy  :   -95.1345091 Eh     change       -0.6434750E-06 Eh
 * total energy  :   -95.1345093 Eh     change       -0.2683441E-06 Eh
 * total energy  :   -95.1345096 Eh     change       -0.2402658E-06 Eh
 * total energy  :   -95.1345098 Eh     change       -0.2336102E-06 Eh
 * total energy  :   -95.1345099 Eh     change       -0.1251335E-06 Eh
 * total energy  :   -95.1345100 Eh     change       -0.8719445E-07 Eh
   *** GEOMETRY OPTIMIZATION CONVERGED AFTER 13 ITERATIONS ***

 final structure:
================
62
 xtb: 6.7.1 (edcfbbe)
C            2.78489237107839       -3.82355791008096       -0.77244978707318
C            1.41964029962035       -3.81574611817266       -0.79240628399026
C            0.65835001594011       -2.60834867554451       -0.54746433240791
C           -0.74400006544547       -2.56908534231116       -0.61605404521596
C           -1.53292417840534       -3.68378596481695       -1.09796071489745
C           -2.88765165844551       -3.59625563406582       -1.24556165665585
C           -3.58512611849471       -2.43164063654164       -0.91819935204241
C           -2.84732350294231       -1.33877573555260       -0.38767354853565
N           -3.52818245202662       -0.16164225327517       -0.05168337076438
C           -4.69195325670870       -0.08354444195562        0.68297413671499
C           -5.41494781895682       -1.09446924860748        1.30268722542688
C           -6.55071838210846       -0.73797194228527        2.00499437778656
C           -6.95478338768525        0.59095225453988        2.10777889706182
C           -6.22099971458206        1.60561399020893        1.52113079004837
C           -5.07975792083832        1.27204963790873        0.80765155736076
C           -4.08737959107191        2.04369136941425        0.10989902373623
C           -3.92557506789068        3.40140234253363       -0.12278665995223
C           -2.83772857291181        3.82077601731911       -0.86570158818498
C           -1.93285591822870        2.90200170652755       -1.39180729733299
C           -2.07539975953808        1.54451799705531       -1.17602546396479
C           -3.14724583731386        1.11786650633616       -0.40245699376639
C           -1.49129108912544       -1.41071288028692       -0.23921173962126
C            1.43649401316092       -1.44735699906122       -0.24890108075081
C            2.80219680212408       -1.46760579719298       -0.24374915219515
N            3.51965563022962       -0.28453788379814       -0.02079178465091
C            3.27781748741401        0.93024552027425       -0.62872733491595
C            2.34739786064393        1.26345156113642       -1.60459175282790
C            2.33420168807638        2.56550090729501       -2.06719308667872
C            3.22666590570940        3.51874333736308       -1.58276066239983
C            4.17560116876077        3.18654067390774       -0.63390927190720
C            4.20913686276797        1.88521484331412       -0.15512552778482
C            5.04926295029277        1.20007088475689        0.78926418022962
C            6.11353860131717        1.59644841456066        1.58494905565792
C            6.69626461352260        0.66381757501931        2.42322584332641
C            6.21753062596985       -0.64269487970338        2.48605116033025
C            5.15576763111677       -1.06019894489473        1.70596548317094
C            4.58626877209379       -0.13667962153204        0.83915012158795
C            3.51924921020160       -2.66405033571667       -0.51476748527734
H            3.31717576490561       -4.74468522843760       -0.96405780966814
H            0.89847251039194       -4.74012611120170       -0.97635958973339
H           -1.03957597109179       -4.60007804456269       -1.37508021129245
H           -3.43931160292727       -4.44219979297962       -1.63100194393379
H           -4.64148798716853       -2.33560093033583       -1.10531084900746
H           -5.09407527822622       -2.12348100347847        1.24975456137962
H           -7.13339145275458       -1.50617896746982        2.49127816693833
H           -7.84806258540155        0.82951395680540        2.66548305625647
H           -6.52449429537777        2.63701742185374        1.61850896454370
H           -4.63819247749444        4.11225268442134        0.26736869214010
H           -2.68965925372808        4.87401782102928       -1.05174014956296
H           -1.10104727843194        3.25760483304875       -1.98122063516173
H           -1.38133881910679        0.84013461765287       -1.60766246599407
H           -0.98798974523236       -0.57256246101038        0.21419805848578
H            0.94642889819624       -0.51398693768266       -0.02553451690374
H            1.66655770303004        0.52669887581008       -2.00232424713636
H            1.61962207827295        2.84817001366103       -2.82605756060652
H            3.18149903969733        4.52757323177627       -1.96511881632126
H            4.88103834138542        3.92042518413830       -0.27457265558477
H            6.47396867849958        2.61349064984770        1.55134993081719
H            7.52776349603125        0.95190331597942        3.04895528395887
H            6.68151140935982       -1.34293793139611        3.16467019566591
H            4.77440735800229       -2.06723381279900        1.77771640666582
H            4.59470180044855       -2.65231972804532       -0.57374443018978

 projected vibrational frequencies (cm⁻¹)
eigval :       -0.00    -0.00    -0.00     0.00     0.00     0.00
eigval :        9.21    16.76    20.02    34.40    42.49    59.56
eigval :       68.60    87.05   100.62   103.84   116.91   133.49
eigval :      146.15   156.64   179.12   185.94   212.67   215.04
eigval :      241.87   264.85   271.28   271.91   294.83   295.69
eigval :      341.55   352.89   360.47   387.97   392.28   394.45
eigval :      401.70   421.47   422.24   436.52   437.47   452.64
eigval :      477.79   510.37   516.66   517.21   537.50   538.06
eigval :      540.01   545.88   571.78   575.44   585.06   587.77
eigval :      597.13   605.21   606.77   620.32   622.84   672.25
eigval :      674.71   676.38   703.96   706.64   708.01   709.87
eigval :      713.29   753.71   755.90   767.58   768.50   771.91
eigval :      776.15   779.85   780.48   792.81   820.70   833.98
eigval :      872.37   872.88   873.54   878.29   894.68   895.71
eigval :      897.83   901.05   902.93   903.71   904.24   906.02
eigval :      910.86   918.84   920.76   921.50   923.08   923.48
eigval :      941.27   996.97  1008.19  1013.05  1023.84  1068.47
eigval :     1068.79  1071.12  1072.64  1096.83  1107.23  1110.22
eigval :     1123.83  1144.78  1147.31  1160.81  1168.69  1169.80
eigval :     1172.56  1177.89  1180.45  1180.98  1185.98  1230.32
eigval :     1231.70  1233.22  1234.56  1243.24  1244.60  1276.96
eigval :     1288.51  1292.46  1292.91  1298.71  1313.83  1328.53
eigval :     1339.09  1349.81  1350.32  1358.61  1358.99  1360.91
eigval :     1364.83  1376.70  1379.17  1416.59  1416.97  1426.60
eigval :     1429.74  1453.47  1464.82  1466.33  1467.58  1484.19
eigval :     1484.76  1506.73  1523.88  1562.10  1568.51  1569.84
eigval :     1581.35  1581.78  1583.90  1584.47  1603.25  1603.47
eigval :     3068.70  3069.37  3078.11  3079.45  3079.53  3080.53
eigval :     3083.99  3084.96  3085.59  3086.70  3091.98  3092.60
eigval :     3093.48  3094.49  3097.06  3097.97  3098.42  3099.85
eigval :     3101.87  3106.99  3111.48  3111.71  3115.61  3120.92

   temp. (K)  partition function   enthalpy   heat capacity  entropy
                                   cal/mol     cal/K/mol   cal/K/mol   J/K/mol
 298.15  VIB  0.150E+13            16639.864    110.853    101.115
         ROT  0.403E+08              888.752      2.981     37.782
         INT  0.606E+20            17528.616    113.834    138.896
         TR   0.103E+29             1481.254      4.968     44.402
         TOT                       19009.8701   118.8023   183.2983   766.9203

       T/K    H(0)-H(T)+PV         H(T)/Eh          T*S/Eh         G(T)/Eh
   ------------------------------------------------------------------------
    298.15    0.302942E-01    0.505124E+00    0.870910E-01    0.418033E+00
   ------------------------------------------------------------------------

         :::::::::::::::::::::::::::::::::::::::::::::::::::::
         ::                  THERMODYNAMIC                  ::
         :::::::::::::::::::::::::::::::::::::::::::::::::::::
         :: total free energy         -94.716477009256 Eh   ::
         ::.................................................::
         :: total energy              -95.134510030532 Eh   ::
         :: zero point energy           0.474829824583 Eh   ::
         :: G(RRHO) w/o ZPVE           -0.056796803307 Eh   ::
         :: G(RRHO) contrib.            0.418033021276 Eh   ::
         :::::::::::::::::::::::::::::::::::::::::::::::::::::

           -------------------------------------------------
          | TOTAL ENERGY              -95.134510030532 Eh   |
          | TOTAL ENTHALPY            -94.629386049607 Eh   |
          | TOTAL FREE ENERGY         -94.716477009256 Eh   |
          | GRADIENT NORM               0.000047735584 Eh/α |
           -------------------------------------------------

 * finished run on 2025/09/14 at 03:21:10.586
