   * xtb version 6.7.1 (edcfbbe) compiled by 'albert@albert-system' on 2024-07-22

   ID    Z sym.   atoms
    1    6 C      1-8, 10-24, 26-38
    2    7 N      9, 25
    3    1 H      39-62

          program call               : xtb data2507/gas/mCBP/mCBP.xyz --gfn 2 --ohess vtight --parallel 40 --molden --ceasefiles --namespace data2507/gas/mCBP/mCBP_gas_S0_preOpt
          :  Hamiltonian                  GFN2-xTB          :
 * total energy  :   -95.2238977 Eh     change       -0.1413056E-08 Eh
 * total energy  :   -95.2360624 Eh     change       -0.1216466E-01 Eh
 * total energy  :   -95.2384778 Eh     change       -0.2415434E-02 Eh
 * total energy  :   -95.2388261 Eh     change       -0.3482839E-03 Eh
 * total energy  :   -95.2390285 Eh     change       -0.2023970E-03 Eh
 * total energy  :   -95.2391115 Eh     change       -0.8302082E-04 Eh
 * total energy  :   -95.2391955 Eh     change       -0.8394171E-04 Eh
 * total energy  :   -95.2392619 Eh     change       -0.6638792E-04 Eh
 * total energy  :   -95.2393177 Eh     change       -0.5579193E-04 Eh
 * total energy  :   -95.2393441 Eh     change       -0.2646105E-04 Eh
 * total energy  :   -95.2396361 Eh     change       -0.2990489E-05 Eh
 * total energy  :   -95.2396384 Eh     change       -0.2357229E-05 Eh
 * total energy  :   -95.2396404 Eh     change       -0.1971570E-05 Eh
 * total energy  :   -95.2396424 Eh     change       -0.1985936E-05 Eh
 * total energy  :   -95.2396444 Eh     change       -0.2017125E-05 Eh
 * total energy  :   -95.2396464 Eh     change       -0.1952299E-05 Eh
 * total energy  :   -95.2396480 Eh     change       -0.1606712E-05 Eh
 * total energy  :   -95.2396492 Eh     change       -0.1175905E-05 Eh
 * total energy  :   -95.2396492 Eh     change       -0.6167696E-08 Eh
   *** GEOMETRY OPTIMIZATION CONVERGED AFTER 44 ITERATIONS ***

 final structure:
================
62
 xtb: 6.7.1 (edcfbbe)
C            2.47929989036278       -3.59806374449784        1.50738967884527
C            1.20220974074244       -3.66615153089284        0.97886123710708
C            0.68483379794264       -2.58776355544025        0.26817464449267
C           -0.68482892520464       -2.58776960617427       -0.26820170246123
C           -1.20219260421311       -3.66615663516179       -0.97889915858444
C           -2.47928139551085       -3.59807553746581       -1.50743197305982
C           -3.25583657339029       -2.46562025782170       -1.33879749439224
C           -2.75863207649604       -1.39212614302464       -0.60421487887016
N           -3.52329443828739       -0.23722566080624       -0.40182177405421
C           -4.83595747090988       -0.19290679394567        0.02774214494504
C           -5.69823391466412       -1.23037108396532        0.35242164990849
C           -6.96929953641649       -0.90323912433847        0.78457448581016
C           -7.37911241132329        0.42265239477070        0.90391100949724
C           -6.51647352155913        1.45980961851887        0.61138319034704
C           -5.23358299696635        1.15585195773984        0.17575818102897
C           -4.09689880407150        1.95904289807673       -0.17822422705860
C           -3.87620944596116        3.32920512515263       -0.22941241416902
C           -2.63653788156004        3.78588096376703       -0.62989648447297
C           -1.63185139279897        2.89525697435842       -1.00116985096457
C           -1.83095213092808        1.52859636791448       -0.96353916813238
C           -3.06238492133259        1.06076783162967       -0.52605956784875
C           -1.47861934471605       -1.46486196768471       -0.06939068938741
C            1.47861182939416       -1.46484501456505        0.06937275998939
C            2.75862723118966       -1.39210477283031        0.60418914908803
N            3.52328429913714       -0.23719931361778        0.40180027795146
C            4.83594475955031       -0.19287619054162       -0.02777023574869
C            5.69821365392164       -1.23033619882015       -0.35248246011867
C            6.96928475622957       -0.90319939839094       -0.78461606130642
C            7.37911654825389        0.42269243758144       -0.90388186160750
C            6.51648872292548        1.45984682161969       -0.61131052757644
C            5.23358704184047        1.15588487800152       -0.17572196656022
C            4.09688964364972        1.95907131005736        0.17822925639939
C            3.87619804667605        3.32923258278140        0.22942395886753
C            2.63653502983050        3.78590498280680        0.62993959660401
C            1.63185664302813        2.89527772864098        1.00122645949687
C            1.83095355290180        1.52861692172468        0.96357171066152
C            3.06238163623404        1.06079274267217        0.52607539794487
C            3.25584523926850       -2.46560155627922        1.33875838242378
H            2.87021947026666       -4.43103838348784        2.07301041077101
H            0.59368954692113       -4.54375688048519        1.13749365029154
H           -0.59366627236965       -4.54375746456790       -1.13753218737979
H           -2.87019700567889       -4.43105489810893       -2.07304857427820
H           -4.23636979170339       -2.40253187260738       -1.78512827415006
H           -5.38641609064414       -2.26164423037134        0.28600492042204
H           -7.65915901254318       -1.69430067751818        1.03951152254996
H           -8.38241108696178        0.63678251232435        1.24097149353275
H           -6.82629658409456        2.48805072251077        0.72213936438213
H           -4.66238404316862        4.01890330579870        0.03859855760253
H           -2.44178828721020        4.84735836339098       -0.66876110707684
H           -0.67602346583745        3.27871871639592       -1.32692961454045
H           -1.05198849129963        0.85227959237965       -1.28093458696173
H           -1.10997844274009       -0.64790121882116        0.53232817231527
H            1.10996446249608       -0.64788580687488       -0.53234460458587
H            5.38640395058072       -2.26161112018360       -0.28605269832060
H            7.65915035142082       -1.69425871409729       -1.03954436392864
H            8.38240516607188        0.63682643052875       -1.24097047777791
H            6.82629342871797        2.48808883057385       -0.72211098627422
H            4.66239856509835        4.01893457069040       -0.03850103414021
H            2.44180328494747        4.84738339261466        0.66886657124862
H            0.67602143549767        3.27873580361695        1.32696934912394
H            1.05197151471182        0.85229550571465        1.28091228989628
H            4.23637712072917       -2.40250493096247        1.78509153224126

          :  Hamiltonian                  GFN2-xTB          :
         :: gradient norm              0.000061416196 Eh/a0 ::
         :: HOMO-LUMO gap              2.907431305088 eV    ::
         :: SCC energy               -97.064927588182 Eh    ::
         :: -> dispersion             -0.086554544439 Eh    ::
         :: repulsion energy           1.825278429479 Eh    ::

    * Orbital Energies and Occupations

         #    Occupation            Energy/Eh            Energy/eV
      -------------------------------------------------------------
         1        2.0000           -0.6750381             -18.3687
       ...           ...                  ...                  ...
        77        2.0000           -0.4174022             -11.3581
        78        2.0000           -0.4170402             -11.3482
        79        2.0000           -0.4167342             -11.3399
        80        2.0000           -0.4160280             -11.3207
        81        2.0000           -0.4124000             -11.2220
        82        2.0000           -0.4123347             -11.2202
        83        2.0000           -0.4036258             -10.9832
        84        2.0000           -0.4034141             -10.9775
        85        2.0000           -0.3979144             -10.8278
        86        2.0000           -0.3770678             -10.2605
        87        2.0000           -0.3767023             -10.2506
        88        2.0000           -0.3614622              -9.8359
        89        2.0000           -0.3612410              -9.8299 (HOMO)
        90                         -0.2543948              -6.9224 (LUMO)
        91                         -0.2450359              -6.6678
        92                         -0.2439993              -6.6396
        93                         -0.2344932              -6.3809
        94                         -0.2340038              -6.3676
        95                         -0.2203243              -5.9953
        96                         -0.2201894              -5.9917
        97                         -0.2141291              -5.8267
        98                         -0.1898718              -5.1667
        99                         -0.1854538              -5.0465
       100                         -0.1844712              -5.0197
       ...                                ...                  ...
       176                          0.7474741              20.3398
      -------------------------------------------------------------
                  HL-Gap            0.1068461 Eh            2.9074 eV

     #   Z          covCN         q      C6AA      α(0)
     1   6 C        2.919    -0.029    28.721     8.788
     2   6 C        2.922    -0.039    28.959     8.825
     3   6 C        2.979     0.012    27.746     8.640
     4   6 C        2.979     0.012    27.746     8.640
     5   6 C        2.922    -0.039    28.959     8.825
     6   6 C        2.919    -0.029    28.721     8.788
     7   6 C        2.921    -0.046    29.132     8.851
     8   6 C        2.911     0.065    26.545     8.448
     9   7 N        2.802    -0.044    22.087     6.980
    10   6 C        3.073     0.047    26.876     8.500
    11   6 C        2.910    -0.051    29.272     8.872
    12   6 C        2.924    -0.034    28.836     8.806
    13   6 C        2.920    -0.041    29.014     8.833
    14   6 C        2.913    -0.033    28.818     8.803
    15   6 C        3.068    -0.017    28.359     8.732
    16   6 C        3.067    -0.017    28.360     8.732
    17   6 C        2.912    -0.033    28.820     8.803
    18   6 C        2.920    -0.040    29.006     8.832
    19   6 C        2.923    -0.033    28.818     8.803
    20   6 C        2.910    -0.050    29.231     8.865
    21   6 C        3.073     0.046    26.882     8.501
    22   6 C        2.932    -0.049    29.206     8.863
    23   6 C        2.932    -0.049    29.206     8.863
    24   6 C        2.911     0.065    26.545     8.448
    25   7 N        2.802    -0.044    22.087     6.980
    26   6 C        3.073     0.047    26.876     8.500
    27   6 C        2.910    -0.051    29.272     8.872
    28   6 C        2.924    -0.034    28.836     8.806
    29   6 C        2.920    -0.041    29.014     8.833
    30   6 C        2.913    -0.033    28.818     8.803
    31   6 C        3.068    -0.017    28.359     8.732
    32   6 C        3.067    -0.017    28.360     8.732
    33   6 C        2.912    -0.033    28.820     8.803
    34   6 C        2.920    -0.040    29.006     8.832
    35   6 C        2.923    -0.033    28.818     8.803
    36   6 C        2.910    -0.050    29.231     8.865
    37   6 C        3.073     0.046    26.882     8.501
    38   6 C        2.921    -0.046    29.132     8.851
    39   1 H        0.926     0.036     2.496     2.471
    40   1 H        0.926     0.036     2.504     2.474
    41   1 H        0.926     0.036     2.504     2.474
    42   1 H        0.926     0.036     2.496     2.471
    43   1 H        0.926     0.041     2.430     2.438
    44   1 H        0.926     0.028     2.621     2.532
    45   1 H        0.926     0.029     2.607     2.525
    46   1 H        0.926     0.028     2.619     2.531
    47   1 H        0.926     0.031     2.575     2.509
    48   1 H        0.926     0.031     2.576     2.510
    49   1 H        0.926     0.028     2.616     2.529
    50   1 H        0.926     0.030     2.582     2.513
    51   1 H        0.926     0.025     2.656     2.549
    52   1 H        0.926     0.041     2.437     2.441
    53   1 H        0.926     0.041     2.437     2.441
    54   1 H        0.926     0.028     2.621     2.532
    55   1 H        0.926     0.029     2.607     2.525
    56   1 H        0.926     0.028     2.619     2.531
    57   1 H        0.926     0.031     2.575     2.509
    58   1 H        0.926     0.031     2.576     2.510
    59   1 H        0.926     0.028     2.616     2.529
    60   1 H        0.926     0.030     2.582     2.513
    61   1 H        0.926     0.025     2.656     2.549
    62   1 H        0.926     0.041     2.430     2.438

molecular dipole:
                 x           y           z       tot (Debye)
 q only:       -0.000      -0.707       0.000
   full:       -0.000      -0.846       0.000       2.150

 projected vibrational frequencies (cm⁻¹)
eigval :       -0.00    -0.00     0.00     0.00     0.00     0.00
eigval :       13.55    17.74    24.64    38.05    39.90    62.03
eigval :       77.25    80.80    97.42   107.47   113.99   143.12
eigval :      146.26   174.44   186.39   219.39   221.85   236.58
eigval :      239.96   271.84   272.39   280.74   300.33   300.72
eigval :      332.48   340.55   387.97   388.35   397.31   398.38
eigval :      423.42   423.60   434.33   438.46   443.85   456.71
eigval :      515.88   518.17   522.34   530.06   539.24   541.17
eigval :      541.91   570.51   586.43   590.81   591.10   608.65
eigval :      611.44   625.91   642.58   669.29   672.85   675.11
eigval :      680.41   684.78   707.80   709.27   724.20   755.21
eigval :      757.57   769.32   770.43   780.66   782.27   793.74
eigval :      807.53   810.27   868.14   868.48   871.66   872.18
eigval :      891.15   894.30   895.72   899.25   899.47   901.27
eigval :      904.54   905.81   906.89   914.45   921.73   922.14
eigval :      923.23   923.86   930.05   932.28   935.10   987.19
eigval :      999.71  1004.69  1011.71  1013.63  1070.93  1071.45
eigval :     1074.55  1075.19  1098.74  1119.06  1119.24  1125.68
eigval :     1126.58  1153.31  1153.45  1173.55  1176.87  1180.30
eigval :     1180.95  1181.25  1183.33  1192.72  1194.44  1232.13
eigval :     1235.72  1236.29  1243.67  1259.99  1260.04  1285.92
eigval :     1300.29  1301.84  1302.81  1305.05  1317.67  1323.54
eigval :     1355.38  1356.37  1360.19  1360.38  1361.97  1365.68
eigval :     1414.59  1420.12  1427.61  1427.92  1432.60  1452.30
eigval :     1475.72  1476.32  1476.65  1488.14  1488.31  1491.00
eigval :     1572.15  1573.12  1576.00  1578.99  1588.17  1588.78
eigval :     1588.85  1592.52  1599.30  1599.42  1614.84  1615.17
eigval :     3076.17  3076.26  3076.55  3076.88  3079.33  3080.09
eigval :     3081.42  3081.60  3082.71  3082.88  3088.68  3089.11
eigval :     3090.17  3090.73  3091.27  3092.96  3093.22  3095.32
eigval :     3095.42  3096.49  3097.03  3097.27  3100.44  3100.75

   temp. (K)  partition function   enthalpy   heat capacity  entropy
                                   cal/mol     cal/K/mol   cal/K/mol   J/K/mol
 298.15  VIB  0.407E+12            16187.155    108.249     97.887
         ROT  0.190E+08              888.752      2.981     36.292
         INT  0.775E+19            17075.907    111.230    134.179
         TR   0.103E+29             1481.254      4.968     44.402
         TOT                       18557.1610   116.1977   178.5812   747.1836

       T/K    H(0)-H(T)+PV         H(T)/Eh          T*S/Eh         G(T)/Eh
   ------------------------------------------------------------------------
    298.15    0.295727E-01    0.509595E+00    0.848497E-01    0.424746E+00
   ------------------------------------------------------------------------

         :::::::::::::::::::::::::::::::::::::::::::::::::::::
         ::                  THERMODYNAMIC                  ::
         :::::::::::::::::::::::::::::::::::::::::::::::::::::
         :: total free energy         -94.814903377183 Eh   ::
         ::.................................................::
         :: total energy              -95.239649158703 Eh   ::
         :: zero point energy           0.480022738919 Eh   ::
         :: G(RRHO) w/o ZPVE           -0.055276957398 Eh   ::
         :: G(RRHO) contrib.            0.424745781521 Eh   ::
         :::::::::::::::::::::::::::::::::::::::::::::::::::::

           -------------------------------------------------
          | TOTAL ENERGY              -95.239649158703 Eh   |
          | TOTAL ENTHALPY            -94.730053701306 Eh   |
          | TOTAL FREE ENERGY         -94.814903377183 Eh   |
          | GRADIENT NORM               0.000061417149 Eh/α |
          | HOMO-LUMO GAP               2.907430942445 eV   |
           -------------------------------------------------

 * finished run on 2025/09/14 at 03:14:17.855
