   * xtb version 6.7.1 (edcfbbe) compiled by 'albert@albert-system' on 2024-07-22

   ID    Z sym.   atoms
    1    6 C      1-8, 10-24, 26-38
    2    7 N      9, 25
    3    1 H      39-62

          program call               : xtb data2507/gas/mCBP/mCBP_gas_S0_finalOpt.xtbopt.xyz --gfn 2 --spinpol --tblite --uhf 2 --ohess vtight --parallel 40 --molden --ceasefiles --namespace data2507/gas/mCBP/mCBP_gas_T1_preOpt
 * total energy  :   -95.1280269 Eh     change        0.1313960E-07 Eh
 * total energy  :   -95.1297304 Eh     change       -0.1703532E-02 Eh
 * total energy  :   -95.1303392 Eh     change       -0.6087938E-03 Eh
 * total energy  :   -95.1305600 Eh     change       -0.2208473E-03 Eh
 * total energy  :   -95.1308634 Eh     change       -0.3033420E-03 Eh
 * total energy  :   -95.1311812 Eh     change       -0.3178260E-03 Eh
 * total energy  :   -95.1317525 Eh     change       -0.5713206E-03 Eh
 * total energy  :   -95.1316309 Eh     change        0.1216168E-03 Eh
 * total energy  :   -95.1321752 Eh     change       -0.5442654E-03 Eh
 * total energy  :   -95.1322478 Eh     change       -0.7259713E-04 Eh
 * total energy  :   -95.1339945 Eh     change       -0.3160355E-05 Eh
 * total energy  :   -95.1340000 Eh     change       -0.5546356E-05 Eh
 * total energy  :   -95.1340076 Eh     change       -0.7580523E-05 Eh
 * total energy  :   -95.1340134 Eh     change       -0.5773987E-05 Eh
 * total energy  :   -95.1340159 Eh     change       -0.2552618E-05 Eh
 * total energy  :   -95.1340172 Eh     change       -0.1272209E-05 Eh
 * total energy  :   -95.1340180 Eh     change       -0.8525140E-06 Eh
 * total energy  :   -95.1340180 Eh     change        0.3321992E-07 Eh
 * total energy  :   -95.1340180 Eh     change       -0.4061265E-07 Eh
   *** GEOMETRY OPTIMIZATION CONVERGED AFTER 69 ITERATIONS ***

 final structure:
================
62
 xtb: 6.7.1 (edcfbbe)
C            2.73238163821678       -3.79215856608728        0.78426546064157
C            1.39886426595020       -3.80174478785088        0.49081198444742
C            0.68227329849254       -2.58713752907870        0.16683178971324
C           -0.68374861015448       -2.58776590440082       -0.16600206843962
C           -1.39898103833520       -3.80259037609909       -0.49205069165531
C           -2.73244340306406       -3.79393597862123       -0.78588861127985
C           -3.47277824045320       -2.61029586796554       -0.77404503219983
C           -2.80236846250050       -1.40261468578528       -0.43809932744874
N           -3.53898199762515       -0.21165784225618       -0.41114159825470
C           -4.75188503501758       -0.03458189387724        0.21993518273435
C           -5.48248442886280       -0.92587108899858        0.99478583266131
C           -6.67485734426184       -0.48317893837596        1.53580815697797
C           -7.12784049689443        0.81773873604517        1.33004692197328
C           -6.38945531976747        1.71967136784649        0.58605099654455
C           -5.19155743061184        1.29734704701537        0.02963829073610
C           -4.18042506285222        1.94936486890496       -0.75743014981338
C           -4.04921082982934        3.23185394154895       -1.26885637583091
C           -2.93003921238767        3.53222218814111       -2.02286838401708
C           -1.96142937949811        2.56600334797871       -2.28417314765327
C           -2.07069086560109        1.28158299070041       -1.78566223822990
C           -3.17751597417893        0.98095803878465       -1.00289108352821
C           -1.46303496113746       -1.39200039659440       -0.16493545237842
C            1.46031808202399       -1.39047557222911        0.16686928776227
C            2.79989753596959       -1.40029598692175        0.43869900957676
N            3.53680909066080       -0.20953267523202        0.41055372514504
C            4.74931015638063       -0.03465795631034       -0.22191761384192
C            5.47683290574686       -0.92712995100049       -0.99831955897688
C            6.66948910325948       -0.48683135053610       -1.54062618960362
C            7.12568937731470        0.81293187762198       -1.33463946624263
C            6.39023410425627        1.71613627906628       -0.58926883640254
C            5.19205999791174        1.29620702978845       -0.03162374388355
C            4.18311292233467        1.95003734141709        0.75672543593923
C            4.05531821864253        3.23264821382329        1.26867242382569
C            2.93743925335021        3.53539058325018        2.02363985394078
C            1.96670966182799        2.57137561218287        2.28520415878804
C            2.07263501113025        1.28679841261667        1.78630543669162
C            3.17827954881814        0.98372067917753        1.00283199484814
C            3.47147201439858       -2.60775909761125        0.77345964502507
H            3.23126903887581       -4.71566271133868        1.04237880671182
H            0.85788783420268       -4.73202697463335        0.54192558678232
H           -0.85706156776849       -4.73225285026653       -0.54453289341827
H           -3.23024886764294       -4.71762436980301       -1.04543241674350
H           -4.50866065212901       -2.59065809809364       -1.06892487279954
H           -5.12550430235300       -1.92746021019925        1.17949651084424
H           -7.26442075670263       -1.15870023346940        2.13766485866943
H           -8.06445074102170        1.12634553824601        1.76988525252135
H           -6.73299948403596        2.73304462347621        0.44309087289227
H           -4.80942931410644        3.97558267010152       -1.08366109263371
H           -2.80643845896038        4.52626582177669       -2.42594036538981
H           -1.10703396506982        2.82508346527490       -2.89163936056594
H           -1.32582625183319        0.53384662913417       -2.01081678630022
H           -1.00907948667594       -0.45975421008515        0.13156973344238
H            1.00524626043323       -0.45833277134137       -0.12825912937476
H            5.11722494479400       -1.92773598154341       -1.18325528231659
H            7.25666655401193       -1.16330452033497       -2.14373444105017
H            8.06245430214131        1.11964802625950       -1.77545133942255
H            6.73625993785040        2.72864095149108       -0.44620248550782
H            4.81714828638964        3.97463588672147        1.08308301192262
H            2.81650713500513        4.52958749311427        2.42716039551455
H            1.11328724236429        2.83235602924042        2.89322127599842
H            1.32607244335632        0.54083287264725        2.01168637190618
H            4.50740269418603       -2.58732576271985        1.06812551632288

 projected vibrational frequencies (cm⁻¹)
eigval :       -0.00    -0.00     0.00     0.00     0.00     0.00
eigval :       10.02    14.64    17.87    34.73    42.41    60.54
eigval :       81.46    86.31    96.90   103.96   112.56   136.64
eigval :      145.56   167.58   175.05   182.10   208.36   231.98
eigval :      236.19   266.42   270.37   274.22   294.83   296.94
eigval :      341.57   347.75   359.68   388.29   393.15   393.41
eigval :      404.46   421.67   421.91   436.02   436.99   456.68
eigval :      476.51   512.33   516.38   518.54   537.38   537.75
eigval :      539.91   554.24   555.84   582.40   585.51   591.29
eigval :      600.83   603.64   609.07   621.69   622.06   673.04
eigval :      674.37   676.09   701.61   707.85   709.69   713.66
eigval :      714.24   753.42   756.20   768.45   769.55   773.63
eigval :      778.03   780.30   785.64   793.28   834.36   835.85
eigval :      872.83   872.99   875.74   876.38   895.40   896.02
eigval :      899.78   901.72   903.48   903.74   905.20   905.23
eigval :      910.87   919.39   921.33   922.09   922.18   923.44
eigval :      942.06   994.96  1008.99  1012.62  1024.05  1068.34
eigval :     1068.40  1070.91  1071.74  1096.81  1108.35  1108.81
eigval :     1124.06  1145.68  1146.20  1159.93  1165.52  1169.84
eigval :     1172.31  1179.70  1179.94  1181.99  1183.76  1229.66
eigval :     1232.10  1232.39  1233.47  1240.07  1243.92  1274.02
eigval :     1286.25  1292.20  1293.01  1298.51  1308.47  1325.16
eigval :     1339.09  1349.61  1349.79  1352.90  1359.41  1360.96
eigval :     1365.44  1375.60  1379.33  1416.36  1416.63  1426.88
eigval :     1429.64  1446.99  1464.76  1465.72  1467.71  1484.12
eigval :     1484.44  1504.54  1520.93  1553.37  1568.34  1568.77
eigval :     1581.22  1581.42  1583.84  1584.11  1602.03  1602.46
eigval :     3069.25  3069.91  3079.29  3079.33  3079.83  3079.84
eigval :     3084.44  3084.50  3085.87  3085.91  3091.72  3092.09
eigval :     3093.02  3093.66  3094.68  3097.73  3097.76  3098.31
eigval :     3099.17  3104.12  3105.20  3110.27  3110.33  3116.15

   temp. (K)  partition function   enthalpy   heat capacity  entropy
                                   cal/mol     cal/K/mol   cal/K/mol   J/K/mol
 298.15  VIB  0.150E+13            16612.674    110.856    100.960
         ROT  0.202E+08              888.752      2.981     36.412
         INT  0.303E+20            17501.426    113.837    137.372
         TR   0.103E+29             1481.254      4.968     44.402
         TOT                       18982.6799   118.8050   181.7739   760.5420

       T/K    H(0)-H(T)+PV         H(T)/Eh          T*S/Eh         G(T)/Eh
   ------------------------------------------------------------------------
    298.15    0.302508E-01    0.505032E+00    0.863666E-01    0.418665E+00
   ------------------------------------------------------------------------

         :::::::::::::::::::::::::::::::::::::::::::::::::::::
         ::                  THERMODYNAMIC                  ::
         :::::::::::::::::::::::::::::::::::::::::::::::::::::
         :: total free energy         -94.715353116218 Eh   ::
         ::.................................................::
         :: total energy              -95.134018042740 Eh   ::
         :: zero point energy           0.474780742500 Eh   ::
         :: G(RRHO) w/o ZPVE           -0.056115815978 Eh   ::
         :: G(RRHO) contrib.            0.418664926523 Eh   ::
         :::::::::::::::::::::::::::::::::::::::::::::::::::::

           -------------------------------------------------
          | TOTAL ENERGY              -95.134018042740 Eh   |
          | TOTAL ENTHALPY            -94.628986474250 Eh   |
          | TOTAL FREE ENERGY         -94.715353116218 Eh   |
          | GRADIENT NORM               0.000102944584 Eh/α |
           -------------------------------------------------

 * finished run on 2025/09/14 at 03:17:02.982
