   * xtb version 6.7.1 (edcfbbe) compiled by 'albert@albert-system' on 2024-07-22

   ID    Z sym.   atoms
    1    6 C      1-9, 11-16, 18-27, 29-34
    2    8 O      10, 28
    3   16 S      17, 35
    4    1 H      36-55

          program call               : xtb data2507/gas/mPXTMP/mPXTMP.xyz --gfn 2 --ohess vtight --parallel 40 --molden --ceasefiles --namespace data2507/gas/mPXTMP/mPXTMP_gas_S0_preOpt
          :  Hamiltonian                  GFN2-xTB          :
 * total energy  :   -91.2117573 Eh     change       -0.7905783E-09 Eh
 * total energy  :   -91.2185640 Eh     change       -0.6806706E-02 Eh
 * total energy  :   -91.2197041 Eh     change       -0.1140090E-02 Eh
 * total energy  :   -91.2199312 Eh     change       -0.2271037E-03 Eh
 * total energy  :   -91.2200642 Eh     change       -0.1330286E-03 Eh
 * total energy  :   -91.2201217 Eh     change       -0.5750253E-04 Eh
 * total energy  :   -91.2201849 Eh     change       -0.6315101E-04 Eh
 * total energy  :   -91.2202707 Eh     change       -0.8582430E-04 Eh
 * total energy  :   -91.2203680 Eh     change       -0.9727615E-04 Eh
 * total energy  :   -91.2204554 Eh     change       -0.8745238E-04 Eh
 * total energy  :   -91.2213857 Eh     change       -0.4267642E-06 Eh
 * total energy  :   -91.2213861 Eh     change       -0.4129423E-06 Eh
 * total energy  :   -91.2213866 Eh     change       -0.5461741E-06 Eh
 * total energy  :   -91.2213875 Eh     change       -0.8591558E-06 Eh
 * total energy  :   -91.2213889 Eh     change       -0.1389357E-05 Eh
 * total energy  :   -91.2213909 Eh     change       -0.2009444E-05 Eh
 * total energy  :   -91.2213933 Eh     change       -0.2365148E-05 Eh
 * total energy  :   -91.2213955 Eh     change       -0.2194499E-05 Eh
 * total energy  :   -91.2213955 Eh     change       -0.7448051E-08 Eh
   *** GEOMETRY OPTIMIZATION CONVERGED AFTER 94 ITERATIONS ***

 final structure:
================
55
 xtb: 6.7.1 (edcfbbe)
C            0.00069630286705       -0.64585698939035        1.26233111157684
C            0.00018408447300       -1.20878857689440       -0.12928017196329
C            1.20334668174709       -1.44276405010463       -0.80118879878710
C            2.51001338032659       -1.21815438609359       -0.15167860227874
C            2.87413321192495       -1.89199740437489        1.00941245115245
C            4.11542595136195       -1.67874275449510        1.57494055380104
C            5.01592027203292       -0.79058062897366        1.00305783707972
C            4.66628888827548       -0.11184387672396       -0.16004703667249
C            3.41872505713472       -0.33885577669960       -0.72706759584704
O            5.45243971122955        0.78605230264355       -0.82799885502815
C            6.65804414091419        1.20188318713268       -0.33538517514177
C            7.28079710813447        2.20783731200230       -1.06700568241075
C            8.50717464316049        2.71252614822674       -0.67698249164369
C            9.12720427131775        2.21938684463548        0.45795320697639
C            8.51489248877109        1.22118434059031        1.19294825042217
C            7.28622878006871        0.70679873749388        0.80330720968658
S            6.58719055683237       -0.58479530862683        1.79671195538243
C            1.19378258764948       -1.88313837567229       -2.12087204760454
C            0.00021978899105       -2.10423108026654       -2.78050902897576
C           -1.19332516478516       -1.88134903944947       -2.12149212652823
C           -1.20297776585341       -1.44119543283960       -0.80168981689433
C           -2.50970278857439       -1.21632338842794       -0.15244966138143
C           -2.87349302736237       -1.89038860018637        1.00864274692616
C           -4.11491888247681       -1.67786332292608        1.57411217314878
C           -5.01577499378820       -0.79002760106641        1.00228797677834
C           -4.66631131761405       -0.11071590360576       -0.16053902762406
C           -3.41868336680804       -0.33719562505250       -0.72768015079157
O           -5.45270699009345        0.78733735979251       -0.82801626278333
C           -6.65852419267736        1.20244320698009       -0.33527644145071
C           -7.28145982869528        2.20882151383169       -1.06616899330308
C           -8.50810572677383        2.71275817902519       -0.67598890652866
C           -9.12827454733135        2.21840542070515        0.45834333242166
C           -8.51573628989976        1.21986254224966        1.19268279661012
C           -7.28676822871248        0.70629878003440        0.80292189245911
S           -6.58731288352891       -0.58551364056850        1.79571759959009
H            0.88425661461676       -0.03251401564197        1.42426232532497
H           -0.88759779837408       -0.04067537277826        1.42865880075565
H            0.00635864711151       -1.44129857032196        2.00655078717363
H            2.19396520829221       -2.59742848868728        1.45984227365407
H            4.40810822385430       -2.20258793935486        2.47214611315174
H            3.16670222655897        0.20056920842082       -1.62705833694333
H            6.77564516944566        2.57543482669669       -1.94630508057167
H            8.97388537836897        3.49078708232388       -1.26055313275409
H           10.08349549206592        2.60676789988866        0.77279166125471
H            8.98270641574335        0.82190757686433        2.07994507280937
H            2.13457489412487       -2.05830552579290       -2.62193561903828
H            0.00023268176455       -2.44728828074093       -3.80431668606200
H           -2.13410738142909       -2.05512583623052       -2.62305566918879
H           -2.19278246178605       -2.59530463235813        1.45907337916006
H           -4.40742074428326       -2.20198304163100        2.47121446248634
H           -3.16684228524418        0.20254940896677       -1.62752916048929
H           -6.77629053564885        2.57731975185000       -1.94507767029112
H           -8.97503311706395        3.49123164707011       -1.25910101454510
H          -10.08488065991589        2.60502312879342        0.77316465425790
H           -8.98360788044571        0.81965005974631        2.07922761944405

          :  Hamiltonian                  GFN2-xTB          :
         :: gradient norm              0.000067656594 Eh/a0 ::
         :: HOMO-LUMO gap              2.699512089771 eV    ::
         :: SCC energy               -92.740650051923 Eh    ::
         :: -> dispersion             -0.074437254500 Eh    ::
         :: repulsion energy           1.519254583451 Eh    ::

    * Orbital Energies and Occupations

         #    Occupation            Energy/Eh            Energy/eV
      -------------------------------------------------------------
         1        2.0000           -0.7365045             -20.0413
       ...           ...                  ...                  ...
        72        2.0000           -0.4279992             -11.6465
        73        2.0000           -0.4263780             -11.6023
        74        2.0000           -0.4238354             -11.5331
        75        2.0000           -0.4215838             -11.4719
        76        2.0000           -0.4203177             -11.4374
        77        2.0000           -0.4177828             -11.3684
        78        2.0000           -0.4144596             -11.2780
        79        2.0000           -0.3988524             -10.8533
        80        2.0000           -0.3971531             -10.8071
        81        2.0000           -0.3939918             -10.7211
        82        2.0000           -0.3934621             -10.7066
        83        2.0000           -0.3539030              -9.6302
        84        2.0000           -0.3533473              -9.6151 (HOMO)
        85                         -0.2541421              -6.9156 (LUMO)
        86                         -0.2521209              -6.8606
        87                         -0.2401593              -6.5351
        88                         -0.2401239              -6.5341
        89                         -0.2361862              -6.4270
        90                         -0.2356811              -6.4132
        91                         -0.2212912              -6.0216
        92                         -0.2210668              -6.0155
        93                         -0.2086049              -5.6764
        94                         -0.2059296              -5.6036
        95                         -0.2055701              -5.5938
       ...                                ...                  ...
       170                          0.6834285              18.5970
      -------------------------------------------------------------
                  HL-Gap            0.0992053 Eh            2.6995 eV

     #   Z          covCN         q      C6AA      α(0)
     1   6 C        3.757    -0.108    22.618     6.781
     2   6 C        2.970     0.011    27.766     8.643
     3   6 C        2.981     0.002    27.982     8.677
     4   6 C        2.978     0.012    27.748     8.641
     5   6 C        2.923    -0.041    29.019     8.834
     6   6 C        2.974    -0.042    29.042     8.840
     7   6 C        2.965     0.022    27.520     8.605
     8   6 C        2.888     0.135    25.049     8.205
     9   6 C        2.930    -0.060    29.493     8.906
    10   8 O        1.710    -0.245    18.052     5.737
    11   6 C        2.890     0.136    25.022     8.201
    12   6 C        2.923    -0.054    29.336     8.882
    13   6 C        2.919    -0.033    28.824     8.804
    14   6 C        2.919    -0.037    28.911     8.817
    15   6 C        2.977    -0.040    28.993     8.832
    16   6 C        2.965     0.025    27.450     8.594
    17  16 S        2.113    -0.132   146.592    20.378
    18   6 C        2.926    -0.036    28.906     8.817
    19   6 C        2.916    -0.034    28.843     8.807
    20   6 C        2.926    -0.036    28.906     8.817
    21   6 C        2.981     0.002    27.982     8.677
    22   6 C        2.978     0.012    27.748     8.641
    23   6 C        2.923    -0.041    29.020     8.834
    24   6 C        2.974    -0.042    29.042     8.840
    25   6 C        2.965     0.022    27.520     8.605
    26   6 C        2.888     0.135    25.049     8.205
    27   6 C        2.930    -0.060    29.493     8.906
    28   8 O        1.710    -0.245    18.052     5.737
    29   6 C        2.890     0.136    25.022     8.201
    30   6 C        2.923    -0.054    29.336     8.882
    31   6 C        2.919    -0.033    28.824     8.804
    32   6 C        2.919    -0.037    28.911     8.817
    33   6 C        2.977    -0.040    28.993     8.832
    34   6 C        2.965     0.025    27.450     8.594
    35  16 S        2.113    -0.132   146.592    20.378
    36   1 H        0.925     0.044     2.392     2.419
    37   1 H        0.925     0.044     2.392     2.418
    38   1 H        0.925     0.047     2.352     2.398
    39   1 H        0.926     0.044     2.401     2.423
    40   1 H        0.926     0.048     2.345     2.395
    41   1 H        0.926     0.055     2.262     2.352
    42   1 H        0.926     0.055     2.263     2.352
    43   1 H        0.926     0.043     2.403     2.424
    44   1 H        0.926     0.043     2.412     2.429
    45   1 H        0.926     0.048     2.342     2.393
    46   1 H        0.926     0.034     2.535     2.490
    47   1 H        0.926     0.034     2.534     2.489
    48   1 H        0.926     0.034     2.535     2.490
    49   1 H        0.926     0.044     2.400     2.423
    50   1 H        0.926     0.048     2.345     2.395
    51   1 H        0.926     0.055     2.262     2.352
    52   1 H        0.926     0.055     2.263     2.352
    53   1 H        0.926     0.043     2.403     2.424
    54   1 H        0.926     0.043     2.412     2.429
    55   1 H        0.926     0.048     2.342     2.393

molecular dipole:
                 x           y           z       tot (Debye)
 q only:        0.000       0.259      -0.124
   full:        0.000       0.399      -0.330       1.316

 projected vibrational frequencies (cm⁻¹)
eigval :       -0.00    -0.00     0.00     0.00     0.00     0.00
eigval :        7.65    10.41    22.70    23.25    24.83    47.16
eigval :       49.58    63.18   103.60   117.17   122.87   138.93
eigval :      166.38   175.25   176.35   194.19   206.20   226.91
eigval :      232.37   235.53   254.27   257.01   286.58   328.56
eigval :      332.64   336.77   339.44   342.01   373.62   401.46
eigval :      411.60   413.06   413.40   423.25   430.23   433.84
eigval :      448.10   473.20   485.40   490.34   498.80   499.08
eigval :      550.86   570.44   573.21   577.33   603.63   617.22
eigval :      637.16   642.80   650.98   651.03   659.41   659.98
eigval :      670.46   670.71   673.47   695.20   705.47   759.92
eigval :      779.27   779.28   802.64   807.54   814.94   825.03
eigval :      829.42   830.69   871.13   871.15   874.21   875.34
eigval :      892.13   903.50   904.86   904.87   911.49   912.08
eigval :      918.26   918.27   924.14   945.33  1026.60  1027.09
eigval :     1027.86  1033.80  1040.22  1041.57  1070.11  1087.59
eigval :     1087.63  1121.17  1140.59  1147.49  1147.59  1160.00
eigval :     1161.35  1172.81  1173.07  1182.46  1183.02  1210.97
eigval :     1224.11  1228.02  1229.90  1237.20  1240.67  1244.28
eigval :     1245.23  1281.32  1309.31  1312.45  1314.17  1321.83
eigval :     1327.82  1328.29  1380.23  1384.38  1407.86  1416.03
eigval :     1416.58  1437.99  1449.69  1459.60  1461.58  1476.84
eigval :     1481.28  1488.58  1489.89  1559.63  1559.86  1569.55
eigval :     1569.84  1580.38  1580.48  1583.62  1583.87  1586.62
eigval :     1586.69  3004.73  3037.17  3039.60  3076.38  3082.44
eigval :     3090.19  3090.19  3092.24  3092.33  3092.97  3094.71
eigval :     3094.72  3102.91  3103.05  3103.93  3103.98  3105.46
eigval :     3105.89  3109.86  3109.88

   temp. (K)  partition function   enthalpy   heat capacity  entropy
                                   cal/mol     cal/K/mol   cal/K/mol   J/K/mol
 298.15  VIB  0.946E+13            16326.702    103.084    100.671
         ROT  0.540E+08              888.752      2.981     38.362
         INT  0.511E+21            17215.454    106.065    139.032
         TR   0.104E+29             1481.254      4.968     44.427
         TOT                       18696.7078   111.0334   183.4588   767.5918

       T/K    H(0)-H(T)+PV         H(T)/Eh          T*S/Eh         G(T)/Eh
   ------------------------------------------------------------------------
    298.15    0.297951E-01    0.435339E+00    0.871672E-01    0.348172E+00
   ------------------------------------------------------------------------

         :::::::::::::::::::::::::::::::::::::::::::::::::::::
         ::                  THERMODYNAMIC                  ::
         :::::::::::::::::::::::::::::::::::::::::::::::::::::
         :: total free energy         -90.873223302662 Eh   ::
         ::.................................................::
         :: total energy              -91.221395468473 Eh   ::
         :: zero point energy           0.405544277301 Eh   ::
         :: G(RRHO) w/o ZPVE           -0.057372111490 Eh   ::
         :: G(RRHO) contrib.            0.348172165811 Eh   ::
         :::::::::::::::::::::::::::::::::::::::::::::::::::::

           -------------------------------------------------
          | TOTAL ENERGY              -91.221395468473 Eh   |
          | TOTAL ENTHALPY            -90.786056090684 Eh   |
          | TOTAL FREE ENERGY         -90.873223302662 Eh   |
          | GRADIENT NORM               0.000067640935 Eh/α |
          | HOMO-LUMO GAP               2.699512546760 eV   |
           -------------------------------------------------

 * finished run on 2025/09/10 at 03:11:18.646
