   * xtb version 6.7.1 (edcfbbe) compiled by 'albert@albert-system' on 2024-07-22

   ID    Z sym.   atoms
    1    6 C      1-9, 11-16, 18-27, 29-34
    2    8 O      10, 28
    3   16 S      17, 35
    4    1 H      36-55

          program call               : xtb data2507/gas/mPXTMP/mPXTMP_gas_S0_finalOpt.xtbopt.xyz --gfn 2 --spinpol --tblite --uhf 2 --ohess vtight --parallel 40 --molden --ceasefiles --namespace data2507/gas/mPXTMP/mPXTMP_gas_T1_preOpt
 * total energy  :   -91.1204523 Eh     change       -0.4151232E-08 Eh
 * total energy  :   -91.1242242 Eh     change       -0.3771938E-02 Eh
 * total energy  :   -91.1251558 Eh     change       -0.9316381E-03 Eh
 * total energy  :   -91.1253037 Eh     change       -0.1478739E-03 Eh
 * total energy  :   -91.1256833 Eh     change       -0.3795705E-03 Eh
 * total energy  :   -91.1255800 Eh     change        0.1032341E-03 Eh
 * total energy  :   -91.1264081 Eh     change       -0.8280406E-03 Eh
 * total energy  :   -91.1266968 Eh     change       -0.2887042E-03 Eh
 * total energy  :   -91.1278215 Eh     change       -0.1124733E-02 Eh
 * total energy  :   -91.1279075 Eh     change       -0.8598260E-04 Eh
 * total energy  :   -91.1284331 Eh     change       -0.2580084E-06 Eh
 * total energy  :   -91.1284333 Eh     change       -0.2060862E-06 Eh
 * total energy  :   -91.1284334 Eh     change       -0.1546256E-06 Eh
 * total energy  :   -91.1284336 Eh     change       -0.1842883E-06 Eh
 * total energy  :   -91.1284338 Eh     change       -0.1294114E-06 Eh
 * total energy  :   -91.1284342 Eh     change       -0.4170119E-06 Eh
 * total energy  :   -91.1284343 Eh     change       -0.1024683E-06 Eh
 * total energy  :   -91.1284344 Eh     change       -0.1146979E-06 Eh
 * total energy  :   -91.1284345 Eh     change       -0.8519687E-07 Eh
   *** GEOMETRY OPTIMIZATION CONVERGED AFTER 83 ITERATIONS ***

 final structure:
================
55
 xtb: 6.7.1 (edcfbbe)
C           -0.02214486186335       -0.64598489603523        0.81356838641208
C           -0.01182802495480       -1.85264100397121       -0.08075805403118
C            1.20342812280979       -2.44862490736861       -0.41118048629777
C            2.49503629483200       -1.84600681523520       -0.02679735430588
C            3.41680682459161       -2.57651825300210        0.71808057147732
C            4.63627852587217       -2.02375910649176        1.05319488871476
C            4.96959406811029       -0.73879133771149        0.64658158297154
C            4.06462759572063       -0.00191536844871       -0.11111459645665
C            2.83756073082633       -0.56431440974824       -0.43817038401607
O            4.26601482664453        1.26580358602855       -0.58513993421836
C            5.44502273990343        1.93046956635909       -0.40642888094094
C            5.51651886915365        3.18204893075629       -1.01074379623708
C            6.65449239270790        3.95840470311177       -0.90126159123462
C            7.74351562107734        3.49098743166931       -0.18527174966051
C            7.68320130555057        2.24865883911872        0.41755990015709
C            6.54173113764926        1.46529676883405        0.31403883766172
S            6.55309285987010       -0.10701524742487        1.13056330321425
C            1.24058695458355       -3.65689500044402       -1.10719266656582
C            0.06085868793977       -4.27947837055728       -1.48063151036282
C           -1.14628709068493       -3.69731325035764       -1.17281056793198
C           -1.21640674320957       -2.46962213066998       -0.48920510968019
C           -2.52384984897902       -1.90452363148252       -0.23803850754049
C           -3.62621725243090       -2.76933054743949        0.11569534420989
C           -4.87142504589634       -2.27498494758628        0.32445663089315
C           -5.14157211295436       -0.89290514241599        0.21203793521817
C           -4.05613967472317       -0.01723871095289       -0.17063495533582
C           -2.79790899606988       -0.54378166904360       -0.37725038180094
O           -4.19600475162697        1.31223998797240       -0.36453813130790
C           -5.35033718064376        1.97994428609850       -0.17605985715415
C           -5.30235761999652        3.36637606149068       -0.35459753747631
C           -6.42188934314184        4.14176485576386       -0.18482601612834
C           -7.64972398287846        3.54365591195905        0.16706378707265
C           -7.72656114286411        2.18684169789177        0.33067142972673
C           -6.59288766641909        1.37906099227038        0.17678119721761
S           -6.77381208818281       -0.34336348945214        0.29335044429236
H            0.82892689326637       -0.67691983041889        1.49160849428599
H            0.04650321330244        0.28012461850567        0.24400109689619
H           -0.93797267704740       -0.61512835905258        1.39962803284580
H            3.16913455279402       -3.57424506407759        1.04650567585682
H            5.35153822932419       -2.58114591922773        1.63878509646348
H            2.16085966159502        0.02156584473837       -1.03957845431824
H            4.65500945811646        3.52244139948563       -1.56331122196720
H            6.68776611120978        4.92649950779915       -1.37636350485572
H            8.63712525989885        4.08826876118332       -0.09411723491526
H            8.52069504441273        1.86646054105894        0.98104931241063
H            2.19561633397358       -4.09600494231610       -1.35418753001070
H            0.09048148138145       -5.21561967181889       -2.01884093994621
H           -2.06302300940246       -4.16663277308959       -1.49681481717628
H           -3.43407154872674       -3.82118567312382        0.25315726947066
H           -5.69002251047867       -2.92491921829680        0.59651141117408
H           -2.02892388488501        0.13884379547346       -0.70036882895183
H           -4.35262980744422        3.80090348223528       -0.62593339517582
H           -6.36619623548973        5.20964204999022       -0.32172951429112
H           -8.52564348908083        4.15768297308689        0.30215707617578
H           -8.65969326239394        1.70880292999811        0.58854394472578

 projected vibrational frequencies (cm⁻¹)
eigval :       -0.00    -0.00    -0.00     0.00     0.00     0.00
eigval :       10.13    15.59    20.75    24.75    36.92    43.76
eigval :       61.98    64.63    83.80   110.36   119.38   135.75
eigval :      153.86   172.80   186.81   206.51   222.35   228.09
eigval :      228.85   239.40   250.90   258.04   274.88   306.38
eigval :      321.23   330.60   339.84   349.74   361.26   370.32
eigval :      371.75   397.31   412.86   416.85   425.76   429.64
eigval :      446.83   459.95   468.69   475.13   488.59   498.48
eigval :      521.41   552.96   565.79   571.05   576.68   598.68
eigval :      607.69   618.41   631.84   642.62   650.96   654.16
eigval :      663.87   670.94   677.86   683.43   691.96   748.42
eigval :      750.27   775.08   779.01   791.98   799.97   808.61
eigval :      819.51   828.03   847.09   871.10   875.57   877.08
eigval :      879.99   884.37   892.56   893.45   897.74   905.12
eigval :      911.34   916.48   918.32   929.16   993.86  1017.74
eigval :     1021.65  1028.39  1038.63  1042.36  1049.92  1054.21
eigval :     1087.27  1106.64  1122.58  1137.00  1147.15  1160.13
eigval :     1160.82  1169.39  1172.60  1175.10  1182.29  1186.99
eigval :     1209.02  1210.49  1214.71  1227.11  1236.64  1243.95
eigval :     1249.57  1266.07  1289.10  1308.44  1316.84  1321.42
eigval :     1326.97  1336.60  1350.29  1376.69  1383.12  1384.95
eigval :     1401.21  1407.28  1416.20  1426.38  1431.07  1441.66
eigval :     1456.50  1474.02  1483.94  1487.47  1494.34  1498.46
eigval :     1525.35  1546.90  1556.76  1559.79  1568.64  1579.43
eigval :     1583.52  2996.25  3026.20  3035.34  3072.69  3080.10
eigval :     3084.35  3086.84  3089.88  3090.89  3091.65  3095.19
eigval :     3095.38  3100.77  3102.58  3104.52  3105.24  3109.99
eigval :     3110.53  3111.41  3115.63

   temp. (K)  partition function   enthalpy   heat capacity  entropy
                                   cal/mol     cal/K/mol   cal/K/mol   J/K/mol
 298.15  VIB  0.482E+13            16579.740    105.058    101.642
         ROT  0.564E+08              888.752      2.981     38.449
         INT  0.272E+21            17468.493    108.038    140.092
         TR   0.104E+29             1481.254      4.968     44.427
         TOT                       18949.7466   113.0066   184.5181   772.0239

       T/K    H(0)-H(T)+PV         H(T)/Eh          T*S/Eh         G(T)/Eh
   ------------------------------------------------------------------------
    298.15    0.301983E-01    0.431960E+00    0.876705E-01    0.344290E+00
   ------------------------------------------------------------------------

         :::::::::::::::::::::::::::::::::::::::::::::::::::::
         ::                  THERMODYNAMIC                  ::
         :::::::::::::::::::::::::::::::::::::::::::::::::::::
         :: total free energy         -90.784144694991 Eh   ::
         ::.................................................::
         :: total energy              -91.128434484123 Eh   ::
         :: zero point energy           0.401761965029 Eh   ::
         :: G(RRHO) w/o ZPVE           -0.057472175897 Eh   ::
         :: G(RRHO) contrib.            0.344289789132 Eh   ::
         :::::::::::::::::::::::::::::::::::::::::::::::::::::

           -------------------------------------------------
          | TOTAL ENERGY              -91.128434484123 Eh   |
          | TOTAL ENTHALPY            -90.696474175647 Eh   |
          | TOTAL FREE ENERGY         -90.784144694991 Eh   |
          | GRADIENT NORM               0.000094575238 Eh/α |
           -------------------------------------------------

 * finished run on 2025/09/10 at 03:14:29.434
