   * xtb version 6.7.1 (edcfbbe) compiled by 'albert@albert-system' on 2024-07-22

   ID    Z sym.   atoms
    1    6 C      1-9, 11-16, 18-27, 29-34
    2    8 O      10, 28
    3   16 S      17, 35
    4    1 H      36-55

          program call               : xtb data2507/gas/mPXTMP/mPXTMP_gas_T1_crest.xyz --gfn 2 --spinpol --tblite --uhf 2 --ohess vtight --parallel 40 --molden --ceasefiles --namespace data2507/gas/mPXTMP/mPXTMP_gas_T1_finalOpt
 * total energy  :   -91.1283611 Eh     change       -0.1084082E-07 Eh
 * total energy  :   -91.1283997 Eh     change       -0.3861218E-04 Eh
 * total energy  :   -91.1284141 Eh     change       -0.1440490E-04 Eh
 * total energy  :   -91.1284170 Eh     change       -0.2904823E-05 Eh
 * total energy  :   -91.1284206 Eh     change       -0.3552989E-05 Eh
 * total energy  :   -91.1284255 Eh     change       -0.4927250E-05 Eh
 * total energy  :   -91.1284292 Eh     change       -0.3747583E-05 Eh
 * total energy  :   -91.1284302 Eh     change       -0.9959200E-06 Eh
 * total energy  :   -91.1284307 Eh     change       -0.5178494E-06 Eh
 * total energy  :   -91.1284311 Eh     change       -0.3099672E-06 Eh
 * total energy  :   -91.1284314 Eh     change       -0.3490423E-06 Eh
 * total energy  :   -91.1284318 Eh     change       -0.3757983E-06 Eh
 * total energy  :   -91.1284320 Eh     change       -0.2706101E-06 Eh
 * total energy  :   -91.1284323 Eh     change       -0.2230373E-06 Eh
 * total energy  :   -91.1284324 Eh     change       -0.1034456E-06 Eh
 * total energy  :   -91.1284325 Eh     change       -0.1716854E-06 Eh
 * total energy  :   -91.1284327 Eh     change       -0.1753041E-06 Eh
 * total energy  :   -91.1284328 Eh     change       -0.9081175E-07 Eh
   *** GEOMETRY OPTIMIZATION CONVERGED AFTER 18 ITERATIONS ***

 final structure:
================
55
 xtb: 6.7.1 (edcfbbe)
C           -0.00681054979670       -0.64976009575262        0.85525630879511
C           -0.01908961853971       -1.86762418214303       -0.02382909537803
C            1.18607565928148       -2.48071465470701       -0.35992653042256
C            2.48767659100461       -1.88504635469862        0.00046374731790
C            3.41338897726870       -2.61459977623122        0.74140541491549
C            4.64070010320738       -2.06719122562208        1.05604521547419
C            4.97810641274502       -0.78871295250140        0.63259396907468
C            4.06920797662626       -0.05315287071244       -0.12167292106721
C            2.83448350852485       -0.61017767987050       -0.42829262676822
O            4.27327506390975        1.20833360107728       -0.61090380357910
C            5.45077247546626        1.87600608341421       -0.43389546579568
C            5.51636933490940        3.12960318274192       -1.03471923489525
C            6.65236957696941        3.90907818347031       -0.92701474338968
C            7.74498339834267        3.44323554684775       -0.21548427292363
C            7.69046901586041        2.19902577299159        0.38398924288095
C            6.55139993544657        1.41203402422453        0.28136243517470
S            6.57223756664687       -0.16417682220934        1.09007084424288
C            1.20254441194454       -3.69949906111654       -1.03827965430561
C            0.01206090260428       -4.31549382496855       -1.38791596998232
C           -1.18536958437350       -3.71603551588295       -1.07544739728567
C           -1.23484288237370       -2.47725372820721       -0.41011440490707
C           -2.53253815682807       -1.89258645366649       -0.15459847867182
C           -3.64309297406308       -2.73730803784622        0.22131432065226
C           -4.87909257880302       -2.22299774340093        0.43644160874689
C           -5.13140793737752       -0.83870053124462        0.30915249056285
C           -4.03825042163984        0.01643755668065       -0.09689090131626
C           -2.78983736227675       -0.53006957499537       -0.30967723059516
O           -4.16157868078085        1.34519710751174       -0.30708009802867
C           -5.30443939510392        2.03143801175805       -0.11515331879490
C           -5.23883851946824        3.41459000024207       -0.31229574951975
C           -6.34553403958273        4.20791153937419       -0.14093080804986
C           -7.57762047513382        3.63186536772933        0.23172814459164
C           -7.67172387516966        2.27844497910969        0.41384421370091
C           -6.55123142812764        1.45280436687732        0.25853720991510
S           -6.75517908734046       -0.26549620465549        0.39845956194837
H            0.85110691092793       -0.68166246944529        1.52457975690304
H            0.06558274093815        0.26863548860345        0.27384002520534
H           -0.91587501453528       -0.60186039334139        1.45063208443909
H            3.16271118278143       -3.60708121541885        1.08315843577315
H            5.35918942877243       -2.62382562820501        1.63839229398339
H            2.15493243716633       -0.02562747031210       -1.02775485525714
H            4.65200387273303        3.46883768818990       -1.58352714402129
H            6.68117733061278        4.87850456829536       -1.39967741040856
H            8.63691807170976        4.04315623602800       -0.12529523926462
H            8.53098281701027        1.81780695307714        0.94363372084693
H            2.14996074612505       -4.15203694727271       -1.29026452978070
H            0.02573448212452       -5.26012224874420       -1.91176221997466
H           -2.11053957001718       -4.18055457726712       -1.38188697088863
H           -3.46431614517466       -3.78995318951843        0.37032114260991
H           -5.70368634581388       -2.85795762279462        0.72521930227038
H           -2.01522941954251        0.13748727483056       -0.65026583378627
H           -4.28604691109226        3.83203038124588       -0.59925562706063
H           -6.27627368843180        5.27301357791193       -0.29249813698473
H           -8.44338849014323        4.25986615637574        0.36804645124217
H           -8.60867725513034        1.81709240764325        0.68773190213608

 projected vibrational frequencies (cm⁻¹)
eigval :       -0.00    -0.00    -0.00     0.00     0.00     0.00
eigval :        9.89    15.70    20.68    25.40    37.00    44.01
eigval :       62.00    65.26    84.02   110.37   119.63   135.67
eigval :      154.14   173.15   186.53   207.05   222.59   228.25
eigval :      228.82   239.46   251.99   258.42   274.72   306.72
eigval :      321.23   331.17   339.82   349.36   361.65   370.34
eigval :      371.80   397.27   412.89   416.95   425.71   429.60
eigval :      447.23   460.04   468.57   475.01   488.90   498.45
eigval :      521.41   553.04   565.69   570.99   576.70   598.72
eigval :      607.87   618.09   631.87   642.52   650.93   654.08
eigval :      663.84   670.81   678.01   683.27   691.65   748.45
eigval :      750.38   774.99   778.95   791.99   799.39   808.54
eigval :      819.40   828.00   847.23   871.04   875.28   877.25
eigval :      880.09   884.61   892.56   893.39   897.76   905.06
eigval :      911.33   916.31   918.26   929.00   993.25  1018.22
eigval :     1021.58  1028.45  1038.54  1042.28  1049.91  1053.92
eigval :     1087.32  1106.39  1122.43  1137.00  1147.48  1160.06
eigval :     1161.16  1169.36  1172.53  1175.07  1182.01  1186.68
eigval :     1208.94  1210.34  1214.46  1227.29  1236.68  1243.74
eigval :     1249.62  1266.13  1289.05  1308.25  1316.87  1321.48
eigval :     1326.99  1336.63  1350.82  1376.74  1383.31  1385.01
eigval :     1401.14  1407.33  1416.18  1426.49  1430.77  1441.87
eigval :     1456.32  1473.79  1484.07  1487.64  1494.48  1498.53
eigval :     1524.95  1546.96  1556.74  1559.72  1568.63  1579.46
eigval :     1583.39  2996.39  3026.09  3035.25  3072.63  3080.11
eigval :     3084.39  3087.02  3089.85  3090.84  3091.69  3095.15
eigval :     3095.42  3100.75  3102.53  3104.41  3105.29  3109.98
eigval :     3110.66  3111.92  3116.04

   temp. (K)  partition function   enthalpy   heat capacity  entropy
                                   cal/mol     cal/K/mol   cal/K/mol   J/K/mol
 298.15  VIB  0.467E+13            16574.396    105.075    101.603
         ROT  0.564E+08              888.752      2.981     38.448
         INT  0.263E+21            17463.149    108.056    140.051
         TR   0.104E+29             1481.254      4.968     44.427
         TOT                       18944.4026   113.0243   184.4777   771.8545

       T/K    H(0)-H(T)+PV         H(T)/Eh          T*S/Eh         G(T)/Eh
   ------------------------------------------------------------------------
    298.15    0.301898E-01    0.431961E+00    0.876513E-01    0.344309E+00
   ------------------------------------------------------------------------

         :::::::::::::::::::::::::::::::::::::::::::::::::::::
         ::                  THERMODYNAMIC                  ::
         :::::::::::::::::::::::::::::::::::::::::::::::::::::
         :: total free energy         -90.784123474376 Eh   ::
         ::.................................................::
         :: total energy              -91.128432826470 Eh   ::
         :: zero point energy           0.401770811350 Eh   ::
         :: G(RRHO) w/o ZPVE           -0.057461459256 Eh   ::
         :: G(RRHO) contrib.            0.344309352094 Eh   ::
         :::::::::::::::::::::::::::::::::::::::::::::::::::::

           -------------------------------------------------
          | TOTAL ENERGY              -91.128432826470 Eh   |
          | TOTAL ENTHALPY            -90.696472187950 Eh   |
          | TOTAL FREE ENERGY         -90.784123474376 Eh   |
          | GRADIENT NORM               0.000072464517 Eh/α |
           -------------------------------------------------

 * finished run on 2025/09/10 at 03:18:42.494
