   * xtb version 6.7.1 (edcfbbe) compiled by 'albert@albert-system' on 2024-07-22

   ID    Z sym.   atoms
    1    6 C      1-9, 11-16, 18-27, 29-34
    2    8 O      10, 28
    3   16 S      17, 35
    4    1 H      36-55

          program call               : xtb data2507/gas/mPXTMP/mPXTMP_gas_S0_crest.xyz --gfn 2 --ohess vtight --parallel 40 --molden --ceasefiles --namespace data2507/gas/mPXTMP/mPXTMP_gas_S0_finalOpt
          :  Hamiltonian                  GFN2-xTB          :
 * total energy  :   -91.2215474 Eh     change       -0.4142464E-09 Eh
 * total energy  :   -91.2215480 Eh     change       -0.5762730E-06 Eh
 * total energy  :   -91.2215491 Eh     change       -0.1085475E-05 Eh
 * total energy  :   -91.2215504 Eh     change       -0.1384804E-05 Eh
 * total energy  :   -91.2215517 Eh     change       -0.1283110E-05 Eh
 * total energy  :   -91.2215526 Eh     change       -0.8674151E-06 Eh
 * total energy  :   -91.2215536 Eh     change       -0.9789257E-06 Eh
 * total energy  :   -91.2215549 Eh     change       -0.1356302E-05 Eh
 * total energy  :   -91.2215561 Eh     change       -0.1159035E-05 Eh
 * total energy  :   -91.2215569 Eh     change       -0.7883359E-06 Eh
 * total energy  :   -91.2215574 Eh     change       -0.4880347E-06 Eh
 * total energy  :   -91.2215574 Eh     change       -0.8289253E-07 Eh
   *** GEOMETRY OPTIMIZATION CONVERGED AFTER 12 ITERATIONS ***

 final structure:
================
55
 xtb: 6.7.1 (edcfbbe)
C           -0.00333504928812       -0.65726461794125        0.83933343206086
C           -0.00228224168290       -1.82205133822378       -0.10740937399973
C            1.20194255460904       -2.39733891796470       -0.52392322062701
C            2.51008560360145       -1.84076477299057       -0.12645404607813
C            3.44213911709050       -2.64042528359489        0.52738429517184
C            4.67376067636341       -2.12585209246989        0.88054885117184
C            5.00752679887689       -0.81203751829264        0.58236291635747
C            4.09187276005351       -0.00615938620263       -0.08705399735056
C            2.85285876466066       -0.52984121468070       -0.43262946113767
O            4.29237557173458        1.29683754087574       -0.45238855753096
C            5.49923021401766        1.91816886865935       -0.28930614925827
C            5.58360213557032        3.19792902655869       -0.82791119130963
C            6.74783641027007        3.93580512107933       -0.72327193121824
C            7.84980666294878        3.39911402607551       -0.08041510698942
C            7.77660350415873        2.12668669951588        0.45533941268267
C            6.60879527194513        1.38320484463282        0.35799443923726
S            6.60244075359233       -0.23088921862743        1.09159102331512
C            1.19427332157059       -3.53461694035788       -1.32562580094835
C            0.00196767509149       -4.10278043652746       -1.73046730256204
C           -1.19223037089686       -3.53328950649851       -1.33341733512223
C           -1.20456330747670       -2.39618452326923       -0.53118515701401
C           -2.51529978707539       -1.84062424851897       -0.14156548076590
C           -3.45580600340723       -2.64580736435604        0.49335392593414
C           -4.69065295431663       -2.13342887689197        0.83808705985694
C           -5.01975620646841       -0.81614418647519        0.55009282393202
C           -4.09513046106414       -0.00401933209644       -0.09899256879776
C           -2.85285687401493       -0.52565302663410       -0.43613433895058
O           -4.28889164416484        1.30328262854525       -0.45224263639782
C           -5.48600845282379        1.93650102325255       -0.26554164145813
C           -5.55205444829539        3.23434425321740       -0.76193398783499
C           -6.70527313153578        3.98543129385340       -0.63210509045240
C           -7.81412305867980        3.44476353374367       -0.00467578596298
C           -7.75893982812637        2.15479572859467        0.48977074112258
C           -6.60269470064651        1.39730348393909        0.36577921225401
S           -6.62211765883377       -0.24124149939370        1.04286989889401
H            0.87979272168262       -0.68274672631566        1.47386937257723
H            0.00181955927948        0.28843283118570        0.29905009494773
H           -0.89173742731111       -0.67782699397948        1.46657237669411
H            3.19444787295111       -3.66166338932416        0.77324760247169
H            5.39748139089070       -2.73690384876765        1.39810658798742
H            2.16694268871253        0.11131686029633       -0.96294492139303
H            4.71113455816470        3.59253198814731       -1.32442897003317
H            6.79060424107795        4.92781510228706       -1.14531903178443
H            8.76388981370299        3.96529336318338        0.00644998810079
H            8.62414241425377        1.69074128375401        0.96194395506472
H            2.13580189695337       -3.96333358003734       -1.63663171428374
H            0.00347484905897       -4.98491673299932       -2.35310120405622
H           -2.13199097816915       -3.96112446404632       -1.65089126119685
H           -3.21251188767463       -3.67006870044807        0.73090605035386
H           -5.42130200906446       -2.74944167542432        1.33980551828444
H           -2.16064688328682        0.12060557854957       -0.95179768092527
H           -4.67440342150218        3.63183492725539       -1.24689678998459
H           -6.73373134121192        4.99110546678839       -1.02180067567647
H           -8.71954673585470        4.02132037440451        0.10229261197796
H           -8.61225908421135        1.71526516535717        0.98340823274903

          :  Hamiltonian                  GFN2-xTB          :
         :: gradient norm              0.000149768654 Eh/a0 ::
         :: HOMO-LUMO gap              2.699492761416 eV    ::
         :: SCC energy               -92.740662244868 Eh    ::
         :: -> dispersion             -0.074557365829 Eh    ::
         :: repulsion energy           1.519104798496 Eh    ::

    * Orbital Energies and Occupations

         #    Occupation            Energy/Eh            Energy/eV
      -------------------------------------------------------------
         1        2.0000           -0.7365544             -20.0427
       ...           ...                  ...                  ...
        72        2.0000           -0.4287759             -11.6676
        73        2.0000           -0.4260682             -11.5939
        74        2.0000           -0.4245666             -11.5530
        75        2.0000           -0.4216972             -11.4750
        76        2.0000           -0.4208980             -11.4532
        77        2.0000           -0.4161905             -11.3251
        78        2.0000           -0.4153451             -11.3021
        79        2.0000           -0.3993395             -10.8666
        80        2.0000           -0.3968744             -10.7995
        81        2.0000           -0.3933670             -10.7041
        82        2.0000           -0.3930060             -10.6942
        83        2.0000           -0.3537979              -9.6273
        84        2.0000           -0.3534513              -9.6179 (HOMO)
        85                         -0.2542468              -6.9184 (LUMO)
        86                         -0.2525923              -6.8734
        87                         -0.2409615              -6.5569
        88                         -0.2391992              -6.5089
        89                         -0.2362389              -6.4284
        90                         -0.2355844              -6.4106
        91                         -0.2221591              -6.0453
        92                         -0.2204548              -5.9989
        93                         -0.2077759              -5.6539
        94                         -0.2060339              -5.6065
        95                         -0.2056358              -5.5956
       ...                                ...                  ...
       170                          0.6851546              18.6440
      -------------------------------------------------------------
                  HL-Gap            0.0992045 Eh            2.6995 eV

     #   Z          covCN         q      C6AA      α(0)
     1   6 C        3.757    -0.108    22.618     6.781
     2   6 C        2.970     0.011    27.758     8.642
     3   6 C        2.981     0.002    27.982     8.677
     4   6 C        2.978     0.012    27.749     8.641
     5   6 C        2.925    -0.043    29.061     8.841
     6   6 C        2.974    -0.042    29.030     8.838
     7   6 C        2.965     0.022    27.519     8.605
     8   6 C        2.888     0.135    25.059     8.207
     9   6 C        2.928    -0.058    29.451     8.900
    10   8 O        1.710    -0.245    18.056     5.737
    11   6 C        2.890     0.136    25.023     8.201
    12   6 C        2.923    -0.054    29.337     8.882
    13   6 C        2.919    -0.033    28.825     8.804
    14   6 C        2.919    -0.037    28.911     8.817
    15   6 C        2.977    -0.040    28.993     8.832
    16   6 C        2.965     0.025    27.449     8.594
    17  16 S        2.113    -0.132   146.588    20.378
    18   6 C        2.927    -0.037    28.908     8.817
    19   6 C        2.916    -0.034    28.850     8.808
    20   6 C        2.927    -0.037    28.909     8.818
    21   6 C        2.981     0.002    27.982     8.677
    22   6 C        2.977     0.012    27.750     8.641
    23   6 C        2.925    -0.043    29.062     8.841
    24   6 C        2.974    -0.042    29.030     8.838
    25   6 C        2.965     0.022    27.519     8.605
    26   6 C        2.888     0.135    25.060     8.207
    27   6 C        2.928    -0.058    29.453     8.900
    28   8 O        1.710    -0.245    18.054     5.737
    29   6 C        2.889     0.136    25.023     8.201
    30   6 C        2.923    -0.054    29.338     8.882
    31   6 C        2.919    -0.033    28.825     8.804
    32   6 C        2.919    -0.037    28.912     8.817
    33   6 C        2.977    -0.040    28.993     8.832
    34   6 C        2.965     0.025    27.449     8.594
    35  16 S        2.113    -0.132   146.585    20.377
    36   1 H        0.925     0.044     2.393     2.419
    37   1 H        0.925     0.049     2.329     2.386
    38   1 H        0.925     0.044     2.392     2.418
    39   1 H        0.926     0.043     2.411     2.428
    40   1 H        0.926     0.048     2.345     2.394
    41   1 H        0.926     0.056     2.248     2.345
    42   1 H        0.926     0.054     2.266     2.354
    43   1 H        0.926     0.043     2.404     2.425
    44   1 H        0.926     0.043     2.413     2.429
    45   1 H        0.926     0.048     2.342     2.393
    46   1 H        0.926     0.033     2.543     2.494
    47   1 H        0.926     0.033     2.539     2.492
    48   1 H        0.926     0.033     2.542     2.493
    49   1 H        0.926     0.043     2.410     2.428
    50   1 H        0.926     0.048     2.345     2.395
    51   1 H        0.926     0.056     2.246     2.344
    52   1 H        0.926     0.054     2.266     2.354
    53   1 H        0.926     0.043     2.404     2.425
    54   1 H        0.926     0.043     2.413     2.429
    55   1 H        0.926     0.048     2.342     2.393

molecular dipole:
                 x           y           z       tot (Debye)
 q only:        0.009       0.195      -0.219
   full:        0.011       0.345      -0.361       1.269

 projected vibrational frequencies (cm⁻¹)
eigval :       -0.00    -0.00    -0.00    -0.00     0.00     0.00
eigval :        9.32    10.42    20.53    22.60    24.94    49.94
eigval :       55.10    60.86    92.30   111.26   131.59   147.20
eigval :      162.75   174.96   188.88   192.56   224.17   227.36
eigval :      229.51   235.56   256.58   256.65   286.78   322.38
eigval :      326.53   330.56   341.82   347.41   371.70   400.78
eigval :      408.46   413.10   413.22   423.56   429.74   430.89
eigval :      460.83   471.26   483.07   490.60   498.74   498.92
eigval :      551.56   569.94   574.05   575.23   598.53   618.31
eigval :      640.49   646.64   650.77   651.57   655.37   659.80
eigval :      670.44   670.57   674.54   695.73   707.74   759.72
eigval :      779.17   779.22   801.22   808.86   814.44   825.97
eigval :      827.85   830.64   871.03   871.08   878.07   879.47
eigval :      894.03   901.43   904.81   904.82   910.11   911.99
eigval :      918.21   918.22   924.36   942.47  1026.43  1026.96
eigval :     1027.96  1032.38  1040.09  1041.66  1067.57  1087.63
eigval :     1087.75  1122.10  1138.23  1147.61  1147.65  1161.52
eigval :     1161.80  1172.92  1173.12  1184.20  1186.06  1213.33
eigval :     1223.97  1228.09  1228.37  1238.06  1241.04  1243.83
eigval :     1245.65  1277.87  1306.43  1309.20  1315.69  1320.28
eigval :     1327.99  1328.81  1382.34  1389.86  1407.88  1416.21
eigval :     1416.59  1441.75  1442.74  1460.14  1460.62  1478.50
eigval :     1478.73  1489.19  1490.01  1559.46  1559.51  1569.75
eigval :     1570.09  1579.89  1580.05  1583.60  1583.99  1586.53
eigval :     1586.80  3006.09  3036.41  3039.19  3075.79  3081.43
eigval :     3089.93  3090.00  3090.36  3090.40  3092.56  3094.75
eigval :     3094.79  3100.75  3100.93  3103.90  3103.95  3109.82
eigval :     3109.88  3110.98  3111.68

   temp. (K)  partition function   enthalpy   heat capacity  entropy
                                   cal/mol     cal/K/mol   cal/K/mol   J/K/mol
 298.15  VIB  0.773E+13            16306.215    103.150    100.458
         ROT  0.564E+08              888.752      2.981     38.449
         INT  0.436E+21            17194.967    106.131    138.907
         TR   0.104E+29             1481.254      4.968     44.427
         TOT                       18676.2213   111.0987   183.3337   767.0683

       T/K    H(0)-H(T)+PV         H(T)/Eh          T*S/Eh         G(T)/Eh
   ------------------------------------------------------------------------
    298.15    0.297625E-01    0.435354E+00    0.871078E-01    0.348246E+00
   ------------------------------------------------------------------------

         :::::::::::::::::::::::::::::::::::::::::::::::::::::
         ::                  THERMODYNAMIC                  ::
         :::::::::::::::::::::::::::::::::::::::::::::::::::::
         :: total free energy         -90.873311522110 Eh   ::
         ::.................................................::
         :: total energy              -91.221557446375 Eh   ::
         :: zero point energy           0.405591239372 Eh   ::
         :: G(RRHO) w/o ZPVE           -0.057345315106 Eh   ::
         :: G(RRHO) contrib.            0.348245924265 Eh   ::
         :::::::::::::::::::::::::::::::::::::::::::::::::::::

           -------------------------------------------------
          | TOTAL ENERGY              -91.221557446375 Eh   |
          | TOTAL ENTHALPY            -90.786203753948 Eh   |
          | TOTAL FREE ENERGY         -90.873311522110 Eh   |
          | GRADIENT NORM               0.000149800917 Eh/α |
          | HOMO-LUMO GAP               2.699490508513 eV   |
           -------------------------------------------------

 * finished run on 2025/09/10 at 03:14:20.152
