   * xtb version 6.7.1 (edcfbbe) compiled by 'albert@albert-system' on 2024-07-22

   ID    Z sym.   atoms
    1    6 C      1-20, 22-30, 33-39, 41-50
    2    7 N      21, 31, 32, 40
    3    1 H      51-92

          program call               : xtb data2507/toluene/DTPCZTZ/DTPCZTZ_toluene_S0_finalOpt.xtbopt.xyz --gfn 2 --uhf 2 --gbsa toluene --ohess vtight --parallel 40 --molden --ceasefiles --namespace data2507/toluene/DTPCZTZ/DTPCZTZ_toluene_T1_preOpt
      * Solvation model:               GBSA
        Solvent                        toluene
        Solvent mass                       9.2140E+01 g/mol
          :  Hamiltonian                  GFN2-xTB          :
 * total energy  :  -131.6393377 Eh     change       -0.1571294E-08 Eh
 * total energy  :  -131.6442818 Eh     change       -0.4944031E-02 Eh
 * total energy  :  -131.6474261 Eh     change       -0.3144340E-02 Eh
 * total energy  :  -131.6482133 Eh     change       -0.7871667E-03 Eh
 * total energy  :  -131.6494409 Eh     change       -0.1227665E-02 Eh
 * total energy  :  -131.6500219 Eh     change       -0.5809570E-03 Eh
 * total energy  :  -131.6503298 Eh     change       -0.3079350E-03 Eh
 * total energy  :  -131.6505270 Eh     change       -0.1972118E-03 Eh
 * total energy  :  -131.6506761 Eh     change       -0.1490854E-03 Eh
 * total energy  :  -131.6507967 Eh     change       -0.1205349E-03 Eh
 * total energy  :  -131.6514146 Eh     change       -0.5934101E-06 Eh
 * total energy  :  -131.6514153 Eh     change       -0.6317571E-06 Eh
 * total energy  :  -131.6514158 Eh     change       -0.5062496E-06 Eh
 * total energy  :  -131.6514162 Eh     change       -0.4040536E-06 Eh
 * total energy  :  -131.6514165 Eh     change       -0.3159558E-06 Eh
 * total energy  :  -131.6514168 Eh     change       -0.2812601E-06 Eh
 * total energy  :  -131.6514170 Eh     change       -0.2459161E-06 Eh
 * total energy  :  -131.6514172 Eh     change       -0.2073848E-06 Eh
 * total energy  :  -131.6514172 Eh     change       -0.2763642E-08 Eh
   *** GEOMETRY OPTIMIZATION CONVERGED AFTER 68 ITERATIONS ***

 final structure:
================
92
 xtb: 6.7.1 (edcfbbe)
C           -7.58625852431185        4.95351427116218       -1.90325298100776
C           -7.68277664378674        4.31716684124521       -0.50816839510698
C           -9.13953390037733        3.90754277027112       -0.27033108805494
C           -7.29808010221782        5.35059964097343        0.56190679474304
C           -6.72301397354358        3.13997350735883       -0.42941423916547
C           -5.35186178271124        3.36835646517158       -0.60934674155541
C           -4.40757290829619        2.36362582558567       -0.53753415544922
C           -4.84510932092031        1.07522052532203       -0.26193344487984
C           -6.22599454911921        0.81151332587496       -0.12267045088883
C           -7.15308451923256        1.83823334155180       -0.19957523091782
C           -6.35059253458503       -0.61079702402604        0.07186217953508
C           -7.43886163400216       -1.44162278380512        0.28392620374715
C           -7.23980400073824       -2.80374086664984        0.47670596443060
C           -8.38791295092716       -3.77426722729512        0.70619044045306
C           -9.75700659025713       -3.08820298762361        0.66828284050050
C           -8.36297563168722       -4.84991466045502       -0.39058141991039
C           -8.22089236152411       -4.43257019227293        2.08438859546963
C           -5.92644594168339       -3.29327887163838        0.47500694818464
C           -4.82493432397216       -2.48720870710369        0.26721277644199
C           -5.03904162199341       -1.13489146393117        0.03782252652246
N           -4.13492993769058       -0.10742280929538       -0.16259257806910
C           -2.75631411851767       -0.23501432687910       -0.23660605478783
C           -1.91286534205159        0.66256194020137        0.44392782610633
C           -0.55494343937685        0.53753121197691        0.37400278058020
C            0.07210139907233       -0.48954522235150       -0.38826778031671
C            1.48447930642048       -0.61480495042575       -0.46211439550722
C            2.12386518050431       -1.81602965680982       -0.90144497493995
C            3.47408397054153       -1.93952087508121       -0.94147483245329
C            4.33663959883619       -0.87375886219500       -0.54477596202253
C            5.72608923490989       -1.08774052697090       -0.60488633194130
N            6.27470812545115       -2.11356497543533       -1.27390102644895
N            7.57724495074277       -1.99986284006237       -1.24117648991768
C            7.91141551610349       -0.92976065878898       -0.53883773506468
C            9.27896612953912       -0.56968650039526       -0.26490483898755
C            9.67653001473449        0.12599147614484        0.88257437236195
C           11.01066287904007        0.41213743319498        1.09540404769930
C           11.97298624629721        0.01144536010126        0.18120467154254
C           11.59149183850278       -0.69916115018668       -0.94914047389157
C           10.26273257979259       -0.99153473658193       -1.17036259285805
N            6.76080374355217       -0.29553397212105       -0.10637818928624
C            6.67930997977020        0.86422828595133        0.67658604615780
C            6.02456326256381        0.83421985585898        1.90745643062655
C            5.96217076809726        1.97940241649678        2.67824581484687
C            6.55173756389058        3.15404518616077        2.23570766826374
C            7.20479432397071        3.18244956146501        1.01312765128176
C            7.27121149009559        2.04475057670091        0.23113712537713
C            3.71149029496855        0.34758273677843       -0.16622813310594
C            2.35796132495397        0.46140418919708       -0.11873757660735
C           -0.80490260970630       -1.38275068195056       -1.06762842287754
C           -2.16316447240002       -1.26312015738003       -0.99234820940513
H           -8.28429384901627        5.78421356455092       -1.98275408244637
H           -6.58648337709362        5.32987766535927       -2.10112837550092
H           -7.83296612354741        4.22124754557818       -2.66965969432749
H           -9.26548353111273        3.46201411656146        0.71392068159161
H           -9.77537932836482        4.78906900322157       -0.32281552662744
H           -9.47889385902317        3.20573540516327       -1.02875623945558
H           -7.98934454857372        6.19024821751029        0.53394490434585
H           -6.29356079612150        5.73320159903336        0.40448536277094
H           -7.34110982881154        4.90142772212507        1.55233653720472
H           -5.00535366586809        4.36820045108916       -0.81981638355294
H           -3.36424450968828        2.58007597677829       -0.70779226389893
H           -8.19761390812790        1.60353986320274       -0.08438967445397
H           -8.42502141134010       -1.00964659092625        0.30223471655887
H          -10.53720979809408       -3.83070534680682        0.82362490984824
H           -9.84432299498467       -2.34251934614621        1.45527471910858
H           -9.93190721719384       -2.61582710437755       -0.29572000217864
H           -9.19084612081675       -5.54216855054779       -0.25243495298491
H           -7.43805602256102       -5.41945291781434       -0.36982660600455
H           -8.45845600422243       -4.38945671714382       -1.37210933605579
H           -9.05030492736642       -5.10987241629545        2.27671122336495
H           -7.29718994996201       -5.00129464238746        2.14505109404709
H           -8.20631810030652       -3.67409547700338        2.86478764705301
H           -5.75325595392019       -4.34376901333543        0.64956923064524
H           -3.82960548137327       -2.90241855339165        0.30125390497837
H           -2.35452321138908        1.42291248276912        1.07125051346133
H            0.05500279962147        1.20902282712486        0.95693613972720
H            1.51918464803958       -2.66698275119862       -1.17392060817599
H            3.94081724899353       -2.85898940791352       -1.26029503827495
H            8.94634838152344        0.42008207224652        1.62121425925521
H           11.30230837271416        0.94818426782513        1.98713434976810
H           13.01358242935630        0.24361020442556        0.35198508430644
H           12.33763849112839       -1.02433165507029       -1.65952711104446
H            9.95187872243239       -1.54689125319970       -2.04216657001626
H            5.56932035627396       -0.08641569870936        2.24358889490075
H            5.45536713788776        1.95190346455884        3.63134984756438
H            6.50246832130172        4.04520286355589        2.84263539627376
H            7.66256616407440        4.09564145938354        0.66322015162172
H            7.77846975266837        2.05712564206531       -0.72285003306986
H            4.32029040434496        1.21100554939102        0.05408261182298
H            1.93482706170158        1.42004237372192        0.14042505732588
H           -0.38963404873035       -2.14830621647359       -1.70315756693101
H           -2.79622931230706       -1.92773149818693       -1.56140628764394

          :  Hamiltonian                  GFN2-xTB          :
         :: gradient norm              0.000040419164 Eh/a0 ::
         :: HOMO-LUMO gap              0.634640582131 eV    ::
         :: SCC energy              -133.974309452938 Eh    ::
         :: -> dispersion             -0.117912802307 Eh    ::
         :: -> Gsolv                  -0.056887109832 Eh    ::
         :: repulsion energy           2.322892233660 Eh    ::

    * Orbital Energies and Occupations

         #    Occupation            Energy/Eh            Energy/eV
      -------------------------------------------------------------
         1        2.0000           -0.6906889             -18.7946
       ...           ...                  ...                  ...
       112        2.0000           -0.4109832             -11.1834
       113        2.0000           -0.4088347             -11.1250
       114        2.0000           -0.4072478             -11.0818
       115        2.0000           -0.4050533             -11.0221
       116        2.0000           -0.4043507             -11.0029
       117        2.0000           -0.4038440             -10.9892
       118        2.0000           -0.4019766             -10.9383
       119        2.0000           -0.3918107             -10.6617
       120        2.0000           -0.3828212             -10.4171
       121        2.0000           -0.3717149             -10.1149
       122        1.9423           -0.3620656              -9.8523
       123        1.0577           -0.3567602              -9.7079
       124        1.0000           -0.2756840              -7.5017 (HOMO)
       125        0.0000           -0.2523616              -6.8671 (LUMO)
       126                         -0.2482020              -6.7539
       127                         -0.2372118              -6.4549
       128                         -0.2366374              -6.4392
       129                         -0.2280563              -6.2057
       130                         -0.2243816              -6.1057
       131                         -0.2241561              -6.0996
       132                         -0.2220712              -6.0429
       133                         -0.2119877              -5.7685
       134                         -0.1973869              -5.3712
       135                         -0.1927779              -5.2458
       ...                                ...                  ...
       242                          0.7315166              19.9056
      -------------------------------------------------------------
                  HL-Gap            0.0233224 Eh            0.6346 eV

     #   Z          covCN         q      C6AA      α(0)
     1   6 C        3.761    -0.106    22.572     6.773
     2   6 C        3.902     0.026    20.075     6.369
     3   6 C        3.761    -0.109    22.628     6.781
     4   6 C        3.761    -0.106    22.575     6.773
     5   6 C        2.972     0.008    27.827     8.653
     6   6 C        2.929    -0.038    28.950     8.824
     7   6 C        2.908    -0.045    29.118     8.848
     8   6 C        3.075     0.041    26.996     8.519
     9   6 C        3.062    -0.014    28.304     8.724
    10   6 C        2.917    -0.040    29.000     8.831
    11   6 C        3.063    -0.014    28.304     8.724
    12   6 C        2.917    -0.040    29.000     8.831
    13   6 C        2.973     0.008    27.825     8.653
    14   6 C        3.902     0.026    20.074     6.369
    15   6 C        3.761    -0.109    22.628     6.781
    16   6 C        3.761    -0.106    22.575     6.773
    17   6 C        3.761    -0.106    22.573     6.773
    18   6 C        2.929    -0.038    28.946     8.823
    19   6 C        2.908    -0.045    29.118     8.848
    20   6 C        3.075     0.041    26.996     8.519
    21   7 N        2.798    -0.007    21.400     6.871
    22   6 C        2.911     0.047    26.942     8.511
    23   6 C        2.913    -0.042    29.053     8.839
    24   6 C        2.919    -0.039    28.976     8.827
    25   6 C        2.967     0.007    27.853     8.657
    26   6 C        2.968    -0.005    28.133     8.700
    27   6 C        2.914    -0.038    28.955     8.824
    28   6 C        2.918    -0.039    28.959     8.825
    29   6 C        2.968    -0.020    28.497     8.756
    30   6 C        3.080     0.129    25.107     8.215
    31   7 N        2.053    -0.213    26.373     7.618
    32   7 N        2.047    -0.199    26.057     7.572
    33   6 C        3.091     0.133    24.998     8.195
    34   6 C        2.972    -0.008    28.218     8.713
    35   6 C        2.921    -0.038    28.957     8.824
    36   6 C        2.918    -0.031    28.764     8.795
    37   6 C        2.919    -0.033    28.819     8.803
    38   6 C        2.917    -0.029    28.724     8.789
    39   6 C        2.928    -0.033    28.827     8.805
    40   7 N        2.813    -0.080    22.801     7.092
    41   6 C        2.910     0.064    26.555     8.450
    42   6 C        2.920    -0.040    29.005     8.832
    43   6 C        2.919    -0.028    28.703     8.786
    44   6 C        2.919    -0.034    28.840     8.806
    45   6 C        2.919    -0.028    28.692     8.784
    46   6 C        2.921    -0.041    29.027     8.835
    47   6 C        2.910    -0.045    29.109     8.847
    48   6 C        2.915    -0.038    28.945     8.822
    49   6 C        2.919    -0.039    28.964     8.825
    50   6 C        2.913    -0.042    29.049     8.838
    51   1 H        0.925     0.041     2.439     2.442
    52   1 H        0.925     0.038     2.482     2.464
    53   1 H        0.925     0.034     2.526     2.485
    54   1 H        0.925     0.038     2.475     2.460
    55   1 H        0.925     0.039     2.464     2.455
    56   1 H        0.925     0.038     2.475     2.460
    57   1 H        0.925     0.040     2.442     2.444
    58   1 H        0.925     0.038     2.479     2.462
    59   1 H        0.925     0.034     2.525     2.485
    60   1 H        0.926     0.039     2.460     2.453
    61   1 H        0.926     0.038     2.474     2.459
    62   1 H        0.926     0.049     2.328     2.386
    63   1 H        0.926     0.049     2.328     2.386
    64   1 H        0.925     0.039     2.464     2.455
    65   1 H        0.925     0.038     2.475     2.460
    66   1 H        0.925     0.038     2.475     2.460
    67   1 H        0.925     0.040     2.442     2.444
    68   1 H        0.925     0.038     2.478     2.462
    69   1 H        0.925     0.034     2.524     2.485
    70   1 H        0.925     0.041     2.439     2.442
    71   1 H        0.925     0.038     2.480     2.463
    72   1 H        0.925     0.034     2.527     2.486
    73   1 H        0.926     0.039     2.457     2.451
    74   1 H        0.926     0.038     2.469     2.457
    75   1 H        0.926     0.041     2.439     2.442
    76   1 H        0.926     0.037     2.489     2.467
    77   1 H        0.926     0.032     2.555     2.499
    78   1 H        0.926     0.039     2.466     2.456
    79   1 H        0.926     0.023     2.689     2.564
    80   1 H        0.926     0.034     2.527     2.486
    81   1 H        0.926     0.037     2.493     2.469
    82   1 H        0.926     0.037     2.486     2.466
    83   1 H        0.926     0.042     2.416     2.431
    84   1 H        0.926     0.033     2.543     2.494
    85   1 H        0.926     0.043     2.411     2.428
    86   1 H        0.926     0.043     2.404     2.424
    87   1 H        0.926     0.043     2.416     2.430
    88   1 H        0.926     0.031     2.570     2.507
    89   1 H        0.926     0.017     2.781     2.608
    90   1 H        0.926     0.030     2.591     2.517
    91   1 H        0.926     0.038     2.473     2.459
    92   1 H        0.926     0.041     2.435     2.440

molecular dipole:
                 x           y           z       tot (Debye)
 q only:       -4.768       1.500       0.928
   full:       -4.590       1.943       1.221      13.043

 projected vibrational frequencies (cm⁻¹)
eigval :       -0.00    -0.00    -0.00    -0.00     0.00     0.00
eigval :        9.09    12.51    14.49    22.64    29.71    31.48
eigval :       32.84    40.37    44.66    50.66    54.87    65.09
eigval :       75.20    78.23    80.09    95.87   101.40   111.09
eigval :      117.41   124.34   130.49   157.80   164.27   168.15
eigval :      183.79   188.52   203.11   222.48   226.07   227.58
eigval :      230.83   235.49   240.70   246.11   257.73   265.02
eigval :      274.41   294.48   313.93   318.63   320.12   324.59
eigval :      337.92   342.74   347.51   357.41   363.81   370.77
eigval :      376.07   379.49   381.29   385.28   387.37   400.07
eigval :      405.33   411.31   429.74   440.73   442.01   445.69
eigval :      458.77   465.34   467.69   472.84   479.97   499.19
eigval :      510.14   516.98   566.67   569.68   576.34   583.94
eigval :      584.68   589.49   596.80   599.62   603.79   625.05
eigval :      632.13   641.00   645.57   655.81   658.82   667.76
eigval :      674.61   683.92   690.68   702.45   704.75   716.70
eigval :      720.33   753.41   754.81   765.82   790.13   800.01
eigval :      806.87   819.32   825.91   828.61   830.95   866.49
eigval :      869.36   869.80   870.80   872.49   891.63   893.82
eigval :      901.82   904.11   907.18   910.12   915.07   920.92
eigval :      921.29   923.39   924.73   924.96   925.55   926.87
eigval :      928.39   935.94   938.84   951.43   958.71   959.08
eigval :      961.44   962.07   962.61   962.68   973.71   988.95
eigval :     1005.47  1019.76  1028.76  1033.01  1033.31  1034.30
eigval :     1038.99  1074.29  1078.38  1089.84  1106.52  1112.90
eigval :     1120.38  1126.70  1132.64  1134.20  1138.27  1150.52
eigval :     1161.46  1162.30  1175.84  1178.33  1186.84  1192.10
eigval :     1202.97  1208.21  1223.11  1223.33  1226.57  1227.50
eigval :     1228.33  1234.92  1236.65  1238.92  1253.31  1258.42
eigval :     1266.87  1273.32  1276.42  1276.96  1286.12  1287.24
eigval :     1297.14  1304.99  1313.85  1322.94  1325.17  1328.51
eigval :     1337.47  1348.31  1363.73  1367.70  1390.48  1398.96
eigval :     1401.40  1401.57  1401.59  1407.06  1407.38  1415.45
eigval :     1421.62  1425.79  1426.00  1430.44  1433.30  1433.81
eigval :     1457.35  1458.47  1460.04  1466.87  1473.65  1474.43
eigval :     1485.44  1488.49  1488.83  1490.41  1491.32  1495.82
eigval :     1497.26  1497.48  1501.55  1502.56  1511.17  1511.55
eigval :     1516.28  1517.29  1552.69  1557.53  1560.59  1564.21
eigval :     1568.74  1574.42  1574.90  1578.57  1589.33  1597.67
eigval :     3021.01  3021.61  3022.12  3022.26  3025.23  3025.55
eigval :     3026.28  3026.55  3028.99  3029.30  3031.75  3032.21
eigval :     3036.94  3037.37  3045.31  3046.07  3048.62  3049.50
eigval :     3071.80  3074.88  3076.00  3077.02  3078.61  3081.05
eigval :     3081.64  3084.83  3085.96  3087.43  3088.06  3088.37
eigval :     3088.91  3095.26  3096.95  3098.56  3098.79  3099.31
eigval :     3099.51  3100.13  3102.92  3106.17  3121.12  3123.87

   temp. (K)  partition function   enthalpy   heat capacity  entropy
                                   cal/mol     cal/K/mol   cal/K/mol   J/K/mol
 298.15  VIB  0.346E+21            26395.264    163.883    164.210
         ROT  0.163E+09              888.752      2.981     40.560
         INT  0.564E+29            27284.016    166.864    204.771
         TR   0.161E+29             1481.254      4.968     45.281
         TOT                       28765.2700   171.8325   250.0516  1046.2158

       T/K    H(0)-H(T)+PV         H(T)/Eh          T*S/Eh         G(T)/Eh
   ------------------------------------------------------------------------
    298.15    0.458404E-01    0.785995E+00    0.118808E+00    0.667187E+00
   ------------------------------------------------------------------------

         :::::::::::::::::::::::::::::::::::::::::::::::::::::
         ::                  THERMODYNAMIC                  ::
         :::::::::::::::::::::::::::::::::::::::::::::::::::::
         :: total free energy        -130.984230146020 Eh   ::
         ::.................................................::
         :: total energy             -131.651417221542 Eh   ::
         :: zero point energy           0.740154274439 Eh   ::
         :: G(RRHO) w/o ZPVE           -0.072967198917 Eh   ::
         :: G(RRHO) contrib.            0.667187075522 Eh   ::
         :::::::::::::::::::::::::::::::::::::::::::::::::::::

           -------------------------------------------------
          | TOTAL ENERGY             -131.651417221542 Eh   |
          | TOTAL ENTHALPY           -130.865422571489 Eh   |
          | TOTAL FREE ENERGY        -130.984230146020 Eh   |
          | GRADIENT NORM               0.000040553708 Eh/α |
          | HOMO-LUMO GAP               0.634634869788 eV   |
           -------------------------------------------------

 * finished run on 2025/09/04 at 23:09:20.007
