   * xtb version 6.7.1 (edcfbbe) compiled by 'albert@albert-system' on 2024-07-22

   ID    Z sym.   atoms
    1    6 C      1-20, 22-30, 33-39, 41-50
    2    7 N      21, 31, 32, 40
    3    1 H      51-92

          program call               : xtb data2507/toluene/DTPCZTZ/DTPCZTZ_toluene_S0_crest.xyz --gfn 2 --gbsa toluene --ohess vtight --parallel 40 --molden --ceasefiles --namespace data2507/toluene/DTPCZTZ/DTPCZTZ_toluene_S0_finalOpt
      * Solvation model:               GBSA
        Solvent                        toluene
        Solvent mass                       9.2140E+01 g/mol
          :  Hamiltonian                  GFN2-xTB          :
 * total energy  :  -131.7402187 Eh     change       -0.4651156E-08 Eh
 * total energy  :  -131.7402579 Eh     change       -0.3922008E-04 Eh
 * total energy  :  -131.7402785 Eh     change       -0.2058852E-04 Eh
 * total energy  :  -131.7402855 Eh     change       -0.7000883E-05 Eh
 * total energy  :  -131.7402904 Eh     change       -0.4911018E-05 Eh
 * total energy  :  -131.7402935 Eh     change       -0.3051865E-05 Eh
 * total energy  :  -131.7402958 Eh     change       -0.2325373E-05 Eh
 * total energy  :  -131.7402980 Eh     change       -0.2212456E-05 Eh
 * total energy  :  -131.7403000 Eh     change       -0.2046748E-05 Eh
 * total energy  :  -131.7403022 Eh     change       -0.2130383E-05 Eh
 * total energy  :  -131.7403122 Eh     change       -0.2127707E-05 Eh
 * total energy  :  -131.7403134 Eh     change       -0.1226275E-05 Eh
 * total energy  :  -131.7403144 Eh     change       -0.9826206E-06 Eh
 * total energy  :  -131.7403155 Eh     change       -0.1133124E-05 Eh
 * total energy  :  -131.7403168 Eh     change       -0.1258623E-05 Eh
 * total energy  :  -131.7403178 Eh     change       -0.1031899E-05 Eh
 * total energy  :  -131.7403184 Eh     change       -0.6404581E-06 Eh
 * total energy  :  -131.7403189 Eh     change       -0.4718507E-06 Eh
 * total energy  :  -131.7403189 Eh     change       -0.9463037E-08 Eh
   *** GEOMETRY OPTIMIZATION CONVERGED AFTER 22 ITERATIONS ***

 final structure:
================
92
 xtb: 6.7.1 (edcfbbe)
C           -7.43847727510679        4.99805860737268       -1.86819011689893
C           -7.56243382667587        4.35163265843158       -0.48033161420755
C           -9.02852752323577        3.96187213434028       -0.26714532981223
C           -7.18051628052114        5.37132108322170        0.60337746919626
C           -6.62120152839557        3.15724812180789       -0.39686942763592
C           -5.24462881365706        3.36732809859460       -0.55848331443482
C           -4.31544991118344        2.34941306205174       -0.48440811156968
C           -4.77367014168955        1.06561438708483       -0.23026035724629
C           -6.15671078458457        0.82086666361898       -0.09761592481133
C           -7.06951853744474        1.86524876909718       -0.17581644739105
C           -6.30261004377657       -0.59558477400082        0.09776204398649
C           -7.40622322112196       -1.41417391535389        0.30268281603276
C           -7.22990210647481       -2.77557958127564        0.48828914739115
C           -8.39323161843733       -3.73265707590103        0.71107906180985
C           -9.75098106447079       -3.02340030118415        0.69253581376375
C           -8.39498029292929       -4.79156264315654       -0.40169312453487
C           -8.23150145346153       -4.41488715985638        2.07780579385856
C           -5.92440093247402       -3.28630022154711        0.47962388424651
C           -4.81020914907246       -2.49701987581915        0.27816483705243
C           -5.00141047476402       -1.13995659980493        0.06732154876674
N           -4.08165806340075       -0.12684434391286       -0.12982958644329
C           -2.69240048198551       -0.27795487291041       -0.20691948065340
C           -1.85291926558556        0.53832050322092        0.54805796874578
C           -0.48290518972222        0.39761589028810        0.45908877604370
C            0.08579044915981       -0.57095110966693       -0.36677934377804
C            1.54433558425738       -0.72036594566860       -0.45685910368009
C            2.13278300584177       -1.98458408587770       -0.49936703503486
C            3.50221956905466       -2.12329880808709       -0.57937151410865
C            4.32663486266820       -0.99831064274375       -0.62056822697133
C            5.76130520820701       -1.19515967891457       -0.72500856387269
N            6.32192518945598       -2.18088963735694       -1.37934650921666
N            7.64889568220687       -2.04323977400991       -1.29728472437014
C            7.91189829304302       -0.97508779556926       -0.58803837170754
C            9.25334788113664       -0.52703419910205       -0.25308528635521
C            9.55556718708569        0.05553533896826        0.97607071126862
C           10.85149191285122        0.44977619291361        1.25557208025859
C           11.85671688895664        0.26281054222446        0.32114994645882
C           11.56575631340429       -0.33589091169348       -0.89486552940326
C           10.27339569087206       -0.73115460520814       -1.18213761532386
N            6.73528632011692       -0.38347458044398       -0.19110294492680
C            6.56846226695665        0.78585029771773        0.57590115611057
C            5.82266932169202        0.74416584015371        1.74893740295099
C            5.66004730124683        1.89818466645375        2.49416482924948
C            6.24104529542922        3.08548030820458        2.07842128264897
C            6.98629764303407        3.12194963782088        0.91086738974403
C            7.15107558763346        1.97602011161770        0.15397229431533
C            3.74320405928806        0.26733763510771       -0.60232688010802
C            2.37200508995692        0.39984840682167       -0.51447253092626
C           -0.76184790989020       -1.39206435756307       -1.10907872815783
C           -2.13217348731529       -1.24356377917472       -1.04037303015594
H           -8.12201104356643        5.84075149688260       -1.95146716582943
H           -6.42977302680406        5.35908618126341       -2.04948007879298
H           -7.68570732478803        4.27508703012793       -2.64336007609299
H           -9.17504529916928        3.51195524116411        0.71235574239601
H           -9.65210719044830        4.85209175084944       -0.32467692758456
H           -9.36465327833855        3.26718988361490       -1.03369565061424
H           -7.85815991769162        6.22227157676649        0.57241655148980
H           -6.16749039562042        5.73881236136060        0.46434235449281
H           -7.24501786856762        4.91419980787898        1.58910880690643
H           -4.88135167051959        4.36505269880285       -0.75367936301822
H           -3.26524758644690        2.55313145126245       -0.63185489011802
H           -8.11768904754039        1.64227686632641       -0.06538079809438
H           -8.38505092212134       -0.96441580014102        0.31725706433134
H          -10.54330522394734       -3.75332110488752        0.84779612540295
H           -9.81686851063445       -2.28302838111693        1.48673881175139
H           -9.92542811254617       -2.53745699106434       -0.26489237081327
H           -9.23122461166652       -5.47498117103824       -0.26775880601639
H           -7.47714665448573       -5.37311789224502       -0.39805348660058
H           -8.49161007025745       -4.31383134669403       -1.37495602929313
H           -9.07121940031547       -5.08105950080510        2.26585131958112
H           -7.31690080114088       -4.99967845439914        2.12436869842042
H           -8.19866236034221       -3.66802405121232        2.86895656188389
H           -5.76849800723987       -4.34241165184071        0.64035257168716
H           -3.82104467003118       -2.92981772313889        0.29738043919026
H           -2.28294514558565        1.27167342299582        1.21392280132912
H            0.15636439876159        1.02694484956554        1.06060714274721
H            1.50992827239114       -2.86521165051274       -0.44849838568367
H            3.95932365376298       -3.10062825560909       -0.61025056743068
H            8.78507737269502        0.18474469344858        1.72203831646102
H           11.07601640974550        0.90091440381999        2.21093962640029
H           12.86648842374918        0.57439594238297        0.54345724567269
H           12.34880151063160       -0.49443421735468       -1.62152714189820
H           10.03071567206814       -1.20323864570729       -2.12199769983602
H            5.37646856698703       -0.18758913662812        2.06546020557931
H            5.07978289501109        1.86632882120894        3.40380912117690
H            6.11296902081670        3.98277605590551        2.66435797821953
H            7.43929162263300        4.04526656125393        0.58303664521947
H            7.72775491039765        1.99351660028592       -0.75950623397312
H            4.35814573998825        1.15222562667842       -0.67726012100443
H            1.93405527282814        1.38703833667740       -0.51747048331616
H           -0.33989595839239       -2.13235185647210       -1.77261365904677
H           -2.77726341892803       -1.86321503519125       -1.64511869044795

          :  Hamiltonian                  GFN2-xTB          :
         :: gradient norm              0.000059202940 Eh/a0 ::
         :: HOMO-LUMO gap              2.326567513839 eV    ::
         :: SCC energy              -134.082595255033 Eh    ::
         :: -> dispersion             -0.118207341036 Eh    ::
         :: -> Gsolv                  -0.055310263741 Eh    ::
         :: repulsion energy           2.342276331694 Eh    ::

    * Orbital Energies and Occupations

         #    Occupation            Energy/Eh            Energy/eV
      -------------------------------------------------------------
         1        2.0000           -0.7034511             -19.1419
       ...           ...                  ...                  ...
       111        2.0000           -0.4145084             -11.2793
       112        2.0000           -0.4135700             -11.2538
       113        2.0000           -0.4123033             -11.2193
       114        2.0000           -0.4114579             -11.1963
       115        2.0000           -0.4068409             -11.0707
       116        2.0000           -0.4063744             -11.0580
       117        2.0000           -0.4043623             -11.0033
       118        2.0000           -0.4004679             -10.8973
       119        2.0000           -0.3940746             -10.7233
       120        2.0000           -0.3845061             -10.4629
       121        2.0000           -0.3707648             -10.0890
       122        2.0000           -0.3687148             -10.0332
       123        2.0000           -0.3543914              -9.6435 (HOMO)
       124                         -0.2688916              -7.3169 (LUMO)
       125                         -0.2533494              -6.8940
       126                         -0.2450028              -6.6669
       127                         -0.2439851              -6.6392
       128                         -0.2386019              -6.4927
       129                         -0.2321469              -6.3170
       130                         -0.2313313              -6.2948
       131                         -0.2303811              -6.2690
       132                         -0.2236262              -6.0852
       133                         -0.2150904              -5.8529
       134                         -0.1878680              -5.1121
       ...                                ...                  ...
       242                          0.7440370              20.2463
      -------------------------------------------------------------
                  HL-Gap            0.0854998 Eh            2.3266 eV

     #   Z          covCN         q      C6AA      α(0)
     1   6 C        3.761    -0.104    22.537     6.767
     2   6 C        3.902     0.025    20.105     6.374
     3   6 C        3.761    -0.106    22.572     6.773
     4   6 C        3.761    -0.104    22.539     6.768
     5   6 C        2.972    -0.004    28.109     8.697
     6   6 C        2.931    -0.041    29.023     8.835
     7   6 C        2.908    -0.055    29.371     8.887
     8   6 C        3.079     0.043    26.945     8.510
     9   6 C        3.066    -0.022    28.478     8.751
    10   6 C        2.918    -0.046    29.135     8.851
    11   6 C        3.067    -0.022    28.479     8.751
    12   6 C        2.918    -0.046    29.135     8.851
    13   6 C        2.972    -0.003    28.107     8.696
    14   6 C        3.902     0.025    20.105     6.374
    15   6 C        3.761    -0.106    22.572     6.773
    16   6 C        3.761    -0.104    22.538     6.768
    17   6 C        3.761    -0.104    22.538     6.768
    18   6 C        2.931    -0.041    29.020     8.835
    19   6 C        2.908    -0.055    29.369     8.886
    20   6 C        3.078     0.043    26.944     8.510
    21   7 N        2.801    -0.050    22.197     6.997
    22   6 C        2.912     0.064    26.557     8.450
    23   6 C        2.920    -0.044    29.091     8.845
    24   6 C        2.924    -0.033    28.834     8.806
    25   6 C        2.976     0.006    27.879     8.661
    26   6 C        2.976     0.014    27.697     8.633
    27   6 C        2.923    -0.032    28.807     8.802
    28   6 C        2.925    -0.030    28.752     8.793
    29   6 C        2.974    -0.007    28.194     8.710
    30   6 C        3.126     0.137    24.833     8.160
    31   7 N        2.064    -0.220    26.522     7.640
    32   7 N        2.064    -0.220    26.518     7.639
    33   6 C        3.127     0.137    24.837     8.160
    34   6 C        2.974    -0.004    28.127     8.699
    35   6 C        2.922    -0.034    28.849     8.808
    36   6 C        2.919    -0.029    28.719     8.788
    37   6 C        2.919    -0.028    28.690     8.784
    38   6 C        2.918    -0.027    28.666     8.780
    39   6 C        2.927    -0.029    28.734     8.791
    40   7 N        2.829    -0.063    22.447     7.037
    41   6 C        2.912     0.063    26.581     8.454
    42   6 C        2.921    -0.038    28.955     8.824
    43   6 C        2.920    -0.025    28.630     8.774
    44   6 C        2.919    -0.028    28.706     8.786
    45   6 C        2.920    -0.025    28.628     8.774
    46   6 C        2.921    -0.038    28.956     8.824
    47   6 C        2.920    -0.035    28.867     8.811
    48   6 C        2.924    -0.034    28.859     8.810
    49   6 C        2.924    -0.033    28.824     8.804
    50   6 C        2.920    -0.044    29.082     8.844
    51   1 H        0.925     0.037     2.487     2.466
    52   1 H        0.925     0.035     2.515     2.480
    53   1 H        0.925     0.032     2.564     2.504
    54   1 H        0.925     0.035     2.514     2.479
    55   1 H        0.925     0.036     2.504     2.474
    56   1 H        0.925     0.035     2.516     2.481
    57   1 H        0.925     0.037     2.489     2.467
    58   1 H        0.925     0.035     2.511     2.478
    59   1 H        0.925     0.032     2.561     2.502
    60   1 H        0.926     0.029     2.607     2.525
    61   1 H        0.926     0.025     2.657     2.549
    62   1 H        0.926     0.036     2.496     2.470
    63   1 H        0.926     0.037     2.495     2.470
    64   1 H        0.925     0.036     2.504     2.474
    65   1 H        0.925     0.035     2.515     2.480
    66   1 H        0.925     0.035     2.514     2.480
    67   1 H        0.925     0.037     2.489     2.467
    68   1 H        0.925     0.035     2.512     2.479
    69   1 H        0.925     0.032     2.561     2.503
    70   1 H        0.925     0.037     2.487     2.466
    71   1 H        0.925     0.035     2.514     2.479
    72   1 H        0.925     0.032     2.563     2.504
    73   1 H        0.926     0.029     2.605     2.524
    74   1 H        0.926     0.025     2.654     2.548
    75   1 H        0.926     0.043     2.414     2.430
    76   1 H        0.926     0.041     2.434     2.440
    77   1 H        0.926     0.044     2.395     2.420
    78   1 H        0.926     0.046     2.375     2.410
    79   1 H        0.926     0.027     2.629     2.535
    80   1 H        0.926     0.040     2.444     2.445
    81   1 H        0.926     0.043     2.410     2.428
    82   1 H        0.926     0.043     2.410     2.428
    83   1 H        0.926     0.045     2.381     2.413
    84   1 H        0.926     0.037     2.487     2.466
    85   1 H        0.926     0.049     2.327     2.386
    86   1 H        0.926     0.051     2.313     2.378
    87   1 H        0.926     0.049     2.329     2.387
    88   1 H        0.926     0.037     2.493     2.469
    89   1 H        0.926     0.027     2.623     2.533
    90   1 H        0.926     0.041     2.429     2.437
    91   1 H        0.926     0.042     2.427     2.436
    92   1 H        0.926     0.043     2.415     2.430

molecular dipole:
                 x           y           z       tot (Debye)
 q only:       -0.253       1.625       1.084
   full:       -0.183       2.073       1.378       6.344

 projected vibrational frequencies (cm⁻¹)
eigval :       -0.00    -0.00    -0.00    -0.00    -0.00     0.00
eigval :        3.95     9.40    11.91    20.93    27.20    29.97
eigval :       33.56    33.89    40.94    50.35    53.17    64.30
eigval :       70.35    72.90    76.28    89.97    95.65   109.26
eigval :      116.19   120.68   125.59   144.17   160.20   174.22
eigval :      182.53   194.02   202.72   216.47   221.53   224.85
eigval :      230.79   235.83   237.39   255.65   257.57   258.62
eigval :      280.99   306.04   313.41   318.08   324.16   337.45
eigval :      338.92   341.81   354.83   359.78   369.54   374.87
eigval :      377.88   381.30   385.25   386.66   397.09   406.97
eigval :      411.47   429.90   440.41   442.62   444.80   458.36
eigval :      464.76   469.82   480.03   484.98   500.42   507.61
eigval :      518.02   539.83   571.82   576.85   583.82   584.62
eigval :      585.86   593.56   605.04   608.80   629.69   638.86
eigval :      646.13   657.55   663.32   676.75   684.73   687.55
eigval :      687.98   691.66   704.77   708.09   711.68   720.39
eigval :      726.96   763.61   765.65   782.48   808.64   821.69
eigval :      823.04   830.55   834.74   869.39   872.36   872.61
eigval :      873.77   876.31   876.41   879.59   898.85   906.36
eigval :      910.59   913.36   919.25   920.02   924.55   925.23
eigval :      927.69   928.73   929.19   929.95   934.01   935.10
eigval :      939.71   950.22   958.46   958.68   959.60   960.78
eigval :      961.31   961.76   962.43   976.67  1001.17  1016.48
eigval :     1029.90  1033.99  1034.12  1034.52  1039.14  1040.40
eigval :     1077.32  1079.05  1080.21  1108.10  1114.60  1115.31
eigval :     1118.75  1128.08  1135.21  1141.53  1142.68  1163.80
eigval :     1175.82  1176.27  1177.28  1185.45  1188.58  1189.65
eigval :     1196.18  1200.59  1212.11  1225.31  1225.74  1229.00
eigval :     1230.31  1236.81  1243.03  1258.51  1265.42  1270.24
eigval :     1274.68  1277.50  1283.52  1286.55  1302.12  1307.21
eigval :     1308.21  1312.62  1313.31  1317.01  1317.98  1319.80
eigval :     1345.35  1357.50  1377.29  1382.45  1396.60  1399.83
eigval :     1400.92  1401.30  1401.77  1409.47  1416.08  1425.60
eigval :     1425.75  1427.87  1432.76  1439.10  1450.30  1459.88
eigval :     1477.83  1480.91  1483.63  1487.77  1489.20  1492.14
eigval :     1492.69  1497.35  1499.15  1499.39  1501.11  1502.46
eigval :     1510.80  1511.44  1518.02  1519.32  1527.75  1530.67
eigval :     1553.67  1563.79  1570.08  1580.22  1580.38  1582.85
eigval :     1587.39  1591.55  1595.85  1600.72  1603.32  1615.98
eigval :     3016.92  3017.58  3018.12  3018.56  3022.47  3022.54
eigval :     3023.39  3023.75  3026.07  3026.18  3029.76  3029.93
eigval :     3034.71  3034.83  3043.67  3043.93  3047.11  3047.16
eigval :     3074.95  3075.47  3075.73  3077.47  3078.73  3079.57
eigval :     3080.36  3081.26  3081.65  3084.99  3085.57  3088.47
eigval :     3088.59  3089.31  3089.90  3091.86  3092.78  3093.84
eigval :     3095.40  3099.61  3100.78  3103.00  3112.91  3116.02

   temp. (K)  partition function   enthalpy   heat capacity  entropy
                                   cal/mol     cal/K/mol   cal/K/mol   J/K/mol
 298.15  VIB  0.226E+22            26208.273    161.444    164.992
         ROT  0.160E+09              888.752      2.981     40.522
         INT  0.362E+30            27097.025    164.425    205.514
         TR   0.161E+29             1481.254      4.968     45.281
         TOT                       28578.2793   169.3927   250.7946  1049.3246

       T/K    H(0)-H(T)+PV         H(T)/Eh          T*S/Eh         G(T)/Eh
   ------------------------------------------------------------------------
    298.15    0.455424E-01    0.789579E+00    0.119161E+00    0.670418E+00
   ------------------------------------------------------------------------

         :::::::::::::::::::::::::::::::::::::::::::::::::::::
         ::                  THERMODYNAMIC                  ::
         :::::::::::::::::::::::::::::::::::::::::::::::::::::
         :: total free energy        -131.069900940974 Eh   ::
         ::.................................................::
         :: total energy             -131.740318926740 Eh   ::
         :: zero point energy           0.744036209906 Eh   ::
         :: G(RRHO) w/o ZPVE           -0.073618224140 Eh   ::
         :: G(RRHO) contrib.            0.670417985766 Eh   ::
         :::::::::::::::::::::::::::::::::::::::::::::::::::::

           -------------------------------------------------
          | TOTAL ENERGY             -131.740318926740 Eh   |
          | TOTAL ENTHALPY           -130.950740329888 Eh   |
          | TOTAL FREE ENERGY        -131.069900940974 Eh   |
          | GRADIENT NORM               0.000059206937 Eh/α |
          | HOMO-LUMO GAP               2.326567369347 eV   |
           -------------------------------------------------

 * finished run on 2025/09/04 at 23:09:08.080
