   * xtb version 6.7.1 (edcfbbe) compiled by 'albert@albert-system' on 2024-07-22

   ID    Z sym.   atoms
    1    6 C      1-20, 22-30, 33-39, 41-50
    2    7 N      21, 31, 32, 40
    3    1 H      51-92

          program call               : xtb data2507/toluene/DTPCZTZ/DTPCZTZ_toluene_T1_crest.xyz --gfn 2 --uhf 2 --gbsa toluene --ohess vtight --parallel 40 --molden --ceasefiles --namespace data2507/toluene/DTPCZTZ/DTPCZTZ_toluene_T1_finalOpt
      * Solvation model:               GBSA
        Solvent                        toluene
        Solvent mass                       9.2140E+01 g/mol
          :  Hamiltonian                  GFN2-xTB          :
 * total energy  :  -131.6512859 Eh     change       -0.3047433E-08 Eh
 * total energy  :  -131.6513505 Eh     change       -0.6457431E-04 Eh
 * total energy  :  -131.6513810 Eh     change       -0.3047239E-04 Eh
 * total energy  :  -131.6513878 Eh     change       -0.6860415E-05 Eh
 * total energy  :  -131.6513927 Eh     change       -0.4837882E-05 Eh
 * total energy  :  -131.6513960 Eh     change       -0.3288689E-05 Eh
 * total energy  :  -131.6513988 Eh     change       -0.2810494E-05 Eh
 * total energy  :  -131.6514003 Eh     change       -0.1490633E-05 Eh
 * total energy  :  -131.6514011 Eh     change       -0.8407507E-06 Eh
 * total energy  :  -131.6514018 Eh     change       -0.7270473E-06 Eh
 * total energy  :  -131.6514051 Eh     change       -0.6997186E-06 Eh
 * total energy  :  -131.6514056 Eh     change       -0.5510093E-06 Eh
 * total energy  :  -131.6514061 Eh     change       -0.5056328E-06 Eh
 * total energy  :  -131.6514066 Eh     change       -0.4821038E-06 Eh
 * total energy  :  -131.6514070 Eh     change       -0.4447021E-06 Eh
 * total energy  :  -131.6514074 Eh     change       -0.3891786E-06 Eh
 * total energy  :  -131.6514077 Eh     change       -0.3105025E-06 Eh
 * total energy  :  -131.6514081 Eh     change       -0.3066864E-06 Eh
 * total energy  :  -131.6514081 Eh     change       -0.1135740E-07 Eh
   *** GEOMETRY OPTIMIZATION CONVERGED AFTER 22 ITERATIONS ***

 final structure:
================
92
 xtb: 6.7.1 (edcfbbe)
C           -7.55540593424550        4.94481830397031       -1.93078485990040
C           -7.67012058309570        4.31404598294730       -0.53458346627940
C           -9.13061390757703        3.90877173731098       -0.31277562383920
C           -7.29542185877659        5.35029792997281        0.53630231456324
C           -6.71426677039073        3.13493741218121       -0.43950678353767
C           -5.34093490099850        3.35833969701243       -0.60854078289884
C           -4.39996906342553        2.35166414011725       -0.52111060811909
C           -4.84305407450465        1.06651461296902       -0.23915623497163
C           -6.22593334641296        0.80774312134705       -0.11057742827148
C           -7.14971294139287        1.83605267829589       -0.20404662960650
C           -6.35660546043767       -0.61238221619825        0.09473783730297
C           -7.44967237186051       -1.43825171741995        0.30137524553309
C           -7.25692925756065       -2.79945188331238        0.50637946407090
C           -8.41066160523398       -3.76543232197287        0.72642258314108
C           -9.77691606020454       -3.07474421690193        0.67297864806558
C           -8.37751402294516       -4.84267746674580       -0.36860973962884
C           -8.26074088590309       -4.42226485900661        2.10722451568595
C           -5.94500898032969       -3.29253576343957        0.52414710664944
C           -4.83887424581441       -2.49126664783227        0.32247428535452
C           -5.04636106645801       -1.14044815503314        0.07831448457470
N           -4.13725920860683       -0.11742542473997       -0.12308520530504
C           -2.75902176033544       -0.25180978179214       -0.19045794436731
C           -1.91291822727014        0.65140548137779        0.47921442956763
C           -0.55526762580002        0.52018995480623        0.41247393898709
C            0.06804212138989       -0.52115034619900       -0.33278037366535
C            1.48008460655299       -0.65268468683110       -0.40582035045098
C            2.11376033322616       -1.86711428208137       -0.81530606085410
C            3.46338200910680       -1.99446943451754       -0.86097849759074
C            4.33086180917174       -0.91873482350875       -0.50303615740713
C            5.71898607194053       -1.13627620169805       -0.57478394685222
N            6.25561722203242       -2.18912735452045       -1.21143744419821
N            7.55822646588936       -2.07651924921640       -1.20553114404894
C            7.90559629175756       -0.97932124597892       -0.55269403082530
C            9.27786844744985       -0.61029539809121       -0.31905234332526
C            9.69648069711922        0.13943318291508        0.78620251365219
C           11.03408676564471        0.43540535128050        0.95968506964173
C           11.97961435902959       -0.00954239121125        0.04841269977373
C           11.57788315653290       -0.77610585012783       -1.03751579261677
C           10.24535635264986       -1.07732380795316       -1.22014308694530
N            6.76303999625198       -0.32681292390518       -0.12541416642038
C            6.69725858512416        0.86438169121645        0.61053303225873
C            6.07035809031553        0.88508688312109        1.85605700283773
C            6.02522201637061        2.06082286245296        2.58070940984014
C            6.60464268966018        3.21592097301776        2.07744848778829
C            7.22945535788165        3.19409286478451        0.84004477860720
C            7.27842013380057        2.02542144322908        0.10381069871646
C            3.71036998483850        0.31270796374005       -0.15013244718572
C            2.35731392235844        0.42965964313913       -0.09406626371900
C           -0.81114177794001       -1.42125902163901       -0.99943792953427
C           -2.16894321956738       -1.29371456037896       -0.92962246111780
H           -8.25256965875100        5.77495252786089       -2.02287591275857
H           -6.55328464322735        5.32080592115062       -2.11706807074284
H           -7.79173993382989        4.20926060201232       -2.69730560481472
H           -9.26971418332497        3.46832016946652        0.67198468821359
H           -9.76385424797897        4.79136900794884       -0.37728734800795
H           -9.46198195758124        3.20396240867080       -1.07195568020721
H           -7.98328818576869        6.19225889881512        0.49644264768600
H           -6.28755683424063        5.72858819570559        0.39010864301988
H           -7.35255067389618        4.90506701159903        1.52779943237159
H           -4.98978474741861        4.35570900403512       -0.82303705856485
H           -3.35481598608982        2.56455185474845       -0.68425606547954
H           -8.19583768004827        1.60460463035056       -0.09705208083834
H           -8.43464168346891       -1.00320683487525        0.30537163722970
H          -10.56112159834175       -3.81388882902883        0.82410810959191
H           -9.86879711893942       -2.32546114543064        1.45603745509571
H           -9.94131648497730       -2.60580561646996       -0.29454088448859
H           -9.20846471615086       -5.53268567594125       -0.23796396011065
H           -7.45413752618161       -5.41429773534377       -0.33781181405621
H           -8.46191237246342       -4.38322160846840       -1.35163267469727
H           -9.09515127342823       -5.09551968343868        2.29196789193249
H           -7.34042483092362       -4.99520915934825        2.17837215900251
H           -8.25073166072546       -3.66263729216877        2.88655639457178
H           -5.77674088460652       -4.34201134174013        0.70930519298991
H           -3.84532253450887       -2.90911198178797        0.37214244381241
H           -2.35215404787189        1.42209179350728        1.09548904347260
H            0.05731975244353        1.19762440288255        0.98581128190950
H            1.50512615970978       -2.72421997453310       -1.05834502737331
H            3.92617347737784       -2.92356175610145       -1.15668896442137
H            8.98026545092084        0.46825015103323        1.52375385848280
H           11.34180741383505        1.01412346590620        1.81874940485028
H           13.02299520949699        0.23058405788814        0.18826398475347
H           12.31093409573353       -1.13687030050307       -1.74432680492865
H            9.91862148817711       -1.67419594663950       -2.05802058149625
H            5.62284315149934       -0.02086075266112        2.23927107453671
H            5.54022495810996        2.07285293696929        3.54541875626802
H            6.56941099382201        4.13096294174765        2.64875594444540
H            7.67883812209061        4.09206231279931        0.44306065382205
H            7.76406768013669        1.99801712862249       -0.86104229809331
H            4.32197985011034        1.18042375702134        0.04344625658122
H            1.93703597876184        1.39482050879970        0.14504482775198
H           -0.39754234335913       -2.19809807514788       -1.62228897332952
H           -2.80362067182892       -1.96311253526358       -1.49114881842221

          :  Hamiltonian                  GFN2-xTB          :
         :: gradient norm              0.000061436701 Eh/a0 ::
         :: HOMO-LUMO gap              0.633905431070 eV    ::
         :: SCC energy              -133.974325988123 Eh    ::
         :: -> dispersion             -0.117910684472 Eh    ::
         :: -> Gsolv                  -0.056866521918 Eh    ::
         :: repulsion energy           2.322917920982 Eh    ::

    * Orbital Energies and Occupations

         #    Occupation            Energy/Eh            Energy/eV
      -------------------------------------------------------------
         1        2.0000           -0.6905941             -18.7920
       ...           ...                  ...                  ...
       112        2.0000           -0.4109808             -11.1834
       113        2.0000           -0.4088088             -11.1243
       114        2.0000           -0.4072210             -11.0810
       115        2.0000           -0.4050319             -11.0215
       116        2.0000           -0.4043289             -11.0024
       117        2.0000           -0.4038367             -10.9890
       118        2.0000           -0.4020202             -10.9395
       119        2.0000           -0.3917897             -10.6611
       120        2.0000           -0.3827960             -10.4164
       121        2.0000           -0.3716588             -10.1133
       122        1.9409           -0.3619898              -9.8502
       123        1.0591           -0.3567315              -9.7072
       124        1.0000           -0.2756588              -7.5011 (HOMO)
       125        0.0000           -0.2523633              -6.8672 (LUMO)
       126                         -0.2481639              -6.7529
       127                         -0.2372275              -6.4553
       128                         -0.2366430              -6.4394
       129                         -0.2280402              -6.2053
       130                         -0.2242818              -6.1030
       131                         -0.2241998              -6.1008
       132                         -0.2222019              -6.0464
       133                         -0.2120016              -5.7689
       134                         -0.1973258              -5.3695
       135                         -0.1927498              -5.2450
       ...                                ...                  ...
       242                          0.7315662              19.9069
      -------------------------------------------------------------
                  HL-Gap            0.0232955 Eh            0.6339 eV

     #   Z          covCN         q      C6AA      α(0)
     1   6 C        3.761    -0.106    22.572     6.773
     2   6 C        3.902     0.026    20.075     6.369
     3   6 C        3.761    -0.109    22.628     6.781
     4   6 C        3.761    -0.106    22.575     6.773
     5   6 C        2.973     0.008    27.828     8.653
     6   6 C        2.929    -0.038    28.950     8.824
     7   6 C        2.908    -0.045    29.120     8.848
     8   6 C        3.075     0.041    26.997     8.519
     9   6 C        3.063    -0.014    28.304     8.724
    10   6 C        2.917    -0.040    29.000     8.831
    11   6 C        3.063    -0.014    28.304     8.724
    12   6 C        2.917    -0.040    29.000     8.831
    13   6 C        2.973     0.008    27.825     8.653
    14   6 C        3.903     0.026    20.074     6.369
    15   6 C        3.761    -0.109    22.628     6.781
    16   6 C        3.761    -0.106    22.575     6.773
    17   6 C        3.761    -0.106    22.573     6.773
    18   6 C        2.929    -0.038    28.947     8.823
    19   6 C        2.908    -0.045    29.118     8.848
    20   6 C        3.074     0.041    26.997     8.519
    21   7 N        2.798    -0.007    21.400     6.871
    22   6 C        2.911     0.047    26.939     8.511
    23   6 C        2.913    -0.042    29.054     8.839
    24   6 C        2.919    -0.039    28.974     8.827
    25   6 C        2.967     0.007    27.852     8.657
    26   6 C        2.968    -0.005    28.133     8.700
    27   6 C        2.914    -0.038    28.954     8.824
    28   6 C        2.919    -0.039    28.960     8.825
    29   6 C        2.968    -0.020    28.496     8.756
    30   6 C        3.079     0.128    25.111     8.215
    31   7 N        2.053    -0.213    26.365     7.617
    32   7 N        2.046    -0.199    26.055     7.572
    33   6 C        3.091     0.133    25.000     8.195
    34   6 C        2.972    -0.008    28.220     8.714
    35   6 C        2.920    -0.039    28.961     8.825
    36   6 C        2.918    -0.031    28.764     8.795
    37   6 C        2.919    -0.033    28.820     8.803
    38   6 C        2.917    -0.029    28.725     8.789
    39   6 C        2.928    -0.033    28.829     8.805
    40   7 N        2.813    -0.081    22.807     7.093
    41   6 C        2.910     0.065    26.555     8.450
    42   6 C        2.920    -0.040    29.006     8.832
    43   6 C        2.919    -0.028    28.704     8.786
    44   6 C        2.919    -0.034    28.840     8.807
    45   6 C        2.919    -0.028    28.692     8.784
    46   6 C        2.921    -0.041    29.025     8.835
    47   6 C        2.910    -0.045    29.114     8.848
    48   6 C        2.915    -0.038    28.943     8.822
    49   6 C        2.919    -0.039    28.962     8.825
    50   6 C        2.913    -0.042    29.050     8.838
    51   1 H        0.925     0.041     2.440     2.443
    52   1 H        0.925     0.038     2.482     2.463
    53   1 H        0.925     0.034     2.526     2.486
    54   1 H        0.925     0.038     2.475     2.460
    55   1 H        0.925     0.039     2.464     2.455
    56   1 H        0.925     0.038     2.476     2.460
    57   1 H        0.925     0.040     2.442     2.444
    58   1 H        0.925     0.038     2.479     2.462
    59   1 H        0.925     0.034     2.525     2.485
    60   1 H        0.926     0.039     2.460     2.453
    61   1 H        0.926     0.038     2.473     2.459
    62   1 H        0.926     0.049     2.328     2.386
    63   1 H        0.926     0.049     2.328     2.386
    64   1 H        0.925     0.039     2.464     2.455
    65   1 H        0.925     0.038     2.476     2.461
    66   1 H        0.925     0.038     2.475     2.460
    67   1 H        0.925     0.041     2.442     2.444
    68   1 H        0.925     0.038     2.478     2.462
    69   1 H        0.925     0.034     2.525     2.485
    70   1 H        0.925     0.041     2.439     2.442
    71   1 H        0.925     0.038     2.480     2.463
    72   1 H        0.925     0.034     2.527     2.486
    73   1 H        0.926     0.039     2.457     2.451
    74   1 H        0.926     0.039     2.468     2.457
    75   1 H        0.926     0.041     2.437     2.441
    76   1 H        0.926     0.037     2.489     2.467
    77   1 H        0.926     0.032     2.555     2.500
    78   1 H        0.926     0.039     2.463     2.454
    79   1 H        0.926     0.023     2.689     2.564
    80   1 H        0.926     0.034     2.529     2.487
    81   1 H        0.926     0.037     2.494     2.470
    82   1 H        0.926     0.037     2.487     2.466
    83   1 H        0.926     0.043     2.414     2.430
    84   1 H        0.926     0.033     2.542     2.493
    85   1 H        0.926     0.043     2.412     2.428
    86   1 H        0.926     0.043     2.404     2.425
    87   1 H        0.926     0.042     2.416     2.431
    88   1 H        0.926     0.031     2.570     2.507
    89   1 H        0.926     0.017     2.778     2.606
    90   1 H        0.926     0.030     2.592     2.517
    91   1 H        0.926     0.038     2.472     2.458
    92   1 H        0.926     0.041     2.433     2.439

molecular dipole:
                 x           y           z       tot (Debye)
 q only:       -4.762       1.542       0.876
   full:       -4.578       1.996       1.151      13.027

 projected vibrational frequencies (cm⁻¹)
eigval :       -0.00     0.00     0.00     0.00     0.00     0.00
eigval :        2.67     8.54    13.78    21.27    25.24    28.31
eigval :       31.13    33.70    42.13    48.78    53.34    64.71
eigval :       73.30    77.44    80.72    94.37   100.82   110.85
eigval :      117.78   123.81   130.36   157.48   161.75   167.57
eigval :      181.82   187.65   202.60   218.96   223.24   226.19
eigval :      230.79   235.29   239.44   245.82   258.13   264.45
eigval :      274.61   293.93   314.01   318.22   320.13   326.11
eigval :      337.70   342.80   347.95   357.23   364.38   371.00
eigval :      373.90   380.46   381.44   385.39   387.90   400.83
eigval :      406.54   411.36   430.03   441.23   441.99   445.76
eigval :      458.74   465.23   467.32   472.55   478.00   499.16
eigval :      509.52   516.94   566.59   569.69   575.32   583.99
eigval :      585.12   589.16   596.47   599.15   603.61   624.98
eigval :      632.11   641.59   645.55   653.94   658.70   666.71
eigval :      673.67   684.26   692.20   702.73   707.81   716.77
eigval :      720.61   750.27   755.50   767.10   791.77   801.06
eigval :      804.92   818.69   826.22   829.24   831.24   863.70
eigval :      869.99   870.47   871.38   872.04   888.89   894.75
eigval :      903.85   905.09   907.33   909.36   911.74   921.21
eigval :      922.36   923.10   923.55   925.61   926.04   926.58
eigval :      928.02   936.32   938.83   951.35   958.69   958.92
eigval :      961.92   962.22   962.72   963.53   973.60   988.88
eigval :     1005.30  1020.33  1028.97  1033.15  1033.35  1034.46
eigval :     1039.16  1075.05  1078.38  1088.72  1107.84  1115.17
eigval :     1119.85  1126.97  1132.59  1133.81  1138.17  1150.11
eigval :     1161.90  1163.64  1177.55  1178.26  1189.65  1193.50
eigval :     1201.72  1208.42  1223.11  1223.27  1226.85  1227.60
eigval :     1228.35  1233.48  1237.89  1238.31  1253.33  1258.03
eigval :     1266.36  1273.36  1276.37  1276.77  1286.05  1287.32
eigval :     1297.25  1305.21  1313.84  1323.26  1325.20  1328.90
eigval :     1337.58  1348.33  1363.61  1367.20  1390.19  1398.83
eigval :     1401.43  1401.54  1401.87  1406.86  1407.26  1416.13
eigval :     1422.06  1425.70  1425.84  1430.28  1433.24  1433.79
eigval :     1457.41  1458.44  1459.16  1466.76  1473.71  1474.56
eigval :     1484.74  1488.36  1488.48  1490.33  1490.48  1495.68
eigval :     1497.00  1497.19  1501.37  1502.28  1511.15  1511.66
eigval :     1515.95  1517.18  1552.11  1557.58  1560.44  1564.00
eigval :     1568.53  1574.57  1574.96  1578.40  1589.17  1597.77
eigval :     3021.15  3021.69  3022.03  3022.30  3025.25  3025.44
eigval :     3026.28  3026.71  3028.98  3029.17  3031.95  3032.11
eigval :     3037.07  3037.31  3045.12  3046.39  3048.55  3049.74
eigval :     3071.35  3074.82  3076.93  3077.97  3078.83  3081.55
eigval :     3082.20  3084.98  3085.84  3087.65  3088.37  3088.87
eigval :     3089.06  3096.00  3098.03  3098.94  3099.14  3099.42
eigval :     3099.58  3100.17  3101.70  3105.68  3121.15  3123.79

   temp. (K)  partition function   enthalpy   heat capacity  entropy
                                   cal/mol     cal/K/mol   cal/K/mol   J/K/mol
 298.15  VIB  0.366E+22            26463.860    163.507    166.302
         ROT  0.163E+09              888.752      2.981     40.562
         INT  0.598E+30            27352.612    166.488    206.864
         TR   0.161E+29             1481.254      4.968     45.281
         TOT                       28833.8658   171.4563   252.1448  1054.9740

       T/K    H(0)-H(T)+PV         H(T)/Eh          T*S/Eh         G(T)/Eh
   ------------------------------------------------------------------------
    298.15    0.459497E-01    0.785994E+00    0.119802E+00    0.666192E+00
   ------------------------------------------------------------------------

         :::::::::::::::::::::::::::::::::::::::::::::::::::::
         ::                  THERMODYNAMIC                  ::
         :::::::::::::::::::::::::::::::::::::::::::::::::::::
         :: total free energy        -130.985216067942 Eh   ::
         ::.................................................::
         :: total energy             -131.651408066722 Eh   ::
         :: zero point energy           0.740044456036 Eh   ::
         :: G(RRHO) w/o ZPVE           -0.073852457256 Eh   ::
         :: G(RRHO) contrib.            0.666191998780 Eh   ::
         :::::::::::::::::::::::::::::::::::::::::::::::::::::

           -------------------------------------------------
          | TOTAL ENERGY             -131.651408066722 Eh   |
          | TOTAL ENTHALPY           -130.865413920702 Eh   |
          | TOTAL FREE ENERGY        -130.985216067942 Eh   |
          | GRADIENT NORM               0.000061360029 Eh/α |
          | HOMO-LUMO GAP               0.633903938376 eV   |
           -------------------------------------------------

 * finished run on 2025/09/04 at 23:19:15.056
