   * xtb version 6.7.1 (edcfbbe) compiled by 'albert@albert-system' on 2024-07-22

   ID    Z sym.   atoms
    1    6 C      1-20, 22-30, 33-39, 41-50
    2    7 N      21, 31, 32, 40
    3    1 H      51-92

          program call               : xtb data2507/toluene/DTPCZTZ/DTPCZTZ.xyz --gfn 2 --gbsa toluene --ohess vtight --parallel 40 --molden --ceasefiles --namespace data2507/toluene/DTPCZTZ/DTPCZTZ_toluene_S0_preOpt
      * Solvation model:               GBSA
        Solvent                        toluene
        Solvent mass                       9.2140E+01 g/mol
          :  Hamiltonian                  GFN2-xTB          :
 * total energy  :  -131.7190953 Eh     change       -0.4819100E-08 Eh
 * total energy  :  -131.7318409 Eh     change       -0.1274563E-01 Eh
 * total energy  :  -131.7350679 Eh     change       -0.3226955E-02 Eh
 * total energy  :  -131.7361720 Eh     change       -0.1104123E-02 Eh
 * total energy  :  -131.7371075 Eh     change       -0.9354748E-03 Eh
 * total energy  :  -131.7376282 Eh     change       -0.5207502E-03 Eh
 * total energy  :  -131.7380409 Eh     change       -0.4127101E-03 Eh
 * total energy  :  -131.7383886 Eh     change       -0.3477035E-03 Eh
 * total energy  :  -131.7387531 Eh     change       -0.3644690E-03 Eh
 * total energy  :  -131.7391251 Eh     change       -0.3720416E-03 Eh
 * total energy  :  -131.7403341 Eh     change       -0.7965568E-06 Eh
 * total energy  :  -131.7403348 Eh     change       -0.7088423E-06 Eh
 * total energy  :  -131.7403350 Eh     change       -0.1474163E-06 Eh
 * total energy  :  -131.7403354 Eh     change       -0.4040214E-06 Eh
 * total energy  :  -131.7403357 Eh     change       -0.2763282E-06 Eh
 * total energy  :  -131.7403358 Eh     change       -0.1169486E-06 Eh
 * total energy  :  -131.7403359 Eh     change       -0.1111355E-06 Eh
 * total energy  :  -131.7403360 Eh     change       -0.1439033E-06 Eh
 * total energy  :  -131.7403361 Eh     change       -0.9347690E-07 Eh
   *** GEOMETRY OPTIMIZATION CONVERGED AFTER 74 ITERATIONS ***

 final structure:
================
92
 xtb: 6.7.1 (edcfbbe)
C           -6.45063843891282        5.07558714220082       -1.62098760792528
C           -6.55583910594120        4.35223118088033       -0.26998418419189
C           -8.02261059545725        3.96869278113746       -0.05014582767181
C           -6.13878381087499        5.30265896680604        0.86262818058328
C           -5.62882437593898        3.14389196749916       -0.27274023348980
C           -4.25351896784225        3.34562650133519       -0.45468947299982
C           -3.33680525569399        2.31387313264420       -0.45835164828894
C           -3.80649268817209        1.02369660363021       -0.26471678786866
C           -5.18909558666403        0.78914429690778       -0.11082401839518
C           -6.08913338853299        1.84741744545940       -0.11020711410507
C           -5.34975237385892       -0.63415752115699        0.00961083373550
C           -6.45898503854626       -1.44909871288564        0.19830152767824
C           -6.29686191146694       -2.82099114612042        0.30240482313866
C           -7.46652961129736       -3.77458510613560        0.50608160111595
C           -8.81442639161251       -3.04890234381173        0.56336970110037
C           -7.51280286175970       -4.77237845450415       -0.66085723795613
C           -7.27654687475686       -4.53030981588048        1.82989385164424
C           -4.99943307922421       -3.34674595162141        0.22937125222527
C           -3.87988153964776       -2.56137258160735        0.04317273304261
C           -4.05733958279801       -1.19207879764140       -0.08441075993885
N           -3.12875924093928       -0.18100688941846       -0.24835567058994
C           -1.74326912992961       -0.34590708131848       -0.35784619899178
C           -0.88026596297089        0.41456705674626        0.42821230693506
C            0.48576834884450        0.25492352458892        0.31464523920092
C            1.02749334208877       -0.67761469000965       -0.56903466645013
C            2.48184873374366       -0.85197531449303       -0.67919526261790
C            3.04243181810309       -2.12355037951520       -0.80366835462266
C            4.40838466154826       -2.28704665069118       -0.89814621990829
C            5.25681778376194       -1.18016998031556       -0.86923286297649
C            6.68798455727770       -1.39603543234754       -0.98702559453059
N            7.23648593445593       -2.32927232114727       -1.72282543306312
N            8.56550054746968       -2.21999332947605       -1.62334031082023
C            8.84065636988812       -1.22241425810603       -0.82223269415284
C           10.18585308887189       -0.82316148903596       -0.44229309384130
C           10.48821868058568       -0.37032467425607        0.84035029148735
C           11.78568803233180       -0.01521813366194        1.16156427791976
C           12.79236749200074       -0.11283666047820        0.21510550433962
C           12.50106768741624       -0.58276136091809       -1.05614042775167
C           11.20714412558061       -0.93904278919705       -1.38487866579321
N            7.67099610114511       -0.64950492586252       -0.38004316206885
C            7.51417803835190        0.44394351932602        0.49346766783456
C            6.75201806788155        0.30154795488474        1.64797379111327
C            6.59999329526728        1.37916301532486        2.50169551202588
C            7.20770992717995        2.59022951862526        2.21192536092102
C            7.96841788907102        2.72728757694078        1.06195859873163
C            8.12225223987702        1.65885671535018        0.19694235026757
C            4.70165568684156        0.09427854307980       -0.76844178927039
C            3.33393696927586        0.25133500573341       -0.66921895356506
C            0.15639910254092       -1.44012632917562       -1.34595700437744
C           -1.21020956984106       -1.27231178973686       -1.25144621524147
H           -7.12202873981368        5.93185632501054       -1.64077397566420
H           -5.44036542161263        5.43162617237871       -1.80338407900540
H           -6.72573777775554        4.40238094855959       -2.43091305342285
H           -8.15718713594661        3.46956929554525        0.90697234192092
H           -8.63603227806182        4.86781622960642       -0.04952581610774
H           -8.38110497466766        3.31921231168597       -0.84567963884274
H           -6.80808012935292        6.15997730152658        0.89873497718603
H           -5.12558665128225        5.66884185095665        0.72113934781797
H           -6.18461535935500        4.78785630399408        1.82061120546387
H           -3.88137290083164        4.34817849609755       -0.60283766010314
H           -2.28752202604103        2.51260546038621       -0.61872781564669
H           -7.13729835247707        1.63181512346957        0.01390951964483
H           -7.43076609582329       -0.98881134548717        0.26407498414472
H           -9.61201084626816       -3.77605256575082        0.70398073335693
H           -8.84757840653970       -2.34988728973615        1.39614153038482
H           -9.00912398627863       -2.51183761631937       -0.36232803810276
H           -8.35646802783725       -5.44949118893490       -0.54234256362225
H           -6.60473300364932       -5.36695819536848       -0.71131046109321
H           -7.62541959034175       -4.24172040373544       -1.60454350917800
H           -8.11851846942074       -5.19710506350718        2.00520424520590
H           -6.36775380381674       -5.12584932268162        1.82070020407902
H           -7.21417770784263       -3.82673311136981        2.65806382602692
H           -4.85441658088181       -4.41223386315790        0.32523042807153
H           -2.89689051252768       -3.00716566032565        0.01171495512344
H           -1.28924620743471        1.11773422176583        1.13839595663047
H            1.14283472875082        0.83893762051683        0.94211314673921
H            2.40071397515751       -2.99201458822691       -0.80537188566591
H            4.84316624351062       -3.27045119250481       -0.99320858225724
H            9.71589521083603       -0.31120405355198        1.59336243319204
H           12.01020077647230        0.33506873750948        2.15832828109572
H           13.80327165991447        0.16859621339933        0.47004850406636
H           13.28515016713817       -0.67153167228114       -1.79348376423848
H           10.96491946318831       -1.31186944237195       -2.36845872197883
H            6.28543480183823       -0.64819834960357        1.86621805495857
H            6.00770771689093        1.26850713852882        3.39730247377985
H            7.08868237589098        3.42713610272629        2.88291586459512
H            8.44255226574618        3.66946606929809        0.83259927402168
H            8.71032560678432        1.75572051289784       -0.70418079102709
H            5.33672196542451        0.96798402286203       -0.78750038003079
H            2.91835210754985        1.24626961299374       -0.60859025672581
H            0.55689443291077       -2.14928983981503       -2.05516826639692
H           -1.87325165089225       -1.84680684556302       -1.88086796001137

          :  Hamiltonian                  GFN2-xTB          :
         :: gradient norm              0.000083211751 Eh/a0 ::
         :: HOMO-LUMO gap              2.333055154186 eV    ::
         :: SCC energy              -134.082627904063 Eh    ::
         :: -> dispersion             -0.118241837264 Eh    ::
         :: -> Gsolv                  -0.055350497927 Eh    ::
         :: repulsion energy           2.342291774822 Eh    ::

    * Orbital Energies and Occupations

         #    Occupation            Energy/Eh            Energy/eV
      -------------------------------------------------------------
         1        2.0000           -0.7035342             -19.1441
       ...           ...                  ...                  ...
       111        2.0000           -0.4146009             -11.2819
       112        2.0000           -0.4135942             -11.2545
       113        2.0000           -0.4123305             -11.2201
       114        2.0000           -0.4114542             -11.1962
       115        2.0000           -0.4068643             -11.0713
       116        2.0000           -0.4063728             -11.0580
       117        2.0000           -0.4043699             -11.0035
       118        2.0000           -0.4004772             -10.8975
       119        2.0000           -0.3940965             -10.7239
       120        2.0000           -0.3848006             -10.4710
       121        2.0000           -0.3707931             -10.0898
       122        2.0000           -0.3688119             -10.0359
       123        2.0000           -0.3544136              -9.6441 (HOMO)
       124                         -0.2686754              -7.3110 (LUMO)
       125                         -0.2534566              -6.8969
       126                         -0.2449641              -6.6658
       127                         -0.2439320              -6.6377
       128                         -0.2386006              -6.4927
       129                         -0.2322488              -6.3198
       130                         -0.2314500              -6.2981
       131                         -0.2304063              -6.2697
       132                         -0.2234485              -6.0803
       133                         -0.2151092              -5.8534
       134                         -0.1879824              -5.1153
       ...                                ...                  ...
       242                          0.7439404              20.2436
      -------------------------------------------------------------
                  HL-Gap            0.0857382 Eh            2.3331 eV

     #   Z          covCN         q      C6AA      α(0)
     1   6 C        3.761    -0.104    22.537     6.767
     2   6 C        3.902     0.025    20.105     6.374
     3   6 C        3.761    -0.106    22.572     6.773
     4   6 C        3.761    -0.104    22.538     6.768
     5   6 C        2.972    -0.004    28.109     8.697
     6   6 C        2.931    -0.041    29.023     8.835
     7   6 C        2.908    -0.055    29.370     8.886
     8   6 C        3.079     0.043    26.945     8.510
     9   6 C        3.066    -0.022    28.478     8.751
    10   6 C        2.918    -0.046    29.135     8.851
    11   6 C        3.066    -0.022    28.479     8.751
    12   6 C        2.918    -0.046    29.135     8.851
    13   6 C        2.972    -0.003    28.108     8.696
    14   6 C        3.902     0.025    20.105     6.374
    15   6 C        3.761    -0.106    22.572     6.773
    16   6 C        3.761    -0.104    22.538     6.768
    17   6 C        3.761    -0.104    22.538     6.768
    18   6 C        2.931    -0.041    29.020     8.835
    19   6 C        2.908    -0.055    29.371     8.887
    20   6 C        3.078     0.043    26.944     8.510
    21   7 N        2.801    -0.050    22.198     6.998
    22   6 C        2.912     0.064    26.556     8.450
    23   6 C        2.920    -0.044    29.091     8.845
    24   6 C        2.924    -0.033    28.834     8.806
    25   6 C        2.976     0.006    27.880     8.661
    26   6 C        2.976     0.014    27.696     8.633
    27   6 C        2.923    -0.032    28.808     8.802
    28   6 C        2.925    -0.030    28.751     8.793
    29   6 C        2.974    -0.007    28.192     8.709
    30   6 C        3.127     0.137    24.827     8.158
    31   7 N        2.064    -0.220    26.528     7.640
    32   7 N        2.064    -0.220    26.520     7.639
    33   6 C        3.127     0.137    24.836     8.160
    34   6 C        2.974    -0.004    28.126     8.699
    35   6 C        2.922    -0.034    28.846     8.808
    36   6 C        2.919    -0.029    28.718     8.788
    37   6 C        2.919    -0.028    28.690     8.784
    38   6 C        2.918    -0.027    28.666     8.780
    39   6 C        2.927    -0.029    28.733     8.791
    40   7 N        2.829    -0.062    22.445     7.036
    41   6 C        2.912     0.063    26.583     8.454
    42   6 C        2.921    -0.038    28.957     8.824
    43   6 C        2.920    -0.025    28.630     8.774
    44   6 C        2.919    -0.028    28.706     8.786
    45   6 C        2.920    -0.025    28.628     8.774
    46   6 C        2.921    -0.038    28.956     8.824
    47   6 C        2.920    -0.035    28.862     8.810
    48   6 C        2.924    -0.034    28.858     8.810
    49   6 C        2.924    -0.033    28.824     8.804
    50   6 C        2.920    -0.044    29.083     8.844
    51   1 H        0.925     0.037     2.487     2.466
    52   1 H        0.925     0.035     2.515     2.480
    53   1 H        0.925     0.032     2.563     2.504
    54   1 H        0.925     0.035     2.514     2.479
    55   1 H        0.925     0.036     2.504     2.474
    56   1 H        0.925     0.035     2.516     2.481
    57   1 H        0.925     0.037     2.489     2.467
    58   1 H        0.925     0.035     2.511     2.478
    59   1 H        0.925     0.032     2.561     2.502
    60   1 H        0.926     0.029     2.607     2.525
    61   1 H        0.926     0.025     2.657     2.549
    62   1 H        0.926     0.036     2.496     2.470
    63   1 H        0.926     0.037     2.495     2.470
    64   1 H        0.925     0.036     2.504     2.474
    65   1 H        0.925     0.035     2.515     2.480
    66   1 H        0.925     0.035     2.514     2.480
    67   1 H        0.925     0.037     2.489     2.467
    68   1 H        0.925     0.035     2.512     2.479
    69   1 H        0.925     0.032     2.561     2.503
    70   1 H        0.925     0.037     2.487     2.466
    71   1 H        0.925     0.035     2.514     2.479
    72   1 H        0.925     0.032     2.563     2.504
    73   1 H        0.926     0.029     2.605     2.524
    74   1 H        0.926     0.025     2.654     2.547
    75   1 H        0.926     0.043     2.415     2.430
    76   1 H        0.926     0.041     2.433     2.439
    77   1 H        0.926     0.044     2.394     2.420
    78   1 H        0.926     0.045     2.383     2.414
    79   1 H        0.926     0.027     2.630     2.536
    80   1 H        0.926     0.040     2.443     2.444
    81   1 H        0.926     0.043     2.409     2.427
    82   1 H        0.926     0.043     2.409     2.427
    83   1 H        0.926     0.045     2.385     2.415
    84   1 H        0.926     0.037     2.490     2.468
    85   1 H        0.926     0.049     2.328     2.386
    86   1 H        0.926     0.051     2.313     2.378
    87   1 H        0.926     0.049     2.329     2.386
    88   1 H        0.926     0.037     2.492     2.469
    89   1 H        0.926     0.027     2.626     2.534
    90   1 H        0.926     0.042     2.427     2.436
    91   1 H        0.926     0.042     2.426     2.436
    92   1 H        0.926     0.043     2.414     2.430

molecular dipole:
                 x           y           z       tot (Debye)
 q only:       -0.238       1.533       1.233
   full:       -0.163       1.951       1.565       6.371

 projected vibrational frequencies (cm⁻¹)
eigval :       -0.00    -0.00    -0.00     0.00     0.00     0.00
eigval :        5.87     8.37    11.76    21.76    25.96    26.53
eigval :       35.11    36.02    38.57    50.55    54.98    63.84
eigval :       68.41    70.25    76.73    88.22    97.29   108.55
eigval :      116.55   118.68   125.48   142.88   160.05   173.80
eigval :      182.18   193.40   201.51   216.80   221.17   225.11
eigval :      230.30   235.59   236.91   255.82   256.67   259.13
eigval :      281.19   305.89   313.21   319.21   323.85   337.80
eigval :      339.07   341.96   353.74   358.44   372.29   375.12
eigval :      377.98   380.72   384.29   386.50   393.78   405.94
eigval :      410.26   429.52   440.48   441.14   445.09   458.58
eigval :      465.20   467.96   480.47   484.47   500.53   506.78
eigval :      518.29   539.43   572.05   577.07   582.28   584.80
eigval :      585.40   593.46   604.82   608.74   629.75   640.34
eigval :      646.24   658.02   663.87   676.44   684.94   685.73
eigval :      687.80   691.64   706.21   708.05   711.89   720.68
eigval :      726.84   760.96   763.43   782.14   806.93   819.22
eigval :      821.56   830.63   833.26   867.05   869.95   871.79
eigval :      872.29   872.94   873.41   877.81   898.10   904.16
eigval :      909.43   912.48   916.75   919.80   924.14   924.23
eigval :      925.39   926.28   927.12   929.91   932.23   932.37
eigval :      939.41   950.24   958.80   958.92   959.75   961.43
eigval :      962.06   963.39   964.17   976.61  1001.35  1016.17
eigval :     1030.64  1033.84  1034.97  1035.85  1039.26  1040.97
eigval :     1077.13  1078.49  1080.54  1108.02  1114.67  1115.27
eigval :     1118.65  1128.00  1134.44  1141.64  1142.02  1164.33
eigval :     1174.00  1176.78  1178.28  1184.53  1187.66  1190.52
eigval :     1196.97  1200.36  1212.84  1225.56  1225.66  1229.27
eigval :     1230.59  1236.64  1243.26  1258.87  1264.50  1269.77
eigval :     1273.51  1277.56  1283.86  1286.32  1302.17  1307.03
eigval :     1308.16  1312.72  1313.24  1317.00  1317.68  1319.53
eigval :     1345.32  1357.39  1376.95  1382.40  1396.33  1399.93
eigval :     1401.10  1402.24  1404.39  1409.34  1415.97  1426.06
eigval :     1427.61  1427.66  1431.67  1439.06  1450.52  1460.04
eigval :     1477.58  1480.91  1483.93  1487.80  1489.49  1492.23
eigval :     1492.73  1497.33  1499.15  1499.93  1501.20  1502.85
eigval :     1511.09  1511.72  1517.86  1518.84  1528.63  1532.00
eigval :     1553.52  1563.64  1570.03  1579.94  1580.23  1582.55
eigval :     1587.21  1591.52  1595.99  1600.67  1603.06  1615.91
eigval :     3016.72  3017.71  3018.07  3018.86  3021.93  3022.21
eigval :     3022.88  3024.04  3025.49  3026.05  3029.57  3029.71
eigval :     3034.46  3034.69  3043.57  3044.26  3046.79  3047.49
eigval :     3075.24  3075.42  3076.34  3077.38  3078.63  3079.79
eigval :     3081.47  3081.87  3082.21  3084.66  3085.03  3088.23
eigval :     3088.59  3089.51  3089.92  3092.09  3092.86  3094.61
eigval :     3095.70  3099.18  3100.01  3102.84  3112.78  3115.65

   temp. (K)  partition function   enthalpy   heat capacity  entropy
                                   cal/mol     cal/K/mol   cal/K/mol   J/K/mol
 298.15  VIB  0.201E+22            26233.084    161.487    164.972
         ROT  0.160E+09              888.752      2.981     40.518
         INT  0.321E+30            27121.836    164.468    205.490
         TR   0.161E+29             1481.254      4.968     45.281
         TOT                       28603.0902   169.4361   250.7708  1049.2249

       T/K    H(0)-H(T)+PV         H(T)/Eh          T*S/Eh         G(T)/Eh
   ------------------------------------------------------------------------
    298.15    0.455819E-01    0.789487E+00    0.119149E+00    0.670338E+00
   ------------------------------------------------------------------------

         :::::::::::::::::::::::::::::::::::::::::::::::::::::
         ::                  THERMODYNAMIC                  ::
         :::::::::::::::::::::::::::::::::::::::::::::::::::::
         :: total free energy        -131.069998236441 Eh   ::
         ::.................................................::
         :: total energy             -131.740336129868 Eh   ::
         :: zero point energy           0.743905249558 Eh   ::
         :: G(RRHO) w/o ZPVE           -0.073567356131 Eh   ::
         :: G(RRHO) contrib.            0.670337893427 Eh   ::
         :::::::::::::::::::::::::::::::::::::::::::::::::::::

           -------------------------------------------------
          | TOTAL ENERGY             -131.740336129868 Eh   |
          | TOTAL ENTHALPY           -130.950848954669 Eh   |
          | TOTAL FREE ENERGY        -131.069998236441 Eh   |
          | GRADIENT NORM               0.000083208427 Eh/α |
          | HOMO-LUMO GAP               2.333055057748 eV   |
           -------------------------------------------------

 * finished run on 2025/09/04 at 23:01:51.815
