   * xtb version 6.7.1 (edcfbbe) compiled by 'albert@albert-system' on 2024-07-22

   ID    Z sym.   atoms
    1    6 C      1-6, 8-13, 15-36, 38-43, 45-53
    2    8 O      7, 44
    3    7 N      14, 37
    4    1 H      54-83

          program call               : xtb data2507/gas/SBF-PXZ/SBF-PXZ_gas_S0_finalOpt.xtbopt.xyz --gfn 2 --spinpol --tblite --uhf 2 --ohess vtight --parallel 40 --molden --ceasefiles --namespace data2507/gas/SBF-PXZ/SBF-PXZ_gas_T1_preOpt
 * total energy  :  -134.2039536 Eh     change        0.1253309E-07 Eh
 * total energy  :  -134.2077062 Eh     change       -0.3752593E-02 Eh
 * total energy  :  -134.2092579 Eh     change       -0.1551656E-02 Eh
 * total energy  :  -134.2095762 Eh     change       -0.3183719E-03 Eh
 * total energy  :  -134.2097157 Eh     change       -0.1394733E-03 Eh
 * total energy  :  -134.2097503 Eh     change       -0.3463777E-04 Eh
 * total energy  :  -134.2097684 Eh     change       -0.1810118E-04 Eh
 * total energy  :  -134.2097807 Eh     change       -0.1227849E-04 Eh
 * total energy  :  -134.2097965 Eh     change       -0.1577345E-04 Eh
 * total energy  :  -134.2098084 Eh     change       -0.1191412E-04 Eh
 * total energy  :  -134.2099664 Eh     change       -0.8918419E-06 Eh
 * total energy  :  -134.2099673 Eh     change       -0.9129570E-06 Eh
 * total energy  :  -134.2099682 Eh     change       -0.8581449E-06 Eh
 * total energy  :  -134.2099690 Eh     change       -0.8246670E-06 Eh
 * total energy  :  -134.2099698 Eh     change       -0.7394328E-06 Eh
 * total energy  :  -134.2099705 Eh     change       -0.6893486E-06 Eh
 * total energy  :  -134.2099720 Eh     change       -0.1563888E-05 Eh
 * total energy  :  -134.2099726 Eh     change       -0.5705424E-06 Eh
 * total energy  :  -134.2099726 Eh     change       -0.1182462E-07 Eh
   *** GEOMETRY OPTIMIZATION CONVERGED AFTER 68 ITERATIONS ***

 final structure:
================
83
 xtb: 6.7.1 (edcfbbe)
C            7.40844938079122        2.93190390443007        2.27622823417881
C            6.04455889376090        3.05393019097480        2.47694208308117
C            5.17470009222358        2.09510232495717        1.99121760845079
C            5.65479993319041        0.98059646033637        1.30333601283570
C            7.03644823738699        0.89200899402053        1.06554711266518
C            7.90112281850990        1.85459038675335        1.55667268026677
O            7.58507044958396       -0.12062133206446        0.32761358925185
C            6.73574959587021       -1.06442725246567       -0.18206617914623
C            7.30448357112212       -2.07913246088081       -0.93277490095624
C            6.51291919697127       -3.09373062735396       -1.44677156535050
C            5.15489255786960       -3.10057524808683       -1.18245497671528
C            4.57978767732377       -2.09186414304360       -0.43099508425419
C            5.35201207937409       -1.03867844582490        0.05893609363839
N            4.80647108458656       -0.00477913930844        0.81354814809400
C            3.43002996719458        0.02789228835329        1.09347430450549
C            2.98064440920874        0.00958862286503        2.43385189277613
C            1.65090186628308       -0.01896648806797        2.73775243542167
C            0.69487417829934       -0.01236535534109        1.68674213256582
C            1.17005424402661        0.02582888805995        0.33016469402225
C            2.49310188533294        0.03907590947045        0.03145001041585
C            0.00101423069542        0.01110403211070       -0.62564268827838
C           -0.06744609843100        1.19524735973523       -1.55803511997296
C           -0.17128204600354        2.53087484773402       -1.23630205833770
C           -0.25055076706318        3.45622893196850       -2.26818393803383
C           -0.22880088559630        3.04573229331720       -3.59292573228612
C           -0.12665365742133        1.70330635249469       -3.92065427678315
C           -0.04640013335877        0.77447743857270       -2.89598406419116
C            0.05661127798508       -0.67589570221246       -2.92004999137572
C            0.14061779892681       -1.56992544982691       -3.97492460865514
C            0.24165429360909       -2.92257046151927       -3.69192741286917
C            0.25863503482366       -3.37715587263955       -2.38159062640216
C            0.17559890775552       -2.48683740077534       -1.31961688880704
C            0.07285721172397       -1.14118315878110       -1.59684744555435
C           -1.17139458404365       -0.03505682408363        0.32502264159436
C           -2.49337366079502       -0.03832311280677        0.02135797394075
C           -3.43408751084051       -0.06127181344339        1.07985671460841
N           -4.80948429158807       -0.01862594492189        0.79622564423138
C           -5.35161874190305        1.03941776175206        0.07326253445550
C           -4.57699073733559        2.10732053677443       -0.37963895518184
C           -5.14868420425310        3.14000537724574       -1.10050801310695
C           -6.50569398769989        3.14253266302954       -1.37007922552296
C           -7.29975629038439        2.11251040619183       -0.89186328406382
C           -6.73442848534994        1.07386326770687       -0.17195158540149
O           -7.58621159384088        0.11482572397611        0.30405954204180
C           -7.04099223236709       -0.92120166248164        1.01139287791539
C           -7.90814197127584       -1.89819367738294        1.46852515944623
C           -7.41886466280595       -2.99828636305336        2.15517669164872
C           -6.05578955535637       -3.12782573826684        2.35673018595405
C           -5.18347926085557       -2.15476183773197        1.90489918365802
C           -5.66027392887272       -1.01845967098621        1.25121562156567
C           -2.98944494417132       -0.08659876740296        2.42171109410153
C           -1.66078184050255       -0.06839157095399        2.73107568070433
C           -0.70102687017128       -0.04106058088490        1.68380127271433
H            8.08818792320370        3.67638277335549        2.65921404563238
H            5.64852841844643        3.90443523571258        3.00999820594960
H            4.11179296886325        2.20834654727518        2.13109812766707
H            8.95498513828640        1.74482862285149        1.35711964137749
H            8.37023553952009       -2.05820324639162       -1.09489431429068
H            6.96216045092358       -3.87868967947313       -2.03420212101000
H            4.53153390551834       -3.89818959035610       -1.55584503526040
H            3.52472398401634       -2.12266855658608       -0.21336556208773
H            3.72174714227304       -0.02284784501309        3.22063217744428
H            1.32013848646578       -0.06430246812396        3.76401820739543
H            2.84198725542530        0.08392184348481       -0.99070232788112
H           -0.19060754383084        2.84833983072700       -0.20349870151701
H           -0.33110047814894        4.50863505605456       -2.03722462403209
H           -0.29377242321242        3.78385741738707       -4.37948022943800
H           -0.11341301810845        1.38909171581771       -4.95404995348025
H            0.13109046855983       -1.22130585125015       -4.99726912767923
H            0.30951619436784       -3.63397059619937       -4.50249741116092
H            0.33841703947700       -4.43670407507229       -2.18568249675736
H            0.19122404657946       -2.83868618181052       -0.29795378555872
H           -2.83862650930604       -0.04986325453001       -1.00294545988045
H           -3.52275121671242        2.13047784716471       -0.15712540755106
H           -4.52347039871011        3.94878282438740       -1.44572360734775
H           -6.95226893767641        3.94622408513913       -1.93373205029633
H           -8.36490115520318        2.09751365450187       -1.05856340240080
H           -8.96119527689453       -1.78123133597353        1.26879043514945
H           -8.10053101244986       -3.75398384129838        2.51186201382914
H           -5.66230750562940       -3.99522402181665        2.86382041442235
H           -4.12116625355335       -2.27335073351583        2.04485345824665
H           -3.73330954609402       -0.07936948655214        3.20651844772382
H           -1.33365684379075       -0.05649377587927        3.75943926371481

 projected vibrational frequencies (cm⁻¹)
eigval :        0.00     0.00     0.00     0.00     0.00     0.00
eigval :        9.48    14.71    16.22    19.66    20.84    20.97
eigval :       33.91    41.87    51.37    61.84    63.47    79.16
eigval :       80.18    96.50   107.81   113.15   119.12   133.77
eigval :      144.48   168.60   179.09   197.23   223.58   231.42
eigval :      236.55   236.89   246.12   251.92   265.70   270.43
eigval :      275.02   281.92   285.93   309.07   329.05   343.00
eigval :      364.63   386.65   387.87   388.48   395.59   398.98
eigval :      411.59   415.04   424.85   426.72   435.15   435.59
eigval :      448.98   455.97   458.42   465.69   469.30   488.66
eigval :      502.78   503.12   503.42   509.32   520.23   529.90
eigval :      531.00   537.86   549.06   561.03   563.07   580.19
eigval :      590.72   593.34   601.68   602.24   610.01   627.57
eigval :      642.00   655.71   662.72   663.46   667.21   667.33
eigval :      668.92   670.70   673.68   699.02   712.33   728.54
eigval :      745.96   755.47   766.78   774.81   775.24   776.90
eigval :      776.95   785.12   786.14   789.91   796.60   809.43
eigval :      852.96   854.26   854.94   856.97   863.24   863.26
eigval :      870.59   875.19   877.94   880.50   880.59   893.89
eigval :      894.11   896.58   897.29   899.72   901.03   903.80
eigval :      905.28   909.36   910.05   910.57   910.91   916.78
eigval :      916.88   917.50   917.58   925.90   926.66   953.32
eigval :      962.80   997.83  1008.21  1060.43  1073.28  1078.17
eigval :     1084.49  1084.99  1086.19  1087.47  1108.42  1111.49
eigval :     1111.71  1116.75  1128.01  1140.02  1142.91  1155.30
eigval :     1157.63  1166.87  1172.14  1172.82  1172.89  1178.19
eigval :     1179.58  1182.11  1185.11  1199.87  1202.72  1207.79
eigval :     1207.91  1209.77  1215.49  1228.52  1232.46  1237.80
eigval :     1239.97  1250.68  1253.89  1254.02  1261.33  1284.95
eigval :     1286.36  1292.61  1307.43  1307.50  1317.22  1317.32
eigval :     1318.14  1328.31  1330.51  1331.23  1342.78  1346.86
eigval :     1366.62  1372.39  1377.38  1401.89  1413.31  1413.42
eigval :     1429.16  1429.53  1440.46  1440.68  1449.10  1449.27
eigval :     1462.44  1465.87  1471.36  1474.13  1481.97  1486.38
eigval :     1522.25  1539.41  1540.36  1548.58  1549.24  1554.12
eigval :     1562.87  1563.13  1580.15  1580.80  1583.82  1587.18
eigval :     1596.32  1603.81  1612.84  3065.54  3065.90  3068.71
eigval :     3069.14  3070.73  3071.02  3073.17  3074.18  3080.13
eigval :     3082.22  3086.67  3087.50  3089.04  3090.43  3092.09
eigval :     3092.11  3092.92  3092.93  3102.01  3102.03  3102.29
eigval :     3102.45  3112.56  3112.59  3113.47  3113.53  3114.21
eigval :     3114.70  3116.88  3117.12

   temp. (K)  partition function   enthalpy   heat capacity  entropy
                                   cal/mol     cal/K/mol   cal/K/mol   J/K/mol
 298.15  VIB  0.156E+19            23483.998    152.331    144.124
         ROT  0.472E+08              888.752      2.981     38.095
         INT  0.738E+26            24372.750    155.312    182.219
         TR   0.171E+29             1481.254      4.968     45.406
         TOT                       25854.0043   160.2804   227.6250   952.3831

       T/K    H(0)-H(T)+PV         H(T)/Eh          T*S/Eh         G(T)/Eh
   ------------------------------------------------------------------------
    298.15    0.412010E-01    0.665558E+00    0.108152E+00    0.557406E+00
   ------------------------------------------------------------------------

         :::::::::::::::::::::::::::::::::::::::::::::::::::::
         ::                  THERMODYNAMIC                  ::
         :::::::::::::::::::::::::::::::::::::::::::::::::::::
         :: total free energy        -133.652566396676 Eh   ::
         ::.................................................::
         :: total energy             -134.209972503932 Eh   ::
         :: zero point energy           0.624357122184 Eh   ::
         :: G(RRHO) w/o ZPVE           -0.066951014928 Eh   ::
         :: G(RRHO) contrib.            0.557406107256 Eh   ::
         :::::::::::::::::::::::::::::::::::::::::::::::::::::

           -------------------------------------------------
          | TOTAL ENERGY             -134.209972503932 Eh   |
          | TOTAL ENTHALPY           -133.544414403288 Eh   |
          | TOTAL FREE ENERGY        -133.652566396676 Eh   |
          | GRADIENT NORM               0.000077360537 Eh/α |
           -------------------------------------------------

 * finished run on 2025/07/18 at 03:45:45.498
