   * xtb version 6.7.1 (edcfbbe) compiled by 'albert@albert-system' on 2024-07-22

   ID    Z sym.   atoms
    1    6 C      1-6, 8-13, 15-36, 38-43, 45-53
    2    8 O      7, 44
    3    7 N      14, 37
    4    1 H      54-83

          program call               : xtb data2507/gas/SBF-PXZ/SBF-PXZ_gas_S0_crest.xyz --gfn 2 --ohess vtight --parallel 40 --molden --ceasefiles --namespace data2507/gas/SBF-PXZ/SBF-PXZ_gas_S0_finalOpt
          :  Hamiltonian                  GFN2-xTB          :
 * total energy  :  -134.2930599 Eh     change       -0.2771003E-08 Eh
 * total energy  :  -134.2930615 Eh     change       -0.1559077E-05 Eh
 * total energy  :  -134.2930633 Eh     change       -0.1834276E-05 Eh
 * total energy  :  -134.2930666 Eh     change       -0.3274290E-05 Eh
 * total energy  :  -134.2930679 Eh     change       -0.1340074E-05 Eh
 * total energy  :  -134.2930695 Eh     change       -0.1605605E-05 Eh
 * total energy  :  -134.2930716 Eh     change       -0.2036195E-05 Eh
 * total energy  :  -134.2930731 Eh     change       -0.1566314E-05 Eh
 * total energy  :  -134.2930741 Eh     change       -0.9716425E-06 Eh
 * total energy  :  -134.2930749 Eh     change       -0.7930804E-06 Eh
 * total energy  :  -134.2930776 Eh     change       -0.7792826E-06 Eh
 * total energy  :  -134.2930785 Eh     change       -0.8860480E-06 Eh
 * total energy  :  -134.2930793 Eh     change       -0.7672529E-06 Eh
 * total energy  :  -134.2930798 Eh     change       -0.5235213E-06 Eh
 * total energy  :  -134.2930802 Eh     change       -0.4301232E-06 Eh
 * total energy  :  -134.2930807 Eh     change       -0.4153038E-06 Eh
 * total energy  :  -134.2930811 Eh     change       -0.4190118E-06 Eh
 * total energy  :  -134.2930816 Eh     change       -0.4801834E-06 Eh
 * total energy  :  -134.2930816 Eh     change       -0.6316299E-08 Eh
   *** GEOMETRY OPTIMIZATION CONVERGED AFTER 22 ITERATIONS ***

 final structure:
================
83
 xtb: 6.7.1 (edcfbbe)
C            7.35348326453361        3.04873182914504        2.10395037988867
C            5.99280669237050        3.14967188811003        2.30939519998632
C            5.14221101497078        2.14179888118240        1.88084694738180
C            5.64195413894694        1.00979987489014        1.24956801829858
C            7.02141156465174        0.93288712047382        1.01582185074830
C            7.86507657843214        1.93945668979001        1.44597595200102
O            7.59632465367225       -0.11972972256844        0.34752933893089
C            6.76208644368304       -1.10764938776195       -0.11533850928768
C            7.35217212181877       -2.14988918643628       -0.80504133615485
C            6.58189725751063       -3.20171159376540       -1.27945687971713
C            5.22254187460769       -3.20731640297706       -1.04400620719832
C            4.62522549375949       -2.16385879544493       -0.35298475392689
C            5.37786531002090       -1.08952044719846        0.10497641693649
N            4.81286770762045       -0.02227299288644        0.80749194666299
C            3.43056194485978       -0.00399246087283        1.08955904044082
C            2.99228712685008       -0.04783003096870        2.41221225124976
C            1.64250919703922       -0.05461417013578        2.71453855544726
C            0.72497599499952       -0.03390423393605        1.67564509211322
C            1.17132766116109        0.01249245830850        0.34566664946622
C            2.51146850791273        0.03823916619569        0.04078311741487
C            0.00494876125509       -0.00380624134113       -0.60909283027741
C           -0.06966170973630        1.18966115279105       -1.53162983331075
C           -0.16969591946222        2.52163667470815       -1.19588262176954
C           -0.25467934464149        3.45545015619951       -2.22001639429527
C           -0.23997620385729        3.05566914272840       -3.54774160472268
C           -0.13979752675530        1.71595274775410       -3.88788284531451
C           -0.05587122177028        0.77837281818246       -2.87190175748458
C            0.04603943561745       -0.67253890419276       -2.90818150977567
C            0.11762342747142       -1.55862678890607       -3.97023902402958
C            0.22231804979919       -2.91343721615921       -3.69801821850618
C            0.25401343453000       -3.37822228135410       -2.39193964449632
C            0.18073713807873       -2.49631113227058       -1.32188565739293
C            0.07584412017933       -1.14944586099999       -1.58996149863459
C           -1.16615613159258       -0.05978339923727        0.33890912540906
C           -2.50463511128699       -0.06929585525040        0.02616096825099
C           -3.42940458248409       -0.05609678534360        1.07077113924242
N           -4.80930499541362       -0.01192874435345        0.78147538994916
C           -5.35561013752426        1.08344372079741        0.10724289995728
C           -4.58538264680982        2.15789318912922       -0.32050250319550
C           -5.16436344797944        3.22827127870177       -0.98539426133496
C           -6.52299039513825        3.25031556931770       -1.22405964135740
C           -7.31082714508757        2.19912099029593       -0.77815507765720
C           -6.73893775555376        1.13003386651962       -0.11458316579397
O           -7.59044471815342        0.14493817727472        0.32188742336075
C           -7.03484408517617       -0.93249427019530        0.96635426579362
C           -7.89683539456114       -1.93304477744936        1.37373009570700
C           -7.40555998591051       -3.06658822743300        2.00518787337587
C           -6.04675599280363       -3.19777329349101        2.20607309969002
C           -5.17795773146361       -2.19583801474412        1.80081408319545
C           -5.65706752930131       -1.03960671435882        1.19801719697689
C           -2.99770585902420       -0.06128650139625        2.39644811835336
C           -1.64959665623853       -0.07362382798801        2.70580207681919
C           -0.72644694810390       -0.06151519192019        1.67168849058866
H            8.02013238635039        3.82730144659978        2.43963074506209
H            5.57757765934599        4.01525295864962        2.80248935249828
H            4.07854093847455        2.23877580909058        2.03286129588644
H            8.92109579747071        1.83825051670657        1.25288588751299
H            8.41959539133243       -2.12229953139550       -0.95543197007976
H            7.05119371191147       -4.00932323873218       -1.81871784826399
H            4.60994934622848       -4.02457632198622       -1.39264293973537
H            3.56358230247404       -2.19287955751447       -0.16458864686656
H            3.72613216309705       -0.08422378138087        3.20399064590273
H            1.31425984260661       -0.09287431479649        3.74217474575006
H            2.85292260283420        0.08374044924565       -0.98292963719532
H           -0.18276111569928        2.83170386645106       -0.16070357424645
H           -0.33450846020971        4.50520291500259       -1.97916592449248
H           -0.30909273585027        3.80004510715861       -4.32744133243859
H           -0.13107221490962        1.41038293756626       -4.92347828045895
H            0.09563431428713       -1.20220520117523       -4.98925807396901
H            0.28161135150695       -3.61832465364771       -4.51436967793066
H            0.33765589563234       -4.43848375866021       -2.20430966564970
H            0.20634257366795       -2.85729420697511       -0.30360177960805
H           -2.84031584554379       -0.07803799177217       -1.00042469163457
H           -3.52396931869670        2.16645719059976       -0.12903195219495
H           -4.53777885073254        4.04435382040743       -1.31118367407831
H           -6.97811820996301        4.07880753886470       -1.74341057262570
H           -8.37826771406199        2.19249249691087       -0.93078216827098
H           -8.95087028333401       -1.80775630641509        1.18394411650729
H           -8.08634101270686       -3.84012378987453        2.32369971268527
H           -5.64729477778541       -4.08252940604181        2.67768394846658
H           -4.11614051655781       -2.31640987966941        1.94881657368517
H           -3.73533383874497       -0.04611376568934        3.18539656020253
H           -1.32682098274948       -0.07263731619022        3.73588199037521

          :  Hamiltonian                  GFN2-xTB          :
         :: gradient norm              0.000054780292 Eh/a0 ::
         :: HOMO-LUMO gap              1.976652600970 eV    ::
         :: SCC energy              -136.717380537041 Eh    ::
         :: -> dispersion             -0.124375272665 Eh    ::
         :: repulsion energy           2.424298974274 Eh    ::

    * Orbital Energies and Occupations

         #    Occupation            Energy/Eh            Energy/eV
      -------------------------------------------------------------
         1        2.0000           -0.7243010             -19.7092
       ...           ...                  ...                  ...
       112        2.0000           -0.4125879             -11.2271
       113        2.0000           -0.4124479             -11.2233
       114        2.0000           -0.4100211             -11.1572
       115        2.0000           -0.4098227             -11.1518
       116        2.0000           -0.4083394             -11.1115
       117        2.0000           -0.4053975             -11.0314
       118        2.0000           -0.4023992             -10.9498
       119        2.0000           -0.3948892             -10.7455
       120        2.0000           -0.3870472             -10.5321
       121        2.0000           -0.3866218             -10.5205
       122        2.0000           -0.3842684             -10.4565
       123        2.0000           -0.3403546              -9.2615
       124        2.0000           -0.3384241              -9.2090 (HOMO)
       125                         -0.2657834              -7.2323 (LUMO)
       126                         -0.2579648              -7.0196
       127                         -0.2384089              -6.4874
       128                         -0.2361348              -6.4256
       129                         -0.2348596              -6.3909
       130                         -0.2346535              -6.3852
       131                         -0.2315720              -6.3014
       132                         -0.2264338              -6.1616
       133                         -0.2262199              -6.1558
       134                         -0.2242022              -6.1009
       135                         -0.2166365              -5.8950
       ...                                ...                  ...
       242                          0.7241703              19.7057
      -------------------------------------------------------------
                  HL-Gap            0.0726407 Eh            1.9767 eV

     #   Z          covCN         q      C6AA      α(0)
     1   6 C        2.919    -0.041    29.018     8.834
     2   6 C        2.919    -0.039    28.972     8.827
     3   6 C        2.924    -0.060    29.494     8.906
     4   6 C        2.922     0.043    27.042     8.528
     5   6 C        2.884     0.124    25.273     8.242
     6   6 C        2.920    -0.057    29.408     8.893
     7   8 O        1.709    -0.256    18.248     5.768
     8   6 C        2.884     0.124    25.273     8.242
     9   6 C        2.920    -0.057    29.407     8.893
    10   6 C        2.919    -0.041    29.015     8.833
    11   6 C        2.919    -0.039    28.966     8.826
    12   6 C        2.924    -0.060    29.494     8.906
    13   6 C        2.922     0.043    27.039     8.527
    14   7 N        2.752    -0.071    22.618     7.063
    15   6 C        2.924     0.063    26.585     8.456
    16   6 C        2.923    -0.044    29.094     8.845
    17   6 C        2.914    -0.034    28.847     8.807
    18   6 C        3.037    -0.002    28.032     8.684
    19   6 C        3.059     0.007    27.800     8.647
    20   6 C        2.916    -0.045    29.108     8.847
    21   6 C        3.979     0.011    20.320     6.404
    22   6 C        3.057     0.005    27.848     8.654
    23   6 C        2.914    -0.033    28.817     8.803
    24   6 C        2.923    -0.031    28.764     8.795
    25   6 C        2.921    -0.031    28.777     8.797
    26   6 C        2.915    -0.033    28.813     8.802
    27   6 C        3.036     0.002    27.949     8.671
    28   6 C        3.036     0.002    27.950     8.671
    29   6 C        2.915    -0.033    28.813     8.802
    30   6 C        2.921    -0.031    28.777     8.797
    31   6 C        2.923    -0.031    28.764     8.795
    32   6 C        2.914    -0.033    28.815     8.802
    33   6 C        3.056     0.005    27.850     8.655
    34   6 C        3.060     0.007    27.798     8.646
    35   6 C        2.916    -0.045    29.112     8.848
    36   6 C        2.924     0.063    26.587     8.456
    37   7 N        2.752    -0.071    22.614     7.063
    38   6 C        2.922     0.043    27.040     8.527
    39   6 C        2.924    -0.060    29.493     8.906
    40   6 C        2.919    -0.039    28.965     8.826
    41   6 C        2.919    -0.041    29.013     8.833
    42   6 C        2.920    -0.057    29.406     8.893
    43   6 C        2.884     0.124    25.272     8.242
    44   8 O        1.709    -0.256    18.246     5.767
    45   6 C        2.884     0.124    25.273     8.242
    46   6 C        2.920    -0.057    29.408     8.893
    47   6 C        2.919    -0.041    29.016     8.833
    48   6 C        2.919    -0.039    28.972     8.827
    49   6 C        2.924    -0.060    29.493     8.906
    50   6 C        2.922     0.043    27.043     8.528
    51   6 C        2.923    -0.044    29.098     8.846
    52   6 C        2.914    -0.034    28.847     8.807
    53   6 C        3.036    -0.002    28.035     8.685
    54   1 H        0.926     0.037     2.491     2.468
    55   1 H        0.926     0.035     2.521     2.483
    56   1 H        0.926     0.034     2.536     2.490
    57   1 H        0.926     0.049     2.328     2.386
    58   1 H        0.926     0.050     2.325     2.385
    59   1 H        0.926     0.037     2.490     2.468
    60   1 H        0.926     0.034     2.525     2.485
    61   1 H        0.926     0.034     2.535     2.490
    62   1 H        0.926     0.041     2.431     2.438
    63   1 H        0.926     0.039     2.467     2.456
    64   1 H        0.926     0.039     2.460     2.452
    65   1 H        0.926     0.027     2.631     2.536
    66   1 H        0.926     0.033     2.546     2.495
    67   1 H        0.926     0.033     2.542     2.493
    68   1 H        0.926     0.034     2.535     2.490
    69   1 H        0.926     0.034     2.535     2.490
    70   1 H        0.926     0.033     2.542     2.493
    71   1 H        0.926     0.033     2.546     2.495
    72   1 H        0.926     0.027     2.629     2.536
    73   1 H        0.926     0.039     2.459     2.452
    74   1 H        0.926     0.034     2.532     2.488
    75   1 H        0.926     0.034     2.525     2.485
    76   1 H        0.926     0.037     2.489     2.467
    77   1 H        0.926     0.050     2.324     2.384
    78   1 H        0.926     0.049     2.327     2.386
    79   1 H        0.926     0.037     2.490     2.468
    80   1 H        0.926     0.035     2.520     2.483
    81   1 H        0.926     0.034     2.533     2.489
    82   1 H        0.926     0.041     2.432     2.439
    83   1 H        0.926     0.039     2.467     2.456

molecular dipole:
                 x           y           z       tot (Debye)
 q only:       -0.015      -0.007       0.057
   full:       -0.015      -0.007       0.097       0.250

 projected vibrational frequencies (cm⁻¹)
eigval :       -0.00    -0.00     0.00     0.00     0.00     0.00
eigval :       10.23    13.57    14.09    18.66    20.66    21.41
eigval :       32.69    42.34    44.37    52.08    56.54    78.76
eigval :       83.59    96.60   109.54   111.95   115.67   133.17
eigval :      145.73   167.12   179.36   195.72   218.84   228.48
eigval :      229.01   241.77   249.06   251.77   264.69   272.46
eigval :      281.69   284.90   285.55   311.45   325.72   355.17
eigval :      381.78   387.98   389.15   397.52   403.39   407.54
eigval :      414.67   418.67   424.38   428.69   430.93   431.35
eigval :      440.51   448.39   455.08   480.14   489.92   491.35
eigval :      505.61   510.47   510.62   518.08   520.52   524.88
eigval :      538.71   538.94   552.32   569.39   579.08   584.88
eigval :      592.00   603.62   607.72   628.76   637.81   645.49
eigval :      645.63   660.13   660.55   661.38   661.47   671.12
eigval :      678.03   687.96   703.09   707.78   721.39   737.94
eigval :      753.66   758.55   769.01   778.22   778.39   778.75
eigval :      778.96   786.61   799.58   814.28   823.51   835.64
eigval :      854.75   854.84   862.91   863.11   865.01   865.39
eigval :      876.36   879.85   882.99   888.23   891.39   896.27
eigval :      896.46   897.54   901.14   905.23   911.54   912.24
eigval :      912.93   913.51   915.02   915.34   917.63   918.22
eigval :      920.54   921.15   922.29   927.86   928.67   992.55
eigval :      996.12  1008.56  1021.02  1073.78  1075.02  1079.01
eigval :     1090.20  1090.28  1091.31  1091.67  1108.26  1108.33
eigval :     1114.66  1119.14  1137.19  1143.58  1152.31  1160.52
eigval :     1163.07  1175.09  1175.66  1175.75  1178.02  1181.00
eigval :     1181.98  1185.96  1192.01  1201.37  1201.63  1204.13
eigval :     1209.57  1222.04  1223.53  1236.42  1239.76  1243.54
eigval :     1245.26  1252.51  1261.02  1262.19  1262.30  1276.35
eigval :     1284.72  1309.11  1310.88  1311.05  1319.09  1320.62
eigval :     1327.12  1338.17  1341.59  1352.88  1355.50  1366.60
eigval :     1374.01  1419.54  1422.28  1425.85  1429.12  1431.96
eigval :     1438.50  1441.60  1443.20  1448.61  1461.98  1469.64
eigval :     1472.19  1489.31  1489.76  1504.95  1506.15  1565.73
eigval :     1566.80  1568.05  1580.49  1581.16  1584.29  1585.81
eigval :     1589.49  1589.57  1593.05  1596.95  1600.48  1603.23
eigval :     1604.47  1604.59  1605.38  3073.16  3073.52  3077.41
eigval :     3078.25  3082.51  3084.16  3085.32  3087.25  3087.56
eigval :     3087.61  3087.90  3088.00  3088.57  3088.81  3093.50
eigval :     3093.55  3094.65  3095.44  3097.78  3097.81  3098.41
eigval :     3098.55  3104.57  3104.63  3106.43  3106.74  3112.21
eigval :     3112.24  3112.79  3112.86

   temp. (K)  partition function   enthalpy   heat capacity  entropy
                                   cal/mol     cal/K/mol   cal/K/mol   J/K/mol
 298.15  VIB  0.239E+19            23331.225    150.436    143.556
         ROT  0.943E+08              888.752      2.981     39.471
         INT  0.225E+27            24219.978    153.417    183.027
         TR   0.171E+29             1481.254      4.968     45.406
         TOT                       25701.2316   158.3854   228.4329   955.7632

       T/K    H(0)-H(T)+PV         H(T)/Eh          T*S/Eh         G(T)/Eh
   ------------------------------------------------------------------------
    298.15    0.409575E-01    0.669154E+00    0.108536E+00    0.560618E+00
   ------------------------------------------------------------------------

         :::::::::::::::::::::::::::::::::::::::::::::::::::::
         ::                  THERMODYNAMIC                  ::
         :::::::::::::::::::::::::::::::::::::::::::::::::::::
         :: total free energy        -133.732463830972 Eh   ::
         ::.................................................::
         :: total energy             -134.293081562767 Eh   ::
         :: zero point energy           0.628196047488 Eh   ::
         :: G(RRHO) w/o ZPVE           -0.067578315692 Eh   ::
         :: G(RRHO) contrib.            0.560617731795 Eh   ::
         :::::::::::::::::::::::::::::::::::::::::::::::::::::

           -------------------------------------------------
          | TOTAL ENERGY             -134.293081562767 Eh   |
          | TOTAL ENTHALPY           -133.623927995707 Eh   |
          | TOTAL FREE ENERGY        -133.732463830972 Eh   |
          | GRADIENT NORM               0.000054774059 Eh/α |
          | HOMO-LUMO GAP               1.976653127506 eV   |
           -------------------------------------------------

 * finished run on 2025/07/18 at 03:45:30.826
