   * xtb version 6.7.1 (edcfbbe) compiled by 'albert@albert-system' on 2024-07-22

   ID    Z sym.   atoms
    1    6 C      1-6, 8-13, 15-36, 38-43, 45-53
    2    8 O      7, 44
    3    7 N      14, 37
    4    1 H      54-83

          program call               : xtb data2507/gas/SBF-PXZ/SBF-PXZ.xyz --gfn 2 --ohess vtight --parallel 40 --molden --ceasefiles --namespace data2507/gas/SBF-PXZ/SBF-PXZ_gas_S0_preOpt
          :  Hamiltonian                  GFN2-xTB          :
 * total energy  :  -134.2736944 Eh     change       -0.3167372E-08 Eh
 * total energy  :  -134.2850596 Eh     change       -0.1136521E-01 Eh
 * total energy  :  -134.2887028 Eh     change       -0.3643260E-02 Eh
 * total energy  :  -134.2900019 Eh     change       -0.1299086E-02 Eh
 * total energy  :  -134.2909404 Eh     change       -0.9384334E-03 Eh
 * total energy  :  -134.2912636 Eh     change       -0.3232279E-03 Eh
 * total energy  :  -134.2913554 Eh     change       -0.9184906E-04 Eh
 * total energy  :  -134.2913931 Eh     change       -0.3769261E-04 Eh
 * total energy  :  -134.2914220 Eh     change       -0.2889071E-04 Eh
 * total energy  :  -134.2914871 Eh     change       -0.6511842E-04 Eh
 * total energy  :  -134.2929855 Eh     change       -0.5309521E-06 Eh
 * total energy  :  -134.2929860 Eh     change       -0.5211645E-06 Eh
 * total energy  :  -134.2929865 Eh     change       -0.5176104E-06 Eh
 * total energy  :  -134.2929870 Eh     change       -0.5078885E-06 Eh
 * total energy  :  -134.2929875 Eh     change       -0.5044280E-06 Eh
 * total energy  :  -134.2929880 Eh     change       -0.4949429E-06 Eh
 * total energy  :  -134.2929885 Eh     change       -0.4915773E-06 Eh
 * total energy  :  -134.2929890 Eh     change       -0.4821767E-06 Eh
 * total energy  :  -134.2929890 Eh     change       -0.4910049E-08 Eh
   *** GEOMETRY OPTIMIZATION CONVERGED AFTER 300 ITERATIONS ***

 final structure:
================
83
 xtb: 6.7.1 (edcfbbe)
C            7.38137506705522        3.63992094293384        0.64822737050122
C            6.02158709990709        3.83054232975518        0.78399135299250
C            5.16140209439919        2.74346154702942        0.82111008936638
C            5.65068978462249        1.44632855231710        0.73414147967409
C            7.02967916640535        1.26499114824226        0.56393008755946
C            7.88281143548734        2.35163957056211        0.52890522850386
O            7.59462671419129        0.02270176102956        0.41254012212827
C            6.75082337299641       -1.06102550255034        0.41164479308099
C            7.33065870746906       -2.30361616761843        0.23929930469175
C            6.54928920730363       -3.44999153520041        0.25495688744019
C            5.18903301891942       -3.34169714008937        0.45812133816412
C            4.60177308289743       -2.09727938671677        0.63089771776682
C            5.36625654272521       -0.93791770422966        0.59265910277113
N            4.81165237117974        0.33178884857634        0.76817472946323
C            3.42945473128600        0.48233361164279        1.01080657192312
C            2.99369121706416        0.99501173223527        2.23160280221301
C            1.64471776665933        1.13570685753941        2.50297643744608
C            0.72588434266523        0.74467429795647        1.54155913545188
C            1.16964972576976        0.23152304398382        0.31286720702862
C            2.50956787935800        0.10380098509827        0.03274654083002
C           -0.00005119598310       -0.13884145522249       -0.56344740380105
C           -0.00026041928797        0.54954392049844       -1.90676700239760
C           -0.00046979880229        1.90081953952794       -2.17285095665401
C           -0.00064464382856        2.31204926432089       -3.49916107449231
C           -0.00060908348061        1.38444879114116       -4.52994463713098
C           -0.00039947739569        0.02419288816577       -4.26479534109535
C           -0.00022517527754       -0.39377337110255       -2.94433043943764
C            0.00000529405344       -1.72531198913398       -2.35808969757784
C            0.00013863670882       -2.98209199802692       -2.94009792267588
C            0.00036872084605       -4.09543334487635       -2.11487096949220
C            0.00046314585933       -3.96049657669690       -0.73478731414432
C            0.00032925183960       -2.70394591206363       -0.14379305136235
C            0.00010009214763       -1.59615104711317       -0.96212139663798
C           -1.16966934805316        0.23126468621332        0.31308721919037
C           -2.50960889338628        0.10336704089138        0.03315641403756
C           -3.42940682831901        0.48178802796112        1.01134362247761
N           -4.81162651434476        0.33124158399521        0.76883778782483
C           -5.65063292276306        1.44580512759375        0.73474314380119
C           -5.16133223870349        2.74292714237628        0.82180439072270
C           -6.02149312121213        3.83002538320311        0.78463172797445
C           -7.38127009825792        3.63943512167440        0.64871830641702
C           -7.88271682293896        2.35116656180257        0.52930264856949
C           -7.02960903997133        1.26450062333400        0.56438524457572
O           -7.59456786332588        0.02222787170064        0.41289865534444
C           -6.75077697179428       -1.06150909996594        0.41195721267143
C           -7.33060537706167       -2.30407447034228        0.23940976394414
C           -6.54924556437050       -3.45045756565409        0.25501476099236
C           -5.18900873266133       -3.34219897972775        0.45832967690316
C           -4.60175484131504       -2.09780574110555        0.63130378366502
C           -5.36622640175612       -0.93843491043142        0.59311726710754
C           -2.99353462607807        0.99444444267449        2.23210952920608
C           -1.64453986192943        1.13531781968424        2.50329434942544
C           -0.72579268721810        0.74447075210797        1.54172152478427
H            8.05539363873289        4.48157167394780        0.62357438427999
H            5.61456883059213        4.82726931875918        0.85924824380119
H            4.09855055609826        2.90461131280932        0.91246503713476
H            8.93811082688452        2.16891215960640        0.40377646566744
H            8.39879531577124       -2.35330052540044        0.10006248811560
H            7.01086477985792       -4.41510552709275        0.11786207009294
H            4.56819626455740       -4.22398277231230        0.48764961960865
H            3.53903755205502       -2.03164925535880        0.80377800028500
H            3.72892820533229        1.27764321562438        2.97072901798527
H            1.31776472484040        1.53004271356300        3.45313883291866
H            2.85014289125261       -0.28284758196396       -0.91655116407203
H           -0.00049831055450        2.62277401193026       -1.36900822368335
H           -0.00081142071052        3.36695887094280       -3.73029444223748
H           -0.00074839168046        1.72823310676258       -5.55398428327975
H           -0.00037421485497       -0.69373589879521       -5.07134344377243
H            0.00006844791660       -3.09325265685199       -4.01412039587771
H            0.00047811101461       -5.08317256835245       -2.55207501487241
H            0.00064481442356       -4.84274314831042       -0.11186062546930
H            0.00040488791464       -2.59738083876886        0.93178815207204
H           -2.85026756035681       -0.28328378610522       -0.91611057812191
H           -4.09848838803986        2.90405995474543        0.91327341392794
H           -5.61446262942795        4.82674178419185        0.85996363416892
H           -8.05526987555862        4.48109954336581        0.62401930006383
H           -8.93800592633576        2.16846254994560        0.40405302987426
H           -8.39872802119421       -2.35373458259136        0.10005713315964
H           -7.01081525443690       -4.41555184619352        0.11776140916847
H           -4.56818465940010       -4.22449469768343        0.48782174656763
H           -3.53903599432302       -2.03219682555068        0.80429756885482
H           -3.72870459019137        1.27696562569448        2.97134431865893
H           -1.31750553047336        1.52968174958105        3.45341718323565

          :  Hamiltonian                  GFN2-xTB          :
         :: gradient norm              0.000056237851 Eh/a0 ::
         :: HOMO-LUMO gap              1.957942158844 eV    ::
         :: SCC energy              -136.717402136125 Eh    ::
         :: -> dispersion             -0.123923052164 Eh    ::
         :: repulsion energy           2.424413134990 Eh    ::

    * Orbital Energies and Occupations

         #    Occupation            Energy/Eh            Energy/eV
      -------------------------------------------------------------
         1        2.0000           -0.7240523             -19.7025
       ...           ...                  ...                  ...
       112        2.0000           -0.4124182             -11.2225
       113        2.0000           -0.4124167             -11.2224
       114        2.0000           -0.4099272             -11.1547
       115        2.0000           -0.4099127             -11.1543
       116        2.0000           -0.4085490             -11.1172
       117        2.0000           -0.4056195             -11.0375
       118        2.0000           -0.4027173             -10.9585
       119        2.0000           -0.3948471             -10.7443
       120        2.0000           -0.3871394             -10.5346
       121        2.0000           -0.3866806             -10.5221
       122        2.0000           -0.3843937             -10.4599
       123        2.0000           -0.3404307              -9.2636
       124        2.0000           -0.3381395              -9.2012 (HOMO)
       125                         -0.2661864              -7.2433 (LUMO)
       126                         -0.2581292              -7.0241
       127                         -0.2387624              -6.4971
       128                         -0.2364534              -6.4342
       129                         -0.2347067              -6.3867
       130                         -0.2346306              -6.3846
       131                         -0.2317372              -6.3059
       132                         -0.2263391              -6.1590
       133                         -0.2261617              -6.1542
       134                         -0.2243460              -6.1048
       135                         -0.2163360              -5.8868
       ...                                ...                  ...
       242                          0.7240829              19.7033
      -------------------------------------------------------------
                  HL-Gap            0.0719530 Eh            1.9579 eV

     #   Z          covCN         q      C6AA      α(0)
     1   6 C        2.919    -0.041    29.019     8.834
     2   6 C        2.919    -0.039    28.972     8.827
     3   6 C        2.924    -0.060    29.495     8.906
     4   6 C        2.923     0.043    27.041     8.528
     5   6 C        2.884     0.124    25.274     8.242
     6   6 C        2.920    -0.057    29.408     8.893
     7   8 O        1.709    -0.257    18.249     5.768
     8   6 C        2.884     0.124    25.274     8.242
     9   6 C        2.920    -0.057    29.407     8.893
    10   6 C        2.919    -0.041    29.017     8.833
    11   6 C        2.919    -0.039    28.966     8.826
    12   6 C        2.923    -0.060    29.494     8.906
    13   6 C        2.922     0.043    27.038     8.527
    14   7 N        2.752    -0.071    22.626     7.065
    15   6 C        2.925     0.063    26.580     8.455
    16   6 C        2.923    -0.044    29.088     8.845
    17   6 C        2.914    -0.034    28.845     8.807
    18   6 C        3.037    -0.002    28.029     8.684
    19   6 C        3.059     0.007    27.796     8.646
    20   6 C        2.916    -0.044    29.102     8.846
    21   6 C        3.979     0.011    20.319     6.404
    22   6 C        3.056     0.005    27.851     8.655
    23   6 C        2.914    -0.033    28.813     8.802
    24   6 C        2.923    -0.031    28.765     8.795
    25   6 C        2.921    -0.031    28.779     8.797
    26   6 C        2.915    -0.033    28.817     8.803
    27   6 C        3.036     0.002    27.953     8.672
    28   6 C        3.036     0.002    27.946     8.671
    29   6 C        2.915    -0.032    28.809     8.802
    30   6 C        2.921    -0.031    28.774     8.797
    31   6 C        2.923    -0.031    28.764     8.795
    32   6 C        2.914    -0.033    28.820     8.803
    33   6 C        3.057     0.005    27.847     8.654
    34   6 C        3.059     0.007    27.796     8.646
    35   6 C        2.916    -0.044    29.102     8.846
    36   6 C        2.925     0.063    26.580     8.455
    37   7 N        2.752    -0.071    22.626     7.065
    38   6 C        2.923     0.043    27.041     8.528
    39   6 C        2.924    -0.060    29.495     8.906
    40   6 C        2.919    -0.039    28.972     8.827
    41   6 C        2.919    -0.041    29.019     8.834
    42   6 C        2.920    -0.057    29.408     8.893
    43   6 C        2.884     0.124    25.274     8.242
    44   8 O        1.709    -0.257    18.249     5.768
    45   6 C        2.884     0.124    25.274     8.242
    46   6 C        2.920    -0.057    29.407     8.893
    47   6 C        2.919    -0.041    29.017     8.833
    48   6 C        2.919    -0.039    28.966     8.826
    49   6 C        2.923    -0.060    29.494     8.906
    50   6 C        2.922     0.043    27.038     8.527
    51   6 C        2.923    -0.044    29.088     8.845
    52   6 C        2.914    -0.034    28.845     8.807
    53   6 C        3.037    -0.002    28.029     8.684
    54   1 H        0.926     0.037     2.491     2.468
    55   1 H        0.926     0.035     2.522     2.484
    56   1 H        0.926     0.033     2.541     2.493
    57   1 H        0.926     0.049     2.328     2.386
    58   1 H        0.926     0.050     2.326     2.385
    59   1 H        0.926     0.037     2.490     2.468
    60   1 H        0.926     0.034     2.525     2.485
    61   1 H        0.926     0.033     2.540     2.492
    62   1 H        0.926     0.041     2.430     2.438
    63   1 H        0.926     0.039     2.464     2.455
    64   1 H        0.926     0.039     2.457     2.451
    65   1 H        0.926     0.028     2.617     2.530
    66   1 H        0.926     0.033     2.542     2.493
    67   1 H        0.926     0.033     2.542     2.493
    68   1 H        0.926     0.034     2.535     2.490
    69   1 H        0.926     0.034     2.533     2.489
    70   1 H        0.926     0.033     2.540     2.492
    71   1 H        0.926     0.033     2.546     2.495
    72   1 H        0.926     0.026     2.640     2.541
    73   1 H        0.926     0.039     2.458     2.451
    74   1 H        0.926     0.033     2.541     2.493
    75   1 H        0.926     0.035     2.522     2.484
    76   1 H        0.926     0.037     2.491     2.468
    77   1 H        0.926     0.049     2.328     2.386
    78   1 H        0.926     0.050     2.326     2.385
    79   1 H        0.926     0.037     2.490     2.468
    80   1 H        0.926     0.034     2.525     2.485
    81   1 H        0.926     0.033     2.540     2.492
    82   1 H        0.926     0.041     2.430     2.438
    83   1 H        0.926     0.039     2.464     2.455

molecular dipole:
                 x           y           z       tot (Debye)
 q only:        0.000       0.069       0.029
   full:        0.000       0.087       0.067       0.278

 projected vibrational frequencies (cm⁻¹)
eigval :       -0.00    -0.00    -0.00     0.00     0.00     0.00
eigval :       10.12    12.86    13.73    18.48    20.32    21.34
eigval :       32.71    42.35    42.64    51.87    55.04    78.66
eigval :       82.23    97.07   109.35   110.72   118.74   131.62
eigval :      141.65   167.45   179.81   194.61   221.55   224.77
eigval :      230.02   238.26   249.15   250.90   265.14   272.37
eigval :      280.92   284.30   284.90   311.51   325.36   353.16
eigval :      384.58   387.93   388.53   397.46   402.72   407.60
eigval :      414.68   417.90   425.06   428.56   430.00   430.59
eigval :      440.57   447.05   454.19   480.61   488.28   492.91
eigval :      506.76   510.43   510.68   514.41   520.46   522.89
eigval :      538.36   545.04   549.82   569.27   579.24   584.11
eigval :      591.82   603.72   607.66   629.19   638.05   645.09
eigval :      645.93   660.05   660.40   661.28   661.29   671.29
eigval :      678.14   687.95   703.29   708.07   721.18   738.08
eigval :      753.68   758.66   768.88   778.13   778.30   778.68
eigval :      778.72   786.52   799.48   814.30   823.03   835.14
eigval :      854.57   854.64   862.83   862.91   864.59   864.60
eigval :      876.38   879.65   882.97   887.50   890.74   896.07
eigval :      896.12   897.26   899.79   904.45   911.11   912.30
eigval :      912.90   913.49   914.72   914.85   917.39   917.71
eigval :      919.91   921.13   921.53   927.81   928.65   992.42
eigval :      996.18  1008.72  1020.45  1073.75  1075.16  1078.99
eigval :     1090.11  1090.13  1091.29  1091.61  1108.19  1108.22
eigval :     1114.30  1118.92  1137.16  1143.59  1152.07  1160.16
eigval :     1162.72  1175.06  1175.71  1175.80  1178.08  1181.02
eigval :     1181.62  1185.67  1191.92  1201.08  1201.14  1203.89
eigval :     1209.39  1221.69  1223.50  1236.27  1239.66  1243.53
eigval :     1244.94  1252.32  1260.96  1262.29  1262.40  1276.31
eigval :     1284.83  1309.12  1310.96  1311.13  1319.15  1320.32
eigval :     1327.09  1338.91  1341.87  1353.17  1355.85  1366.60
eigval :     1373.87  1419.50  1422.46  1425.68  1429.07  1431.69
eigval :     1438.49  1441.35  1443.16  1448.51  1461.96  1469.66
eigval :     1472.22  1489.60  1490.31  1505.22  1506.43  1565.90
eigval :     1566.81  1568.17  1580.58  1581.16  1584.33  1585.81
eigval :     1589.61  1589.64  1593.04  1596.96  1600.33  1603.21
eigval :     1604.52  1604.65  1605.35  3072.09  3074.91  3077.54
eigval :     3078.61  3082.64  3084.32  3085.41  3087.43  3087.44
eigval :     3087.48  3087.75  3087.85  3088.58  3088.88  3093.62
eigval :     3093.65  3094.80  3095.64  3097.60  3097.63  3098.13
eigval :     3098.19  3104.34  3104.40  3105.78  3105.80  3112.18
eigval :     3112.19  3112.73  3112.80

   temp. (K)  partition function   enthalpy   heat capacity  entropy
                                   cal/mol     cal/K/mol   cal/K/mol   J/K/mol
 298.15  VIB  0.299E+19            23354.404    150.408    143.821
         ROT  0.943E+08              888.752      2.981     39.471
         INT  0.282E+27            24243.157    153.389    183.292
         TR   0.171E+29             1481.254      4.968     45.406
         TOT                       25724.4105   158.3570   228.6975   956.8703

       T/K    H(0)-H(T)+PV         H(T)/Eh          T*S/Eh         G(T)/Eh
   ------------------------------------------------------------------------
    298.15    0.409945E-01    0.669103E+00    0.108662E+00    0.560442E+00
   ------------------------------------------------------------------------

         :::::::::::::::::::::::::::::::::::::::::::::::::::::
         ::                  THERMODYNAMIC                  ::
         :::::::::::::::::::::::::::::::::::::::::::::::::::::
         :: total free energy        -133.732547076467 Eh   ::
         ::.................................................::
         :: total energy             -134.292989001141 Eh   ::
         :: zero point energy           0.628109023784 Eh   ::
         :: G(RRHO) w/o ZPVE           -0.067667099109 Eh   ::
         :: G(RRHO) contrib.            0.560441924675 Eh   ::
         :::::::::::::::::::::::::::::::::::::::::::::::::::::

           -------------------------------------------------
          | TOTAL ENERGY             -134.292989001141 Eh   |
          | TOTAL ENTHALPY           -133.623885519818 Eh   |
          | TOTAL FREE ENERGY        -133.732547076467 Eh   |
          | GRADIENT NORM               0.000056239256 Eh/α |
          | HOMO-LUMO GAP               1.957942068965 eV   |
           -------------------------------------------------

 * finished run on 2025/07/18 at 03:41:33.544
