   * xtb version 6.7.1 (edcfbbe) compiled by 'albert@albert-system' on 2024-07-22

   ID    Z sym.   atoms
    1    6 C      1-6, 8-13, 15-36, 38-43, 45-53
    2    8 O      7, 44
    3    7 N      14, 37
    4    1 H      54-83

          program call               : xtb data2507/gas/SBF-PXZ/SBF-PXZ_gas_T1_crest.xyz --gfn 2 --spinpol --tblite --uhf 2 --ohess vtight --parallel 40 --molden --ceasefiles --namespace data2507/gas/SBF-PXZ/SBF-PXZ_gas_T1_finalOpt
 * total energy  :  -134.2100639 Eh     change       -0.3592703E-08 Eh
 * total energy  :  -134.2101097 Eh     change       -0.4575857E-04 Eh
 * total energy  :  -134.2101269 Eh     change       -0.1720072E-04 Eh
 * total energy  :  -134.2101286 Eh     change       -0.1714596E-05 Eh
 * total energy  :  -134.2101303 Eh     change       -0.1659909E-05 Eh
 * total energy  :  -134.2101324 Eh     change       -0.2182026E-05 Eh
 * total energy  :  -134.2101352 Eh     change       -0.2717726E-05 Eh
 * total energy  :  -134.2101373 Eh     change       -0.2106578E-05 Eh
 * total energy  :  -134.2101378 Eh     change       -0.5731004E-06 Eh
 * total energy  :  -134.2101396 Eh     change       -0.1765926E-05 Eh
 * total energy  :  -134.2101408 Eh     change       -0.1169749E-05 Eh
 * total energy  :  -134.2101416 Eh     change       -0.8461934E-06 Eh
 * total energy  :  -134.2101422 Eh     change       -0.6223153E-06 Eh
 * total energy  :  -134.2101429 Eh     change       -0.6461070E-06 Eh
 * total energy  :  -134.2101435 Eh     change       -0.6105692E-06 Eh
 * total energy  :  -134.2101438 Eh     change       -0.3300709E-06 Eh
 * total energy  :  -134.2101440 Eh     change       -0.1507226E-06 Eh
 * total energy  :  -134.2101440 Eh     change        0.6765504E-08 Eh
 * total energy  :  -134.2101440 Eh     change       -0.6980602E-07 Eh
   *** GEOMETRY OPTIMIZATION CONVERGED AFTER 19 ITERATIONS ***

 final structure:
================
83
 xtb: 6.7.1 (edcfbbe)
C            6.43103170809607        3.23895158027181        1.16515282407733
C            5.07657635494185        3.02867787897956        1.35326261355241
C            4.52846923217590        1.77170605592347        1.17310562955108
C            5.32458148518044        0.69590028612714        0.77963374252523
C            6.70499039966950        0.91270433769222        0.63525538672044
C            7.24665287647640        2.17337352832349        0.81944193597246
O            7.57745462305348       -0.09859951035327        0.33923840742824
C            7.05559022451613       -1.34788967682235        0.14516917383163
C            7.94475543420103       -2.35937512091312       -0.17399146001748
C            7.48100222390939       -3.64056013440181       -0.42791489912099
C            6.12131243668248       -3.89532474070325       -0.38926994810057
C            5.22718741345809       -2.89031386586416       -0.06906339126474
C            5.67776868214944       -1.60588591792951        0.23628287697966
N            4.80523893292166       -0.57943198631702        0.57842634078983
C            3.43098104458550       -0.82476420632345        0.73017316299327
C            2.98127882043379       -1.78244129162869        1.66814192916424
C            1.65153841112087       -2.01085851436318        1.87028965770785
C            0.69561160769392       -1.27915266885675        1.11584234918890
C            1.17107594246694       -0.32120625947253        0.15513351350614
C            2.49348431591662       -0.08921917424141       -0.03635492350182
C            0.00168581061185        0.34859013134658       -0.52681646558374
C            0.00651911874488        1.84836009737160       -0.35836056819038
C            0.01115151685626        2.57537062046853        0.81206840943407
C            0.01623448094349        3.96123898116712        0.73033357796985
C            0.01642626581949        4.59920067635955       -0.50126198177105
C            0.01186575305776        3.87136116278287       -1.68047946418945
C            0.00710981102951        2.48812397959708       -1.60628500915765
C            0.00324339498645        1.46892603882139       -2.64375201463262
C            0.00262690830414        1.57179837700974       -4.02515524445235
C           -0.00016138194348        0.40786620545853       -4.77699078924964
C           -0.00233080035679       -0.83614169247735       -4.16370743605702
C           -0.00210563193303       -0.94662134137116       -2.77973063544181
C            0.00065685861829        0.20808837154933       -2.02843847930820
C           -1.17119769873713       -0.31522754872207        0.15512000041344
C           -2.49260977027706       -0.07669273528663       -0.03623401100084
C           -3.43335192139439       -0.81087539280110        0.72721960961162
N           -4.80712560655825       -0.56181309390840        0.57485117575730
C           -5.32637154919335        0.71116671838363        0.79000689558528
C           -4.52912154332027        1.78387043512885        1.18913131280821
C           -5.07794092554373        3.03800877663863        1.38654264853453
C           -6.43392774870287        3.24809837355536        1.20987424939673
C           -7.25007823669004        2.18539349653467        0.85669903393147
C           -6.70776394969989        0.92768620009884        0.65499573005292
O           -7.58051555902388       -0.08121372352497        0.35142162032239
C           -7.05794718075592       -1.32727253321342        0.13892021439848
C           -7.94666546685443       -2.33562513784658       -0.19106465179283
C           -7.48194629033130       -3.61291032662354       -0.46240952092405
C           -6.12193358948782       -3.86684082142903       -0.42944684420270
C           -5.22823569993920       -2.86499295426727       -0.09838784637681
C           -5.67965439243006       -1.58487254418720        0.22316638889238
C           -2.98856409843295       -1.77383362422030        1.66198204774214
C           -1.65992961023022       -2.00691916900098        1.86605322090407
C           -0.70052031743825       -1.27644183697366        1.11496917081822
H            6.85898686734117        4.21935776023887        1.30189381218591
H            4.43488744051875        3.84430940332347        1.64856460204363
H            3.47593219335807        1.61788588810018        1.34624889448446
H            8.31070106343342        2.29482687762721        0.69460036864408
H            8.99459792955363       -2.11936466631128       -0.22602393554942
H            8.17968646649438       -4.42505716293730       -0.67156750433523
H            5.74747241809749       -4.88190707761865       -0.61565877699363
H            4.16804564470396       -3.09083516014059       -0.06446602385592
H            3.72114665711746       -2.30683844715909        2.25710487347889
H            1.31972726894183       -2.72281895780257        2.61041692478523
H            2.84271753168697        0.61817710657057       -0.77536146610691
H            0.01098791615896        2.07568203855387        1.77047434492669
H            0.02009701700504        4.55007532562598        1.63629290823657
H            0.02036169247508        5.67909142249174       -0.54061154133569
H            0.01229969943601        4.37400090607195       -2.63655494302458
H            0.00439127975925        2.53830043549095       -4.50759353655862
H           -0.00058030281818        0.46907818992414       -5.85586196157573
H           -0.00424659842187       -1.72970028512505       -4.77096372348861
H           -0.00380893938849       -1.91493730430615       -2.30054970460936
H           -2.83851919699474        0.63432651454474       -0.77333467845033
H           -3.47520908191513        1.62961032332381        1.35337703454284
H           -4.43563302997921        3.85144399784795        1.68651267687292
H           -6.86257152824540        4.22612345505816        1.36083017928774
H           -8.31501214260542        2.30673251807475        0.73950210045384
H           -8.99695521633749       -2.09638142900639       -0.23738863430402
H           -8.18027888074800       -4.39497827377027       -0.71474790771619
H           -5.74757491288551       -4.85015488433597       -0.66882098043046
H           -4.16881365935408       -3.06426890048024       -0.09755073261216
H           -3.73143817622976       -2.29876358873759        2.24668761264258
H           -1.33165616420458       -2.72260572128243        2.60415371463690

 projected vibrational frequencies (cm⁻¹)
eigval :       -0.00    -0.00    -0.00    -0.00     0.00     0.00
eigval :        9.51    15.80    16.10    19.33    21.18    21.67
eigval :       34.05    41.85    51.58    63.31    63.49    79.80
eigval :       80.49    96.61   107.89   111.57   124.25   133.75
eigval :      142.99   169.47   179.53   197.26   226.99   231.09
eigval :      234.67   237.76   246.00   252.02   266.99   272.08
eigval :      274.89   281.08   286.97   309.39   329.43   342.26
eigval :      365.01   386.86   387.72   390.84   396.11   398.96
eigval :      411.43   415.00   425.48   426.39   435.14   436.21
eigval :      448.76   456.74   460.77   461.25   473.22   488.71
eigval :      502.87   503.23   503.82   505.36   521.93   528.45
eigval :      537.28   539.21   544.83   560.02   563.02   579.52
eigval :      590.54   595.46   601.56   602.75   608.87   627.70
eigval :      642.10   655.60   662.76   663.88   667.15   667.32
eigval :      668.87   670.59   673.61   699.10   712.56   728.59
eigval :      745.89   755.40   767.27   775.34   775.49   777.35
eigval :      777.40   785.67   788.10   790.02   796.85   809.60
eigval :      853.87   854.20   855.64   856.44   863.42   863.64
eigval :      870.84   876.82   878.39   880.23   881.14   894.12
eigval :      894.27   896.51   897.84   899.97   901.64   903.83
eigval :      906.38   909.57   910.51   910.92   911.02   917.36
eigval :      917.63   917.97   918.49   926.55   927.37   953.42
eigval :      962.94   998.20  1008.26  1060.34  1073.52  1078.38
eigval :     1085.01  1085.50  1086.45  1087.82  1108.67  1111.59
eigval :     1111.77  1117.19  1128.48  1140.62  1142.92  1155.40
eigval :     1158.02  1167.44  1172.38  1173.31  1173.36  1178.46
eigval :     1180.21  1182.66  1185.65  1200.12  1203.46  1208.11
eigval :     1208.29  1209.73  1215.68  1228.91  1232.50  1237.92
eigval :     1240.25  1250.64  1254.28  1254.42  1261.47  1284.65
eigval :     1286.09  1293.11  1307.19  1307.60  1317.03  1317.11
eigval :     1318.61  1328.15  1330.33  1330.53  1343.12  1346.76
eigval :     1366.71  1372.72  1377.60  1402.54  1412.90  1413.17
eigval :     1428.92  1429.61  1440.27  1440.53  1449.07  1449.42
eigval :     1462.19  1467.25  1471.21  1476.47  1482.20  1486.25
eigval :     1523.46  1538.26  1539.48  1548.21  1548.83  1554.35
eigval :     1562.73  1563.00  1580.09  1580.79  1584.11  1586.85
eigval :     1596.46  1603.88  1612.90  3065.59  3066.00  3068.37
eigval :     3069.78  3070.69  3070.99  3072.95  3075.26  3080.25
eigval :     3082.70  3086.13  3087.68  3089.47  3089.91  3092.21
eigval :     3092.26  3092.84  3092.90  3102.10  3102.18  3102.32
eigval :     3102.55  3112.74  3112.89  3113.47  3113.63  3114.27
eigval :     3114.88  3116.57  3116.99

   temp. (K)  partition function   enthalpy   heat capacity  entropy
                                   cal/mol     cal/K/mol   cal/K/mol   J/K/mol
 298.15  VIB  0.132E+19            23462.700    152.309    143.877
         ROT  0.941E+08              888.752      2.981     39.468
         INT  0.124E+27            24351.452    155.289    183.345
         TR   0.171E+29             1481.254      4.968     45.406
         TOT                       25832.7063   160.2576   228.7507   957.0930

       T/K    H(0)-H(T)+PV         H(T)/Eh          T*S/Eh         G(T)/Eh
   ------------------------------------------------------------------------
    298.15    0.411670E-01    0.665645E+00    0.108687E+00    0.556958E+00
   ------------------------------------------------------------------------

         :::::::::::::::::::::::::::::::::::::::::::::::::::::
         ::                  THERMODYNAMIC                  ::
         :::::::::::::::::::::::::::::::::::::::::::::::::::::
         :: total free energy        -133.653185705198 Eh   ::
         ::.................................................::
         :: total energy             -134.210143988745 Eh   ::
         :: zero point energy           0.624478094739 Eh   ::
         :: G(RRHO) w/o ZPVE           -0.067519811192 Eh   ::
         :: G(RRHO) contrib.            0.556958283547 Eh   ::
         :::::::::::::::::::::::::::::::::::::::::::::::::::::

           -------------------------------------------------
          | TOTAL ENERGY             -134.210143988745 Eh   |
          | TOTAL ENTHALPY           -133.544498856139 Eh   |
          | TOTAL FREE ENERGY        -133.653185705198 Eh   |
          | GRADIENT NORM               0.000049182430 Eh/α |
           -------------------------------------------------

 * finished run on 2025/07/18 at 03:51:48.257
