   * xtb version 6.7.1 (edcfbbe) compiled by 'albert@albert-system' on 2024-07-22

   ID    Z sym.   atoms
    1    6 C      1-17, 19, 20, 22, 23, 25-49, 51-58
    2    7 N      18, 21, 24, 50
    3    1 H      59-96

          program call               : xtb data2507/gas/PrDPhAc/PrDPhAc_gas_S0_finalOpt.xtbopt.xyz --gfn 2 --spinpol --tblite --uhf 2 --ohess vtight --parallel 40 --molden --ceasefiles --namespace data2507/gas/PrDPhAc/PrDPhAc_gas_T1_preOpt
 * total energy  :  -146.6535352 Eh     change       -0.2250457E-07 Eh
 * total energy  :  -146.6574269 Eh     change       -0.3891736E-02 Eh
 * total energy  :  -146.6581695 Eh     change       -0.7426060E-03 Eh
 * total energy  :  -146.6582714 Eh     change       -0.1018766E-03 Eh
 * total energy  :  -146.6583878 Eh     change       -0.1163798E-03 Eh
 * total energy  :  -146.6584159 Eh     change       -0.2814583E-04 Eh
 * total energy  :  -146.6584664 Eh     change       -0.5054055E-04 Eh
 * total energy  :  -146.6585316 Eh     change       -0.6513283E-04 Eh
 * total energy  :  -146.6585700 Eh     change       -0.3840263E-04 Eh
 * total energy  :  -146.6586286 Eh     change       -0.5861101E-04 Eh
 * total energy  :  -146.6590202 Eh     change       -0.6944574E-06 Eh
 * total energy  :  -146.6590207 Eh     change       -0.4773679E-06 Eh
 * total energy  :  -146.6590212 Eh     change       -0.4817974E-06 Eh
 * total energy  :  -146.6590216 Eh     change       -0.4238326E-06 Eh
 * total energy  :  -146.6590220 Eh     change       -0.4348517E-06 Eh
 * total energy  :  -146.6590225 Eh     change       -0.4529991E-06 Eh
 * total energy  :  -146.6590230 Eh     change       -0.5083963E-06 Eh
 * total energy  :  -146.6590234 Eh     change       -0.4041077E-06 Eh
 * total energy  :  -146.6590234 Eh     change       -0.3469478E-07 Eh
   *** GEOMETRY OPTIMIZATION CONVERGED AFTER 54 ITERATIONS ***

 final structure:
================
96
 xtb: 6.7.1 (edcfbbe)
C           -2.38128045337205        1.53471777955199        3.43338476851661
C           -3.32931175180604        2.22611331660872        2.69997278031424
C           -3.97965113187910        1.61014374591735        1.64593768770890
C           -3.69048371254473        0.29360454603138        1.30748398082470
C           -4.34242957842141       -0.35238907740893        0.08192029565501
C           -5.67568545415990       -0.99019074364950        0.39799471720474
C           -6.20818965001639       -0.99727273470291        1.67886300809686
C           -7.43195124075407       -1.59700807205591        1.92716954588334
C           -8.13766025638262       -2.19713003266564        0.90016645720442
C           -7.61236165705023       -2.19679703902863       -0.38189352779823
C           -6.39151036047753       -1.59896642063251       -0.63026699935920
C           -4.46018253680663        0.73268523821530       -0.97715911252636
C           -5.64489353422089        1.30456367162920       -1.40569391963526
C           -5.62903425821522        2.34302878033810       -2.32385515547491
C           -4.42598247092791        2.81802328715109       -2.82076263587566
C           -3.23291854672737        2.25944266760210       -2.40187223303123
C           -3.24658536090489        1.22440014040436       -1.47422529981834
N           -2.06800496479098        0.59616215166046       -1.05045991457797
C           -1.01113382866335        1.27099187916755       -0.48812884367540
C           -1.04862465785582        2.63414744469494       -0.24836255864777
N           -0.00297377636359        3.25451771814622        0.31657281797018
C            1.03463719334804        2.51875587204470        0.73862615270982
C            0.98458632629146        1.13580817098991        0.68528034730515
N            2.03279674888096        0.35079444600679        1.10040006092213
C            2.13476823051073       -0.99983694155240        0.71806248536336
C            1.10708646774302       -1.89921788238534        0.96647781834039
C            1.28301877338272       -3.23359720809252        0.65388380017798
C            2.47523373496686       -3.66953979241751        0.09796789696692
C            3.49987542714932       -2.77037364672404       -0.15271162132909
C            3.34155889102095       -1.43180833263104        0.16054273639423
C            4.35248380775541       -0.33455278646418       -0.12710824610335
C            3.75043825630695        0.57299515399029       -1.20312351855160
C            4.07137224346933        1.92481886246526       -1.23956871437864
C            3.47005188322841        2.76766574024855       -2.15668926230927
C            2.53958907126555        2.27175850882851       -3.05288570743793
C            2.23832917736276        0.92143240514120       -3.04494982532009
C            2.84371077882050        0.07682756228320       -2.13178288108300
C            5.69898682157424       -0.89492255886783       -0.52416175293831
C            6.37770030468217       -1.71608950459085        0.37327655428573
C            7.60908724898403       -2.25156806905666        0.04691807375622
C            8.18224305523269       -1.97607655639913       -1.18401337783804
C            7.51328009247101       -1.16438774747849       -2.08208120515647
C            6.27897635316030       -0.62702888027977       -1.75547002790226
C            4.42549742694822        0.48964642278478        1.14902024292866
C            5.59061476536167        0.94793403457623        1.73782396133065
C            5.53566545795052        1.75937643446070        2.86036957205868
C            4.31242150208336        2.11968184040031        3.40276825874111
C            3.13865234978102        1.67278291700064        2.82585541618107
C            3.19169134489792        0.86606407765315        1.69483965468255
N           -0.01488810390801        0.51360580737665        0.02180984762776
C           -2.16177441736340       -0.80620087545496       -0.97099898192660
C           -1.14553965106341       -1.62357154760151       -1.44619657932910
C           -1.31429728220146       -2.99489912602332       -1.42894268560671
C           -2.48795738533185       -3.54810561778974       -0.94214686114858
C           -3.50053236158596       -2.73128667974345       -0.46372424171994
C           -3.34900601913690       -1.35590286090483       -0.47977084560369
C           -2.76632667866282       -0.40522534097154        2.07475218645245
C           -2.11210809077072        0.21301811742612        3.12512805953056
H           -1.85923314427043        2.02236737058606        4.24328422053968
H           -3.55724732452331        3.25396968699974        2.94111481841610
H           -4.71269256546441        2.16231319573623        1.07524457408779
H           -5.66697356215050       -0.53314210218046        2.48998617900664
H           -7.83349803979827       -1.59401982596015        2.93003094822654
H           -9.09162416709177       -2.66415369170003        1.09579191456302
H           -8.15540991479488       -2.66456577991390       -1.19025851686292
H           -5.98268083221867       -1.60183303811769       -1.63107999361302
H           -6.58606527114978        0.95343311497025       -1.00932260425599
H           -6.55952698591810        2.78522928766061       -2.64607027872350
H           -4.41702850769546        3.62434361200896       -3.53853161336577
H           -2.28973921271608        2.61094688444725       -2.79170115154829
H           -1.94111076968465        3.21366478083876       -0.41555824288150
H            1.93156444076330        3.04070178447829        1.02772300969612
H            0.18175609714127       -1.54456443799224        1.38998866190978
H            0.48641122125842       -3.93580748258427        0.84822513718567
H            2.60791355538199       -4.71183497407559       -0.15101407690507
H            4.41739060613493       -3.11289230833224       -0.60778899662254
H            4.79123365375140        2.32409883940252       -0.53934281915508
H            3.72264595893902        3.81779934327382       -2.16324734873636
H            2.05588818144864        2.93361125530765       -3.75587768721375
H            1.52288658555599        0.52157754356680       -3.74922168543159
H            2.59952410464546       -0.97547809239673       -2.13627214424943
H            5.93140391561947       -1.93455274392076        1.33340840814453
H            8.12296871462531       -2.88628496054319        0.75418430476117
H            9.14460909192449       -2.39384228772676       -1.44044100550877
H            7.95198183915472       -0.94599574646251       -3.04480227182314
H            5.76682786638130        0.00405595685172       -2.46656160758570
H            6.54768447258263        0.68780042818058        1.31052631354382
H            6.45138852110900        2.11541820083885        3.30740743788188
H            4.27287178978637        2.74879863251722        4.27916385455423
H            2.17962554829266        1.93528455225019        3.24601495850880
H           -0.23419601126700       -1.17981566366216       -1.81248534394336
H           -0.52687691287290       -3.63350752936803       -1.79989747923203
H           -2.61500684707864       -4.62027958935271       -0.92453851065072
H           -4.40227324893013       -3.17008534792601       -0.06296236337481
H           -2.54720361778644       -1.43765968623316        1.84412816375231
H           -1.38337841818779       -0.34024663127285        3.70018666817278

 projected vibrational frequencies (cm⁻¹)
eigval :       -0.00    -0.00     0.00     0.00     0.00     0.00
eigval :       -5.26     8.23    11.85    22.67    25.42    38.61
eigval :       39.56    49.50    50.53    52.60    55.80    56.21
eigval :       58.49    70.12    79.95    84.40    85.79    86.95
eigval :       91.92   101.47   125.64   135.98   146.02   150.00
eigval :      166.01   169.67   196.00   219.26   228.53   234.30
eigval :      236.25   238.91   247.23   257.44   260.26   260.82
eigval :      267.42   290.65   291.05   301.99   315.21   324.00
eigval :      326.99   354.79   363.00   367.19   373.53   374.05
eigval :      376.04   376.10   384.71   400.54   406.78   439.98
eigval :      441.91   448.13   455.23   457.61   458.37   472.78
eigval :      475.00   494.70   502.29   505.99   509.32   510.39
eigval :      516.32   528.59   539.16   577.56   587.85   588.19
eigval :      588.24   588.46   592.87   596.60   604.02   604.49
eigval :      611.60   611.93   613.30   616.11   623.98   655.16
eigval :      672.93   673.29   674.04   674.08   684.34   692.20
eigval :      693.24   696.10   704.87   711.78   712.93   730.75
eigval :      753.96   755.01   755.49   756.14   763.62   777.12
eigval :      779.65   782.69   785.30   871.06   875.75   876.36
eigval :      878.59   879.30   882.05   882.10   886.19   886.79
eigval :      891.19   892.83   901.75   901.92   902.74   904.28
eigval :      905.58   906.33   913.30   914.33   917.77   917.90
eigval :      922.03   922.93   923.23   925.75   926.18   926.60
eigval :      931.02   931.16   932.08   932.18   932.31   932.53
eigval :      934.14   937.96   938.57   938.76   970.22   985.93
eigval :      987.31  1002.85  1003.77  1034.80  1087.16  1087.53
eigval :     1088.71  1089.67  1089.81  1090.47  1091.33  1091.49
eigval :     1095.39  1107.36  1111.38  1113.18  1117.35  1125.96
eigval :     1126.15  1130.33  1130.44  1144.20  1172.27  1173.19
eigval :     1176.02  1176.93  1179.42  1181.86  1181.86  1182.52
eigval :     1182.67  1183.36  1187.34  1200.92  1201.03  1202.41
eigval :     1203.69  1203.97  1208.52  1210.61  1212.28  1228.98
eigval :     1246.11  1250.44  1254.14  1254.83  1263.84  1264.18
eigval :     1274.32  1274.61  1287.92  1288.03  1290.91  1291.11
eigval :     1301.98  1312.37  1319.15  1319.30  1319.77  1319.99
eigval :     1328.88  1330.19  1332.20  1332.90  1384.50  1393.92
eigval :     1426.52  1432.13  1432.31  1433.70  1433.88  1439.49
eigval :     1439.61  1440.69  1441.34  1446.32  1448.27  1471.98
eigval :     1472.37  1473.96  1474.11  1478.26  1478.35  1497.93
eigval :     1563.04  1564.46  1569.13  1571.00  1573.05  1574.11
eigval :     1584.81  1587.21  1588.60  1588.82  1588.90  1590.31
eigval :     1600.65  1600.70  1603.08  1603.10  3070.14  3070.16
eigval :     3070.71  3071.14  3074.39  3074.43  3074.62  3074.65
eigval :     3078.72  3079.27  3080.88  3080.92  3081.80  3081.85
eigval :     3082.25  3082.51  3086.15  3086.31  3086.45  3086.94
eigval :     3087.40  3087.68  3088.89  3088.95  3093.08  3093.41
eigval :     3093.66  3093.72  3094.39  3094.57  3094.62  3094.67
eigval :     3095.40  3095.89  3099.88  3100.33  3112.98  3115.08

   temp. (K)  partition function   enthalpy   heat capacity  entropy
                                   cal/mol     cal/K/mol   cal/K/mol   J/K/mol
 298.15  VIB  0.359E+22            27259.694    173.719    171.051
         ROT  0.849E+08              888.752      2.981     39.261
         INT  0.305E+30            28148.447    176.700    210.312
         TR   0.196E+29             1481.254      4.968     45.675
         TOT                       29629.7007   181.6681   255.9873  1071.0508

       T/K    H(0)-H(T)+PV         H(T)/Eh          T*S/Eh         G(T)/Eh
   ------------------------------------------------------------------------
    298.15    0.472179E-01    0.789359E+00    0.121628E+00    0.667731E+00
   ------------------------------------------------------------------------

         :::::::::::::::::::::::::::::::::::::::::::::::::::::
         ::                  THERMODYNAMIC                  ::
         :::::::::::::::::::::::::::::::::::::::::::::::::::::
         :: total free energy        -145.991292229088 Eh   ::
         ::.................................................::
         :: total energy             -146.659023385336 Eh   ::
         :: zero point energy           0.742141046628 Eh   ::
         :: G(RRHO) w/o ZPVE           -0.074409890380 Eh   ::
         :: G(RRHO) contrib.            0.667731156248 Eh   ::
         :::::::::::::::::::::::::::::::::::::::::::::::::::::

           -------------------------------------------------
          | TOTAL ENERGY             -146.659023385336 Eh   |
          | TOTAL ENTHALPY           -145.869664405157 Eh   |
          | TOTAL FREE ENERGY        -145.991292229088 Eh   |
          | GRADIENT NORM               0.000201768251 Eh/α |
           -------------------------------------------------

 * finished run on 2025/09/07 at 22:49:58.576
