   * xtb version 6.7.1 (edcfbbe) compiled by 'albert@albert-system' on 2024-07-22

   ID    Z sym.   atoms
    1    6 C      1-17, 19, 20, 22, 23, 25-49, 51-58
    2    7 N      18, 21, 24, 50
    3    1 H      59-96

          program call               : xtb data2507/gas/PrDPhAc/PrDPhAc.xyz --gfn 2 --ohess vtight --parallel 40 --molden --ceasefiles --namespace data2507/gas/PrDPhAc/PrDPhAc_gas_S0_preOpt
          :  Hamiltonian                  GFN2-xTB          :
 * total energy  :  -146.6749891 Eh     change       -0.1984858E-08 Eh
 * total energy  :  -146.7033931 Eh     change       -0.2840405E-01 Eh
 * total energy  :  -146.7167239 Eh     change       -0.1333078E-01 Eh
 * total energy  :  -146.7209544 Eh     change       -0.4230504E-02 Eh
 * total energy  :  -146.7227952 Eh     change       -0.1840756E-02 Eh
 * total energy  :  -146.7238049 Eh     change       -0.1009773E-02 Eh
 * total energy  :  -146.7244001 Eh     change       -0.5952108E-03 Eh
 * total energy  :  -146.7248199 Eh     change       -0.4197670E-03 Eh
 * total energy  :  -146.7251520 Eh     change       -0.3320646E-03 Eh
 * total energy  :  -146.7254524 Eh     change       -0.3004758E-03 Eh
 * total energy  :  -146.7368947 Eh     change       -0.1618129E-05 Eh
 * total energy  :  -146.7368963 Eh     change       -0.1684343E-05 Eh
 * total energy  :  -146.7368981 Eh     change       -0.1735245E-05 Eh
 * total energy  :  -146.7368999 Eh     change       -0.1813388E-05 Eh
 * total energy  :  -146.7369017 Eh     change       -0.1845643E-05 Eh
 * total energy  :  -146.7369037 Eh     change       -0.1943920E-05 Eh
 * total energy  :  -146.7369056 Eh     change       -0.1944845E-05 Eh
 * total energy  :  -146.7369077 Eh     change       -0.2062715E-05 Eh
 * total energy  :  -146.7369077 Eh     change       -0.6544212E-08 Eh
   *** GEOMETRY OPTIMIZATION CONVERGED AFTER 420 ITERATIONS ***

 final structure:
================
96
 xtb: 6.7.1 (edcfbbe)
C           -4.86527511472222       -3.16910260849903       -2.42369519751779
C           -5.17069577192863       -3.35548624745617       -1.08658681476955
C           -5.22701718227950       -2.27304088281531       -0.22754862466276
C           -4.97730868737338       -0.98535573675456       -0.68951486878036
C           -5.03091089236793        0.20028081665075        0.27629207471526
C           -6.44589787562245        0.71124976628735        0.46614818545754
C           -7.53201415651532        0.18505760298708       -0.21695386306001
C           -8.80420362299137        0.69371155012440       -0.00966135435516
C           -9.00578761045031        1.73293236761751        0.88009285206620
C           -7.92539155028155        2.26660798344021        1.56440176519081
C           -6.65697017054266        1.76021180807106        1.35808550993815
C           -4.44110775035149       -0.26650279177221        1.59214058044605
C           -5.20535319666376       -0.63891648317518        2.68736357189054
C           -4.60712924834713       -1.15279498355836        3.82456539043003
C           -3.23064537943112       -1.29704934817785        3.87592992597052
C           -2.45467958497959       -0.91892720819948        2.79847451150464
C           -3.05486163917538       -0.41267354648763        1.64807064097053
N           -2.26662546177042        0.03359030159447        0.58074908425952
C           -1.09134091124011       -0.63942535752454        0.29141697877454
C           -1.06668762659644       -2.04152181962782        0.29930176724646
N            0.00998937409098       -2.70687048209960       -0.07354752923238
C            1.08364135334516       -2.02233368225204       -0.41851373267940
C            1.10279099416737       -0.62133451065014       -0.35280454465465
N            2.27489847305509        0.06800901688759       -0.61163107682222
C            2.74077941769311        1.14717554800490        0.15616525109221
C            1.88247250491972        2.04745858023253        0.77718705329869
C            2.39053331345089        3.10614844677110        1.50634972045090
C            3.75745229292927        3.28623461865791        1.61493056952563
C            4.61606639784980        2.37993576471393        1.01735453616689
C            4.12550514565096        1.30487596268808        0.29288187753405
C            5.03251492570254        0.22087402785844       -0.26230182942837
C            4.95691903805670       -0.99892474586240        0.65835341000553
C            5.22134667468843       -2.26826017162412        0.15544443329370
C            5.14395850007567       -3.38209763936825        0.97154467911422
C            4.80209932877427       -3.24603322764915        2.30593712360131
C            4.55085864790761       -1.98570181868303        2.81809292325572
C            4.62938480092288       -0.87040787164728        2.00207377552547
C            6.45245808546310        0.73175683184159       -0.40951589122657
C            6.68383105414672        1.80886965488501       -1.26200458243729
C            7.95775696877145        2.31622816870037       -1.42824190752507
C            9.02337137583367        1.75539843606640       -0.74248375423753
C            8.80148979806662        0.68835998609409        0.10868462254673
C            7.52378648806694        0.17875512386692        0.27577213446263
C            4.46274560356753       -0.19709246740229       -1.60331714086168
C            5.24209922198039       -0.53022854415872       -2.70047727484752
C            4.65929950237867       -1.00200272089724       -3.86368031941577
C            3.28363413940122       -1.14343362475653       -3.93933878858642
C            2.49284103216100       -0.80419665712291       -2.85966620849228
C            3.07743714944343       -0.34023286291260       -1.68384307377422
N            0.00420535702116        0.04987482174702       -0.01655301015190
C           -2.74293252959149        1.13562499010300       -0.14636377871717
C           -1.89282453586442        2.05255017563341       -0.75448532302832
C           -2.40973550915052        3.13421968099507       -1.44233367282601
C           -3.77776665825268        3.32092700644654       -1.52222769627331
C           -4.62862747860733        2.39811081878426       -0.93912449220840
C           -4.12925639891873        1.29987377897656       -0.25650508507228
C           -4.68596908937762       -0.80627088447534       -2.03585937432068
C           -4.62876586018271       -1.89004755049983       -2.89490519092625
H           -4.81548999929834       -4.01459693805139       -3.09361465541098
H           -5.36511382981735       -4.34844415803630       -0.70811443074209
H           -5.46945193881242       -2.43250018450577        0.81301936676552
H           -7.38990929380900       -0.62476019514913       -0.91702596505215
H           -9.64032411366860        0.27342426514200       -0.54938347997037
H           -9.99830233001846        2.12767981496810        1.03978179723338
H           -8.07240006738105        3.08018569620112        2.25969576046085
H           -5.81450963283795        2.17947742512424        1.89005465532962
H           -6.28004086826315       -0.54042057514943        2.64466436424863
H           -5.21612760058347       -1.44576185235242        4.66613311771140
H           -2.75811415704839       -1.69543063917663        4.76099103657036
H           -1.37922333024023       -1.00954122419913        2.84184318427010
H           -1.93119775701149       -2.62459198388050        0.58157522446485
H            1.95062025759064       -2.58990439429533       -0.72384956238482
H            0.81895768316885        1.90437130783410        0.70244210893328
H            1.71037211566626        3.79458487359120        1.98521914874368
H            4.15798825983809        4.11576769632780        2.17768165020925
H            5.68302144364239        2.49689380898430        1.13575710787901
H            5.49179283045923       -2.38822184271280       -0.88354203641183
H            5.35024412360902       -4.36006804913138        0.56166223502502
H            4.73553670485362       -4.11604358570525        2.94214646430267
H            4.29124105349594       -1.86602275910459        3.85992204833323
H            4.43439884846778        0.10645090752424        2.41931203254851
H            5.85287527732390        2.24938473797046       -1.79490459661148
H            8.12058219135553        3.15175779211554       -2.09332109412623
H           10.02015927748273        2.15076155607162       -0.87096364385378
H            9.62591788800636        0.24689419041663        0.64947755643966
H            7.36569894727324       -0.65288951591512        0.94619892381842
H            6.31613231770413       -0.43427175161768       -2.63951474112665
H            5.27976848173422       -1.26467715903719       -4.70687207580193
H            2.82344247705645       -1.50924987315572       -4.84471921264717
H            1.41807282066701       -0.89290240119564       -2.92060034248887
H           -0.82854618870953        1.90470483975252       -0.70193485789237
H           -1.73563707088923        3.83527114636819       -1.91139156728354
H           -4.18531703359756        4.16847099742314       -2.05213592262365
H           -5.69709713332718        2.52077835836608       -1.03639349540593
H           -4.50290034918747        0.18584279930440       -2.42125983421192
H           -4.39750077088194       -1.73104229184672       -3.93815521715243

          :  Hamiltonian                  GFN2-xTB          :
         :: gradient norm              0.000065552477 Eh/a0 ::
         :: HOMO-LUMO gap              2.276327641656 eV    ::
         :: SCC energy              -149.467512909036 Eh    ::
         :: -> dispersion             -0.154588211835 Eh    ::
         :: repulsion energy           2.730605209747 Eh    ::

    * Orbital Energies and Occupations

         #    Occupation            Energy/Eh            Energy/eV
      -------------------------------------------------------------
         1        2.0000           -0.6844446             -18.6247
       ...           ...                  ...                  ...
       125        2.0000           -0.4041814             -10.9983
       126        2.0000           -0.4040237             -10.9940
       127        2.0000           -0.4026557             -10.9568
       128        2.0000           -0.4024944             -10.9524
       129        2.0000           -0.4010312             -10.9126
       130        2.0000           -0.4008659             -10.9081
       131        2.0000           -0.3942191             -10.7272
       132        2.0000           -0.3940734             -10.7233
       133        2.0000           -0.3914552             -10.6520
       134        2.0000           -0.3912773             -10.6472
       135        2.0000           -0.3661492              -9.9634
       136        2.0000           -0.3639805              -9.9044
       137        2.0000           -0.3494477              -9.5090 (HOMO)
       138                         -0.2657942              -7.2326 (LUMO)
       139                         -0.2470229              -6.7218
       140                         -0.2309621              -6.2848
       141                         -0.2307126              -6.2780
       142                         -0.2282840              -6.2119
       143                         -0.2278821              -6.2010
       144                         -0.2259022              -6.1471
       145                         -0.2257931              -6.1441
       146                         -0.2234827              -6.0813
       147                         -0.2233405              -6.0774
       148                         -0.2214570              -6.0262
       ...                                ...                  ...
       270                          0.6790467              18.4778
      -------------------------------------------------------------
                  HL-Gap            0.0836535 Eh            2.2763 eV

     #   Z          covCN         q      C6AA      α(0)
     1   6 C        2.919    -0.031    28.778     8.797
     2   6 C        2.920    -0.030    28.745     8.792
     3   6 C        2.924    -0.036    28.896     8.815
     4   6 C        2.981     0.012    27.735     8.639
     5   6 C        3.924     0.009    20.356     6.412
     6   6 C        2.977     0.014    27.689     8.631
     7   6 C        2.922    -0.036    28.892     8.815
     8   6 C        2.920    -0.030    28.754     8.793
     9   6 C        2.920    -0.032    28.800     8.800
    10   6 C        2.919    -0.030    28.759     8.794
    11   6 C        2.926    -0.032    28.792     8.800
    12   6 C        2.991    -0.003    28.095     8.695
    13   6 C        2.922    -0.035    28.868     8.811
    14   6 C        2.919    -0.038    28.955     8.824
    15   6 C        2.920    -0.031    28.775     8.797
    16   6 C        2.922    -0.048    29.191     8.860
    17   6 C        2.944     0.056    26.734     8.480
    18   7 N        2.756    -0.072    22.635     7.066
    19   6 C        2.896     0.145    24.854     8.174
    20   6 C        2.907     0.024    27.479     8.595
    21   7 N        1.839    -0.207    26.338     7.606
    22   6 C        2.907     0.024    27.477     8.595
    23   6 C        2.896     0.145    24.856     8.174
    24   7 N        2.756    -0.072    22.632     7.066
    25   6 C        2.930     0.061    26.632     8.463
    26   6 C        2.921    -0.054    29.344     8.883
    27   6 C        2.920    -0.032    28.797     8.800
    28   6 C        2.918    -0.039    28.976     8.827
    29   6 C        2.923    -0.036    28.898     8.816
    30   6 C        2.990    -0.006    28.162     8.705
    31   6 C        3.924     0.010    20.355     6.412
    32   6 C        2.981     0.012    27.735     8.639
    33   6 C        2.924    -0.036    28.895     8.815
    34   6 C        2.920    -0.030    28.745     8.792
    35   6 C        2.919    -0.031    28.777     8.797
    36   6 C        2.920    -0.030    28.747     8.792
    37   6 C        2.923    -0.036    28.891     8.815
    38   6 C        2.977     0.014    27.690     8.632
    39   6 C        2.926    -0.032    28.793     8.800
    40   6 C        2.919    -0.030    28.759     8.794
    41   6 C        2.920    -0.032    28.800     8.800
    42   6 C        2.920    -0.030    28.754     8.793
    43   6 C        2.922    -0.036    28.891     8.815
    44   6 C        2.992    -0.003    28.092     8.694
    45   6 C        2.922    -0.035    28.867     8.811
    46   6 C        2.919    -0.038    28.953     8.824
    47   6 C        2.920    -0.031    28.775     8.797
    48   6 C        2.922    -0.048    29.188     8.860
    49   6 C        2.944     0.056    26.736     8.481
    50   7 N        1.850    -0.269    27.844     7.821
    51   6 C        2.930     0.061    26.632     8.463
    52   6 C        2.921    -0.054    29.349     8.884
    53   6 C        2.920    -0.032    28.797     8.800
    54   6 C        2.918    -0.039    28.980     8.828
    55   6 C        2.923    -0.036    28.898     8.816
    56   6 C        2.990    -0.006    28.165     8.706
    57   6 C        2.923    -0.036    28.891     8.815
    58   6 C        2.920    -0.030    28.747     8.792
    59   1 H        0.926     0.031     2.570     2.507
    60   1 H        0.926     0.031     2.574     2.509
    61   1 H        0.926     0.030     2.585     2.514
    62   1 H        0.926     0.031     2.576     2.510
    63   1 H        0.926     0.030     2.590     2.517
    64   1 H        0.926     0.030     2.591     2.517
    65   1 H        0.926     0.030     2.586     2.515
    66   1 H        0.926     0.030     2.593     2.518
    67   1 H        0.926     0.035     2.510     2.477
    68   1 H        0.926     0.034     2.534     2.489
    69   1 H        0.926     0.036     2.508     2.477
    70   1 H        0.926     0.029     2.594     2.519
    71   1 H        0.926     0.038     2.471     2.458
    72   1 H        0.926     0.038     2.472     2.458
    73   1 H        0.926     0.063     2.167     2.302
    74   1 H        0.926     0.034     2.533     2.489
    75   1 H        0.926     0.031     2.577     2.510
    76   1 H        0.926     0.033     2.549     2.497
    77   1 H        0.926     0.030     2.585     2.514
    78   1 H        0.926     0.031     2.573     2.509
    79   1 H        0.926     0.031     2.569     2.506
    80   1 H        0.926     0.030     2.589     2.516
    81   1 H        0.926     0.031     2.578     2.511
    82   1 H        0.926     0.030     2.592     2.518
    83   1 H        0.926     0.030     2.586     2.515
    84   1 H        0.926     0.030     2.590     2.517
    85   1 H        0.926     0.030     2.590     2.517
    86   1 H        0.926     0.031     2.576     2.510
    87   1 H        0.926     0.036     2.508     2.477
    88   1 H        0.926     0.034     2.532     2.488
    89   1 H        0.926     0.036     2.506     2.476
    90   1 H        0.926     0.030     2.591     2.517
    91   1 H        0.926     0.062     2.174     2.306
    92   1 H        0.926     0.034     2.535     2.490
    93   1 H        0.926     0.031     2.578     2.511
    94   1 H        0.926     0.033     2.550     2.497
    95   1 H        0.926     0.031     2.577     2.510
    96   1 H        0.926     0.030     2.589     2.516

molecular dipole:
                 x           y           z       tot (Debye)
 q only:        0.015       0.311       0.004
   full:        0.015       0.205       0.002       0.523

 projected vibrational frequencies (cm⁻¹)
eigval :       -0.00    -0.00    -0.00    -0.00     0.00     0.00
eigval :        0.93     8.15     8.63     9.65    16.84    24.16
eigval :       34.35    46.97    47.11    51.10    56.00    57.73
eigval :       61.19    68.82    71.61    78.52    82.63    85.28
eigval :       86.50    96.60   103.28   133.29   133.95   166.76
eigval :      166.85   186.09   205.45   219.21   221.85   234.84
eigval :      235.19   239.43   243.58   258.67   259.44   260.90
eigval :      279.99   286.92   288.37   304.28   310.36   313.33
eigval :      327.43   365.24   369.68   369.78   371.27   373.65
eigval :      373.85   395.83   404.58   418.62   421.86   434.96
eigval :      438.51   449.17   453.16   454.40   456.96   473.76
eigval :      477.95   498.19   499.75   514.33   515.01   515.67
eigval :      520.52   552.98   588.38   588.38   588.59   588.59
eigval :      595.62   596.84   602.37   604.57   608.34   610.40
eigval :      610.74   624.97   629.66   640.83   662.71   671.16
eigval :      672.46   673.75   674.50   684.05   690.18   692.78
eigval :      700.94   704.94   708.90   716.13   754.34   755.59
eigval :      755.90   756.45   765.93   778.57   781.45   782.60
eigval :      782.94   816.99   869.47   871.62   878.34   878.59
eigval :      880.40   880.59   881.12   881.59   882.54   893.31
eigval :      893.49   900.70   900.88   902.62   903.93   904.91
eigval :      905.16   905.27   913.46   915.90   918.34   919.33
eigval :      920.43   920.59   924.59   926.24   926.36   927.83
eigval :      931.53   931.54   931.98   932.02   932.86   932.86
eigval :      934.24   934.33   941.73   942.00   986.28   987.26
eigval :     1001.81  1002.08  1021.24  1047.73  1087.73  1087.94
eigval :     1091.31  1091.36  1095.87  1100.19  1100.49  1105.26
eigval :     1116.29  1116.65  1124.42  1126.62  1128.65  1131.98
eigval :     1132.20  1142.36  1167.87  1175.38  1180.32  1180.88
eigval :     1181.51  1182.21  1182.21  1182.55  1182.60  1183.57
eigval :     1183.91  1196.13  1204.04  1204.43  1205.33  1210.39
eigval :     1211.45  1211.85  1212.93  1216.66  1230.14  1241.06
eigval :     1251.40  1255.18  1257.06  1260.65  1261.30  1263.93
eigval :     1280.66  1288.48  1288.67  1290.76  1291.07  1305.17
eigval :     1310.21  1318.13  1318.20  1319.84  1319.89  1323.86
eigval :     1326.28  1331.51  1331.62  1368.88  1392.53  1421.18
eigval :     1432.39  1432.56  1433.46  1433.64  1439.40  1439.97
eigval :     1440.48  1444.16  1458.53  1460.82  1474.29  1474.38
eigval :     1474.73  1476.30  1479.08  1486.45  1507.84  1537.42
eigval :     1575.11  1575.86  1584.81  1584.89  1586.19  1586.33
eigval :     1588.60  1588.62  1589.48  1589.51  1596.85  1597.58
eigval :     1600.92  1601.12  1603.41  1603.45  3071.21  3071.21
eigval :     3073.64  3073.71  3073.90  3074.71  3074.75  3075.58
eigval :     3076.56  3076.57  3080.02  3080.10  3080.71  3080.81
eigval :     3081.66  3081.71  3083.99  3083.99  3086.03  3086.09
eigval :     3087.74  3087.95  3089.73  3089.75  3090.80  3090.90
eigval :     3091.05  3091.14  3094.75  3094.78  3095.39  3095.43
eigval :     3097.38  3097.61  3099.85  3099.97  3140.98  3145.16

   temp. (K)  partition function   enthalpy   heat capacity  entropy
                                   cal/mol     cal/K/mol   cal/K/mol   J/K/mol
 298.15  VIB  0.954E+21            26555.854    170.392    166.416
         ROT  0.106E+09              888.752      2.981     39.704
         INT  0.101E+30            27444.606    173.373    206.120
         TR   0.196E+29             1481.254      4.968     45.675
         TOT                       28925.8601   178.3409   251.7953  1053.5116

       T/K    H(0)-H(T)+PV         H(T)/Eh          T*S/Eh         G(T)/Eh
   ------------------------------------------------------------------------
    298.15    0.460963E-01    0.791469E+00    0.119636E+00    0.671833E+00
   ------------------------------------------------------------------------

         :::::::::::::::::::::::::::::::::::::::::::::::::::::
         ::                  THERMODYNAMIC                  ::
         :::::::::::::::::::::::::::::::::::::::::::::::::::::
         :: total free energy        -146.065074971495 Eh   ::
         ::.................................................::
         :: total energy             -146.736907699283 Eh   ::
         :: zero point energy           0.745372515832 Eh   ::
         :: G(RRHO) w/o ZPVE           -0.073539788045 Eh   ::
         :: G(RRHO) contrib.            0.671832727788 Eh   ::
         :::::::::::::::::::::::::::::::::::::::::::::::::::::

           -------------------------------------------------
          | TOTAL ENERGY             -146.736907699283 Eh   |
          | TOTAL ENTHALPY           -145.945438891298 Eh   |
          | TOTAL FREE ENERGY        -146.065074971495 Eh   |
          | GRADIENT NORM               0.000065553194 Eh/α |
          | HOMO-LUMO GAP               2.276327558347 eV   |
           -------------------------------------------------

 * finished run on 2025/09/07 at 22:44:56.722
