   * xtb version 6.7.1 (edcfbbe) compiled by 'albert@albert-system' on 2024-07-22

   ID    Z sym.   atoms
    1    6 C      1-17, 19, 20, 22, 23, 25-49, 51-58
    2    7 N      18, 21, 24, 50
    3    1 H      59-96

          program call               : xtb data2507/gas/PrDPhAc/PrDPhAc_gas_T1_crest.xyz --gfn 2 --spinpol --tblite --uhf 2 --ohess vtight --parallel 40 --molden --ceasefiles --namespace data2507/gas/PrDPhAc/PrDPhAc_gas_T1_finalOpt
 * total energy  :  -146.6614047 Eh     change       -0.5095558E-08 Eh
 * total energy  :  -146.6614556 Eh     change       -0.5091462E-04 Eh
 * total energy  :  -146.6614788 Eh     change       -0.2317022E-04 Eh
 * total energy  :  -146.6614881 Eh     change       -0.9331099E-05 Eh
 * total energy  :  -146.6614963 Eh     change       -0.8193809E-05 Eh
 * total energy  :  -146.6615003 Eh     change       -0.3962869E-05 Eh
 * total energy  :  -146.6615027 Eh     change       -0.2457796E-05 Eh
 * total energy  :  -146.6615043 Eh     change       -0.1525898E-05 Eh
 * total energy  :  -146.6615052 Eh     change       -0.9611553E-06 Eh
 * total energy  :  -146.6615062 Eh     change       -0.9518643E-06 Eh
 * total energy  :  -146.6615092 Eh     change       -0.9289975E-06 Eh
 * total energy  :  -146.6615101 Eh     change       -0.9088167E-06 Eh
 * total energy  :  -146.6615112 Eh     change       -0.1150214E-05 Eh
 * total energy  :  -146.6615125 Eh     change       -0.1222993E-05 Eh
 * total energy  :  -146.6615137 Eh     change       -0.1209577E-05 Eh
 * total energy  :  -146.6615149 Eh     change       -0.1212624E-05 Eh
 * total energy  :  -146.6615155 Eh     change       -0.6107455E-06 Eh
 * total energy  :  -146.6615164 Eh     change       -0.8799553E-06 Eh
 * total energy  :  -146.6615164 Eh     change       -0.1285790E-07 Eh
   *** GEOMETRY OPTIMIZATION CONVERGED AFTER 22 ITERATIONS ***

 final structure:
================
96
 xtb: 6.7.1 (edcfbbe)
C           -7.93533420515565       -1.62803929224047       -0.55638118950905
C           -7.63100990950652       -0.30639224844871       -0.27323621871046
C           -6.31550505818240        0.08026051268843       -0.10427367931976
C           -5.28241968191190       -0.84737840034665       -0.20642673322179
C           -3.85571893385282       -0.35556075869402       -0.04204094049357
C           -2.85058230831970       -1.50720408150080        0.06529460438542
C           -1.83686233289459       -1.69504020133104       -0.86359488307846
C           -0.93171033251653       -2.73331156176709       -0.71596927774212
C           -1.01745975780367       -3.59224381705109        0.36412369243942
C           -2.02438046647639       -3.41095539214373        1.29739368354274
C           -2.93084065079601       -2.37862838553038        1.14799651012344
C           -3.50400245010067        0.53559531097405       -1.21171632065279
C           -4.06928384429970        0.35324971203198       -2.46417953916833
C           -3.67761145811008        1.12732862423337       -3.54287943474544
C           -2.71008674847670        2.10361695088964       -3.37142095193843
C           -2.14186961087554        2.30477215463381       -2.13050619412043
C           -2.52273845565289        1.51729501394462       -1.04228473878737
N           -1.94416029164792        1.72949900133316        0.20473759973790
C           -0.69891306799648        2.35094101459395        0.24156471505627
C           -0.46193929369898        3.55389797511689        0.87619350391835
N            0.75885394797072        4.07124905563505        0.94076591910423
C            1.77651266664768        3.40604949586289        0.34351283415150
C            1.51383767343187        2.30657654330066       -0.45195194000310
N            2.50455374327553        1.58124506612352       -1.07768464459185
C            3.86885323557018        1.73741801300507       -0.77715259256981
C            4.53843098260262        2.92698208862340       -1.03127371229577
C            5.88784020877237        3.02766216673745       -0.74357384344371
C            6.56745668875827        1.94354725321685       -0.21500374410386
C            5.90451499870484        0.74958227958148        0.02019146351625
C            4.55496525767574        0.63129083423009       -0.26483077115573
C            3.71138094565574       -0.60538172018944        0.00023913906128
C            2.74815698943401       -0.26907764520609        1.14311043584021
C            1.45655633124361       -0.78281681895560        1.15639626237218
C            0.56532987573032       -0.42719145143925        2.15233376271718
C            0.95513958739202        0.44081667839282        3.15683737063912
C            2.24711260966878        0.93693963335133        3.16677422217901
C            3.13788973191179        0.58399203775171        2.16854328566375
C            4.56070831410271       -1.82065057924766        0.29619769995257
C            5.49476248825436       -2.23591556251315       -0.65018289459176
C            6.28884333234936       -3.34309455968169       -0.41932803450455
C            6.16096690489545       -4.05519691473841        0.76227105716446
C            5.23342899390917       -3.65146686401349        1.70549386535210
C            4.43716773532228       -2.54157409420886        1.47487946681411
C            2.86421505058059       -0.79389199625759       -1.24780769707746
C            2.65234101434001       -1.99507757496660       -1.90157571892996
C            1.77004486777884       -2.05845989931617       -2.96913818341286
C            1.07519115181396       -0.92884252271052       -3.37076094912807
C            1.28407087089338        0.27943824671104       -2.73271525982896
C            2.18840138903519        0.34746820024969       -1.68269832229350
N            0.27824796155055        1.78247643396226       -0.52615010680262
C           -2.61974438688151        1.33524009883752        1.35401052758999
C           -2.27620757885936        1.82895761495427        2.61423860552560
C           -3.02489247904906        1.50280380398459        3.72669320637559
C           -4.13754779751368        0.68874049949007        3.60414241031728
C           -4.44285346415045        0.13907709920571        2.37135300936366
C           -3.68295289502519        0.42567444381385        1.24778760558537
C           -5.59448804502320       -2.16526157132577       -0.50753871116011
C           -6.91374464268925       -2.55247468421406       -0.67745040936737
H           -8.96310217402059       -1.93285799375514       -0.68716927742879
H           -8.42122186698046        0.42487990483551       -0.18593603430368
H           -6.07975473424616        1.11290263371657        0.11160541179646
H           -1.73882949022861       -1.03572858302688       -1.71228587801838
H           -0.15356672549518       -2.86281005436576       -1.45359531623423
H           -0.30444541222167       -4.39512795068483        0.48070199230228
H           -2.10388944515390       -4.07411382232158        2.14657416844138
H           -3.71019578385614       -2.24807320255078        1.88377968331425
H           -4.81568486323132       -0.41512422468389       -2.59983352869101
H           -4.12464511899607        0.96614728497162       -4.51191810788644
H           -2.40233106117013        2.71626998637267       -4.20572710997687
H           -1.40572141535868        3.08075385575358       -1.99085876954917
H           -1.27420708283492        4.13536488920876        1.28435857963924
H            2.77679953502448        3.72006288780057        0.58365097495361
H            4.00241199159441        3.75969736217360       -1.46034748892280
H            6.40886580199798        3.95350921322899       -0.93534445321550
H            7.61843112050784        2.02531246861735        0.01778255894796
H            6.44003077842230       -0.08722540719238        0.44339367212799
H            1.13232340469832       -1.45838321367421        0.37989102683350
H           -0.43865446158185       -0.82647838602665        2.13465478892165
H            0.25594486371166        0.72454097817073        3.92945162433728
H            2.56388665450189        1.60987725167017        3.95021682335993
H            4.14252748195577        0.98216422840821        2.18543292749140
H            5.59567437033850       -1.68284280713967       -1.57371340361556
H            7.00917959401246       -3.65171852715995       -1.16299634606334
H            6.78126019847281       -4.92036073691664        0.94443528337983
H            5.12600939066860       -4.20199077228906        2.62875749892012
H            3.71573966753788       -2.23774914151958        2.21875971144031
H            3.15805955097037       -2.88887618986015       -1.56715395654403
H            1.61489903445423       -2.99866582716324       -3.47835534226281
H            0.37255159554060       -0.98785546160171       -4.18871432685823
H            0.75088977663661        1.16596521530570       -3.03665839833198
H           -1.40748025373567        2.45684066287357        2.72349300068794
H           -2.74214851020152        1.89609027936834        4.69176418544042
H           -4.74464246974770        0.45566330091161        4.46535465198284
H           -5.28404667223700       -0.53307491029945        2.28366798209221
H           -4.80680551784975       -2.89614401564739       -0.61516310886600
H           -7.14090033920079       -3.58308361093030       -0.90852028058609

 projected vibrational frequencies (cm⁻¹)
eigval :       -0.00    -0.00    -0.00     0.00     0.00     0.00
eigval :       15.25    16.37    21.87    28.07    33.10    40.31
eigval :       47.26    52.02    52.80    56.21    61.98    66.19
eigval :       66.32    69.88    76.63    82.17    87.60    88.50
eigval :       89.69    98.17   134.71   140.66   147.77   165.07
eigval :      168.22   178.58   209.25   217.95   223.41   231.73
eigval :      236.73   238.91   245.46   257.14   260.75   266.01
eigval :      268.53   284.50   292.18   299.85   308.21   322.21
eigval :      330.15   363.05   370.26   373.96   374.54   376.15
eigval :      378.91   382.29   386.10   399.39   410.94   432.98
eigval :      444.19   447.46   452.60   458.73   467.22   473.61
eigval :      474.78   493.64   502.49   506.88   511.45   518.16
eigval :      520.52   527.82   552.94   580.98   588.20   588.31
eigval :      588.43   589.11   593.66   597.44   603.20   604.36
eigval :      607.76   612.23   615.46   621.62   626.56   656.95
eigval :      668.84   673.87   674.18   675.12   682.28   685.30
eigval :      688.93   695.30   698.65   700.00   716.35   753.47
eigval :      755.38   756.21   758.75   763.42   775.64   775.77
eigval :      781.28   786.52   807.56   869.06   871.22   876.58
eigval :      877.67   879.99   880.99   882.05   882.57   888.83
eigval :      891.79   892.85   899.23   901.32   904.33   904.80
eigval :      905.34   906.58   911.66   913.73   916.05   920.01
eigval :      921.20   922.24   923.29   926.04   926.66   929.41
eigval :      930.11   931.63   932.61   932.85   933.76   934.73
eigval :      937.68   938.87   940.53   943.08   967.42   985.76
eigval :      987.04  1000.24  1003.13  1028.18  1077.69  1087.64
eigval :     1088.27  1090.09  1091.08  1091.95  1092.49  1103.75
eigval :     1107.74  1112.23  1117.99  1120.75  1122.70  1126.60
eigval :     1127.21  1130.55  1133.24  1154.69  1172.48  1176.57
eigval :     1179.49  1180.40  1181.55  1182.17  1182.31  1182.58
eigval :     1183.25  1184.30  1187.15  1198.22  1201.76  1203.74
eigval :     1204.64  1208.20  1210.63  1212.06  1221.76  1228.91
eigval :     1240.88  1250.01  1253.19  1255.97  1263.55  1264.81
eigval :     1271.04  1279.40  1287.77  1288.47  1290.18  1292.21
eigval :     1303.95  1316.38  1318.35  1318.96  1319.47  1321.72
eigval :     1326.56  1327.21  1331.04  1333.28  1365.04  1384.14
eigval :     1416.31  1428.34  1432.70  1432.82  1433.40  1435.11
eigval :     1437.08  1440.71  1441.76  1449.99  1455.00  1471.26
eigval :     1472.93  1474.12  1474.89  1477.64  1478.47  1501.14
eigval :     1563.69  1572.10  1574.55  1578.31  1579.50  1581.73
eigval :     1586.57  1588.00  1588.34  1589.33  1590.72  1593.14
eigval :     1599.16  1600.26  1602.30  1603.00  3069.66  3071.13
eigval :     3072.62  3073.47  3074.40  3074.56  3074.62  3075.18
eigval :     3075.90  3079.27  3080.87  3080.97  3081.76  3082.04
eigval :     3082.10  3083.17  3083.77  3084.76  3087.25  3087.86
eigval :     3089.39  3089.52  3090.79  3092.04  3092.28  3094.60
eigval :     3094.90  3095.01  3096.27  3097.37  3098.10  3100.73
eigval :     3102.19  3103.59  3105.30  3108.22  3113.20  3115.60

   temp. (K)  partition function   enthalpy   heat capacity  entropy
                                   cal/mol     cal/K/mol   cal/K/mol   J/K/mol
 298.15  VIB  0.980E+20            27060.460    174.236    167.539
         ROT  0.774E+08              888.752      2.981     39.078
         INT  0.759E+28            27949.213    177.217    206.616
         TR   0.196E+29             1481.254      4.968     45.675
         TOT                       29430.4667   182.1854   252.2914  1055.5874

       T/K    H(0)-H(T)+PV         H(T)/Eh          T*S/Eh         G(T)/Eh
   ------------------------------------------------------------------------
    298.15    0.469004E-01    0.789904E+00    0.119872E+00    0.670032E+00
   ------------------------------------------------------------------------

         :::::::::::::::::::::::::::::::::::::::::::::::::::::
         ::                  THERMODYNAMIC                  ::
         :::::::::::::::::::::::::::::::::::::::::::::::::::::
         :: total free energy        -145.991484218822 Eh   ::
         ::.................................................::
         :: total energy             -146.661516410894 Eh   ::
         :: zero point energy           0.743003559352 Eh   ::
         :: G(RRHO) w/o ZPVE           -0.072971367280 Eh   ::
         :: G(RRHO) contrib.            0.670032192072 Eh   ::
         :::::::::::::::::::::::::::::::::::::::::::::::::::::

           -------------------------------------------------
          | TOTAL ENERGY             -146.661516410894 Eh   |
          | TOTAL ENTHALPY           -145.871612417475 Eh   |
          | TOTAL FREE ENERGY        -145.991484218822 Eh   |
          | GRADIENT NORM               0.000090530257 Eh/α |
           -------------------------------------------------

 * finished run on 2025/09/07 at 22:58:55.117
