   * xtb version 6.7.1 (edcfbbe) compiled by 'albert@albert-system' on 2024-07-22

   ID    Z sym.   atoms
    1    6 C      1-17, 19, 20, 22, 23, 25-49, 51-58
    2    7 N      18, 21, 24, 50
    3    1 H      59-96

          program call               : xtb data2507/gas/PrDPhAc/PrDPhAc_gas_S0_crest.xyz --gfn 2 --ohess vtight --parallel 40 --molden --ceasefiles --namespace data2507/gas/PrDPhAc/PrDPhAc_gas_S0_finalOpt
          :  Hamiltonian                  GFN2-xTB          :
 * total energy  :  -146.7472447 Eh     change       -0.3131987E-08 Eh
 * total energy  :  -146.7472458 Eh     change       -0.1140500E-05 Eh
 * total energy  :  -146.7472478 Eh     change       -0.2018890E-05 Eh
 * total energy  :  -146.7472523 Eh     change       -0.4439506E-05 Eh
 * total energy  :  -146.7472570 Eh     change       -0.4748922E-05 Eh
 * total energy  :  -146.7472598 Eh     change       -0.2719357E-05 Eh
 * total energy  :  -146.7472618 Eh     change       -0.2061195E-05 Eh
 * total energy  :  -146.7472643 Eh     change       -0.2479411E-05 Eh
 * total energy  :  -146.7472676 Eh     change       -0.3311406E-05 Eh
 * total energy  :  -146.7472714 Eh     change       -0.3744495E-05 Eh
 * total energy  :  -146.7473421 Eh     change       -0.7278027E-06 Eh
 * total energy  :  -146.7473427 Eh     change       -0.5381395E-06 Eh
 * total energy  :  -146.7473430 Eh     change       -0.3338778E-06 Eh
 * total energy  :  -146.7473432 Eh     change       -0.1954504E-06 Eh
 * total energy  :  -146.7473434 Eh     change       -0.2129468E-06 Eh
 * total energy  :  -146.7473437 Eh     change       -0.2771122E-06 Eh
 * total energy  :  -146.7473439 Eh     change       -0.2492237E-06 Eh
 * total energy  :  -146.7473442 Eh     change       -0.2736918E-06 Eh
 * total energy  :  -146.7473442 Eh     change       -0.2568015E-08 Eh
   *** GEOMETRY OPTIMIZATION CONVERGED AFTER 44 ITERATIONS ***

 final structure:
================
96
 xtb: 6.7.1 (edcfbbe)
C           -2.07351960249648        1.41520013005648        3.37659123069132
C           -2.91831700878831        2.19250414567596        2.60497098218492
C           -3.61824854665621        1.62843600661333        1.55275636824264
C           -3.47332926700824        0.28085577313355        1.24832539921456
C           -4.15932825552849       -0.33618404226045        0.02750552624079
C           -5.46608788789680       -1.01291216895018        0.37387834596868
C           -5.98937032957496       -1.00157432006131        1.65849375045774
C           -7.19278330770604       -1.63093020147599        1.93189960202474
C           -7.88792457310742       -2.27754728964541        0.92615481832560
C           -7.37455314457126       -2.29066099504357       -0.36070606858452
C           -6.17438280735424       -1.66281087130462       -0.63420637747274
C           -4.34949852646228        0.75896128754942       -1.00902162566855
C           -5.56947493398894        1.29346255173698       -1.38682384597808
C           -5.62347243546026        2.32594868646763       -2.30929899307477
C           -4.45945268512704        2.82753019715065       -2.86575152199365
C           -3.23267733745819        2.30320091824594       -2.49867118010518
C           -3.17667790193986        1.28313831184342       -1.56009857908799
N           -1.95569865875838        0.69192413111968       -1.18201561173520
C           -0.97234833392617        1.37462096647683       -0.51162348219788
C           -0.96875728261217        2.76664746733234       -0.34662870539292
N            0.00062163920139        3.36381207488650        0.31968390274412
C            0.96029272925496        2.62993575762978        0.84890576023364
C            0.94580566028270        1.23334313960046        0.72494951020281
N            1.91903273555609        0.41747597134148        1.24256894155944
C            1.97711034167181       -0.94541894702097        0.87820202231434
C            0.93173244705617       -1.81088004534971        1.15483802818384
C            1.05426185810085       -3.14915346936286        0.82733036245504
C            2.21306520276496       -3.61636049564091        0.23164971687310
C            3.25448471533415       -2.74728638600388       -0.05232041216611
C            3.14664833955376       -1.40560679062900        0.27141345666458
C            4.17121618241478       -0.33307840610039       -0.07075380308913
C            3.53256302220844        0.54657473959897       -1.14788802662900
C            3.73078763219670        1.92164817558048       -1.15997650207720
C            3.07792109895089        2.71984884574575       -2.08265197682869
C            2.22605638979978        2.15428577793176       -3.01437427850769
C            2.05375061154296        0.78116471044131       -3.03524645761773
C            2.70338189000298       -0.01677940244020       -2.11108764360622
C            5.49230958109265       -0.92374610083389       -0.50772936402180
C            6.16890170871942       -1.77476322616526        0.36309825314322
C            7.38127713199669       -2.33232521642036        0.00442675988670
C            7.93840569306615       -2.04709347752277       -1.23168904717009
C            7.27387882929800       -1.20147835203084       -2.10129464229243
C            6.05827087051821       -0.64235052360099       -1.74247643419017
C            4.31697587436851        0.50773575881170        1.18720346982952
C            5.51822779303013        0.93962818059473        1.72311169343752
C            5.52976961596792        1.74701411467031        2.84911226808192
C            4.34153391966930        2.12393368188223        3.45114426193593
C            3.13315197545324        1.69976028289650        2.92755183611859
C            3.12032343324563        0.90740505442160        1.78867007397277
N           -0.01690750653137        0.62912361435102        0.03538830796316
C           -2.00652506612758       -0.71801777480424       -1.11705841916295
C           -0.97463126321889       -1.49723066078380       -1.61355602849110
C           -1.08803150576784       -2.87519226199892       -1.57888633753522
C           -2.22481469234179       -3.46615682550786       -1.05472538129712
C           -3.25181128865968       -2.68492353796368       -0.54954453352164
C           -3.15280156854589       -1.30426368494428       -0.57939921034656
C           -2.65085940792679       -0.50023515804810        2.05240390826796
C           -1.95545411667638        0.06269411573684        3.10695429663549
H           -1.51467133199719        1.85971256449310        4.18687487178666
H           -3.02696915235641        3.24649185187708        2.81357413103530
H           -4.27250820131369        2.24919394451582        0.95783324927379
H           -5.45781059107418       -0.49858081406779        2.45270086635245
H           -7.58715637964691       -1.61358408241351        2.93745754216744
H           -8.82567662215455       -2.76810181948441        1.14149647567055
H           -7.91147259615477       -2.79123814386992       -1.15333876978359
H           -5.77679971896724       -1.67207708338275       -1.63950184737217
H           -6.48151078202209        0.91548210386634       -0.94945401808689
H           -6.57970027757571        2.73992432083788       -2.59155896194863
H           -4.50539671264426        3.62598490847868       -3.59094545646826
H           -2.31934919733927        2.67436320220239       -2.93832735772539
H           -1.74845421447993        3.40407055776216       -0.73295511761615
H            1.74808146525626        3.16398680033510        1.35662441322808
H            0.03313695714366       -1.42771281800440        1.60830221887275
H            0.24185274487369       -3.82777306888596        1.03900843983920
H            2.30686784171230       -4.66109249303268       -0.02569665150572
H            4.14411164741597       -3.11469356492823       -0.54252285283387
H            4.39079929278614        2.37758881311980       -0.43615153347672
H            3.22875748174014        3.78902680269796       -2.06468949300809
H            1.70345476225189        2.77958809550008       -3.72307334361896
H            1.40385693952559        0.32888236922164       -3.77105201515747
H            2.55719164389575       -1.08707702460210       -2.13129917855728
H            5.73678107722238       -1.99712945706716        1.32881229983195
H            7.89355005371021       -2.99067620467543        0.69093946771475
H            8.88604121730222       -2.48192547612806       -1.51331352062480
H            7.70194790856605       -0.97259956994661       -3.06635761605503
H            5.55048830540978        0.01746432175263       -2.43031968164336
H            6.44924144669302        0.65973678634669        1.25314255532200
H            6.47185631580894        2.08360995195458        3.25481330256868
H            4.35425971188509        2.74595166715000        4.33345925503461
H            2.20050539187692        1.97313995300681        3.39736368771463
H           -0.09282023287859       -1.01968749900532       -2.00721701618151
H           -0.28629843824905       -3.48791802055346       -1.96250498080520
H           -2.31183635647921       -4.54233438595595       -1.02628372913575
H           -4.12291027049301       -3.15475988284164       -0.11680738239207
H           -2.54766810197771       -1.55558916633649        1.84471378745972
H           -1.31187514444965       -0.55608465938991        3.71626301510494

          :  Hamiltonian                  GFN2-xTB          :
         :: gradient norm              0.000037423988 Eh/a0 ::
         :: HOMO-LUMO gap              2.617762876862 eV    ::
         :: SCC energy              -149.481289936878 Eh    ::
         :: -> dispersion             -0.169621553457 Eh    ::
         :: repulsion energy           2.733945731118 Eh    ::

    * Orbital Energies and Occupations

         #    Occupation            Energy/Eh            Energy/eV
      -------------------------------------------------------------
         1        2.0000           -0.6718178             -18.2811
       ...           ...                  ...                  ...
       125        2.0000           -0.4036868             -10.9849
       126        2.0000           -0.4033540             -10.9758
       127        2.0000           -0.4014349             -10.9236
       128        2.0000           -0.4004536             -10.8969
       129        2.0000           -0.3998666             -10.8809
       130        2.0000           -0.3946688             -10.7395
       131        2.0000           -0.3929996             -10.6941
       132        2.0000           -0.3925068             -10.6807
       133        2.0000           -0.3923155             -10.6754
       134        2.0000           -0.3902029             -10.6180
       135        2.0000           -0.3664591              -9.9719
       136        2.0000           -0.3526550              -9.5962
       137        2.0000           -0.3424216              -9.3178 (HOMO)
       138                         -0.2462206              -6.7000 (LUMO)
       139                         -0.2352680              -6.4020
       140                         -0.2316535              -6.3036
       141                         -0.2311035              -6.2886
       142                         -0.2277767              -6.1981
       143                         -0.2270475              -6.1783
       144                         -0.2248999              -6.1198
       145                         -0.2245827              -6.1112
       146                         -0.2237636              -6.0889
       147                         -0.2230430              -6.0693
       148                         -0.2224690              -6.0537
       ...                                ...                  ...
       270                          0.6780153              18.4497
      -------------------------------------------------------------
                  HL-Gap            0.0962010 Eh            2.6178 eV

     #   Z          covCN         q      C6AA      α(0)
     1   6 C        2.920    -0.031    28.769     8.796
     2   6 C        2.920    -0.029    28.716     8.788
     3   6 C        2.924    -0.035    28.874     8.812
     4   6 C        2.983     0.013    27.714     8.635
     5   6 C        3.926     0.011    20.325     6.407
     6   6 C        2.975     0.013    27.708     8.634
     7   6 C        2.923    -0.035    28.875     8.812
     8   6 C        2.920    -0.030    28.747     8.792
     9   6 C        2.920    -0.032    28.797     8.800
    10   6 C        2.919    -0.031    28.771     8.796
    11   6 C        2.925    -0.032    28.809     8.802
    12   6 C        2.993    -0.001    28.041     8.686
    13   6 C        2.920    -0.035    28.880     8.813
    14   6 C        2.920    -0.036    28.893     8.815
    15   6 C        2.920    -0.032    28.793     8.799
    16   6 C        2.919    -0.045    29.111     8.848
    17   6 C        2.947     0.058    26.702     8.475
    18   7 N        2.762    -0.082    22.826     7.096
    19   6 C        2.897     0.147    24.803     8.166
    20   6 C        2.901     0.008    27.834     8.650
    21   7 N        1.841    -0.218    26.594     7.643
    22   6 C        2.901     0.009    27.828     8.650
    23   6 C        2.896     0.147    24.809     8.166
    24   7 N        2.762    -0.080    22.793     7.091
    25   6 C        2.953     0.067    26.509     8.445
    26   6 C        2.920    -0.036    28.898     8.815
    27   6 C        2.921    -0.030    28.755     8.794
    28   6 C        2.920    -0.036    28.906     8.817
    29   6 C        2.920    -0.037    28.920     8.819
    30   6 C        2.996    -0.002    28.072     8.691
    31   6 C        3.926     0.011    20.327     6.407
    32   6 C        2.983     0.013    27.719     8.636
    33   6 C        2.924    -0.035    28.874     8.812
    34   6 C        2.920    -0.029    28.719     8.788
    35   6 C        2.920    -0.031    28.770     8.796
    36   6 C        2.920    -0.029    28.716     8.788
    37   6 C        2.924    -0.032    28.798     8.800
    38   6 C        2.975     0.014    27.706     8.634
    39   6 C        2.925    -0.032    28.810     8.802
    40   6 C        2.919    -0.031    28.771     8.796
    41   6 C        2.920    -0.032    28.798     8.800
    42   6 C        2.920    -0.030    28.747     8.792
    43   6 C        2.923    -0.035    28.875     8.812
    44   6 C        2.994    -0.001    28.041     8.686
    45   6 C        2.920    -0.035    28.881     8.813
    46   6 C        2.920    -0.036    28.897     8.815
    47   6 C        2.920    -0.032    28.794     8.800
    48   6 C        2.919    -0.045    29.110     8.848
    49   6 C        2.947     0.058    26.709     8.476
    50   7 N        1.865    -0.299    28.612     7.929
    51   6 C        2.954     0.067    26.500     8.443
    52   6 C        2.920    -0.035    28.879     8.813
    53   6 C        2.921    -0.030    28.750     8.793
    54   6 C        2.920    -0.036    28.902     8.816
    55   6 C        2.921    -0.037    28.917     8.818
    56   6 C        2.996    -0.002    28.067     8.690
    57   6 C        2.924    -0.032    28.792     8.800
    58   6 C        2.920    -0.029    28.715     8.787
    59   1 H        0.926     0.029     2.601     2.522
    60   1 H        0.926     0.033     2.548     2.496
    61   1 H        0.926     0.028     2.621     2.532
    62   1 H        0.926     0.031     2.576     2.510
    63   1 H        0.926     0.030     2.585     2.514
    64   1 H        0.926     0.030     2.589     2.516
    65   1 H        0.926     0.030     2.590     2.517
    66   1 H        0.926     0.030     2.580     2.512
    67   1 H        0.926     0.037     2.491     2.468
    68   1 H        0.926     0.035     2.510     2.478
    69   1 H        0.926     0.037     2.485     2.465
    70   1 H        0.926     0.040     2.452     2.449
    71   1 H        0.926     0.030     2.591     2.517
    72   1 H        0.926     0.029     2.594     2.519
    73   1 H        0.926     0.048     2.340     2.392
    74   1 H        0.926     0.034     2.524     2.484
    75   1 H        0.926     0.033     2.547     2.496
    76   1 H        0.926     0.035     2.522     2.483
    77   1 H        0.926     0.028     2.618     2.530
    78   1 H        0.926     0.033     2.549     2.497
    79   1 H        0.926     0.029     2.594     2.519
    80   1 H        0.926     0.028     2.611     2.527
    81   1 H        0.926     0.030     2.581     2.512
    82   1 H        0.926     0.030     2.580     2.512
    83   1 H        0.926     0.030     2.591     2.517
    84   1 H        0.926     0.030     2.589     2.516
    85   1 H        0.926     0.030     2.586     2.515
    86   1 H        0.926     0.031     2.575     2.509
    87   1 H        0.926     0.037     2.491     2.468
    88   1 H        0.926     0.035     2.511     2.478
    89   1 H        0.926     0.037     2.486     2.466
    90   1 H        0.926     0.039     2.456     2.451
    91   1 H        0.926     0.047     2.356     2.400
    92   1 H        0.926     0.035     2.521     2.483
    93   1 H        0.926     0.033     2.546     2.495
    94   1 H        0.926     0.035     2.522     2.483
    95   1 H        0.926     0.030     2.581     2.512
    96   1 H        0.926     0.029     2.604     2.523

molecular dipole:
                 x           y           z       tot (Debye)
 q only:       -0.015      -0.771      -0.070
   full:       -0.016      -0.647      -0.055       1.652

 projected vibrational frequencies (cm⁻¹)
eigval :       -0.00    -0.00    -0.00     0.00     0.00     0.00
eigval :        7.98     9.40    20.37    24.39    27.18    42.17
eigval :       44.19    50.29    53.71    55.37    57.57    59.95
eigval :       61.69    72.81    78.64    83.93    88.26    89.23
eigval :       92.82   100.26   138.01   141.73   146.95   162.11
eigval :      167.82   173.16   174.09   220.81   225.09   232.27
eigval :      238.19   238.92   245.91   260.27   260.91   263.67
eigval :      268.01   292.17   294.52   304.25   315.28   325.91
eigval :      328.38   362.19   364.56   374.64   374.98   376.04
eigval :      376.67   384.59   399.43   404.66   432.43   446.29
eigval :      452.31   454.60   455.63   460.25   469.28   473.79
eigval :      476.35   506.88   509.32   512.74   513.03   520.09
eigval :      526.36   585.45   588.24   588.34   588.55   588.90
eigval :      591.20   596.00   599.61   605.19   605.42   613.09
eigval :      613.31   614.90   621.51   626.03   664.56   673.36
eigval :      673.89   674.26   674.32   686.36   696.12   697.48
eigval :      699.16   702.43   716.65   717.99   755.21   755.32
eigval :      756.59   757.54   769.66   780.16   781.82   785.03
eigval :      786.39   796.51   841.37   878.08   878.94   879.62
eigval :      880.73   882.46   882.65   888.04   888.87   893.33
eigval :      894.36   902.06   902.53   903.18   904.71   906.04
eigval :      906.64   907.15   915.06   915.20   919.76   920.77
eigval :      923.43   923.86   926.08   927.06   930.05   930.17
eigval :      931.17   931.39   932.54   932.59   934.35   935.29
eigval :      936.85   937.90   938.42   938.60   986.69   987.58
eigval :     1003.70  1004.13  1018.52  1052.21  1087.35  1087.81
eigval :     1090.86  1090.97  1091.30  1091.43  1092.48  1092.57
eigval :     1112.60  1112.78  1118.69  1126.09  1126.42  1130.43
eigval :     1130.80  1141.19  1172.65  1172.88  1177.03  1177.70
eigval :     1181.08  1182.31  1182.33  1183.23  1183.82  1184.75
eigval :     1185.13  1200.49  1200.95  1203.25  1204.38  1204.54
eigval :     1206.46  1211.28  1211.68  1220.34  1233.86  1246.38
eigval :     1252.72  1254.28  1254.87  1264.14  1264.47  1274.91
eigval :     1280.07  1288.16  1288.41  1290.18  1291.73  1295.13
eigval :     1306.86  1318.54  1318.88  1319.76  1319.90  1325.74
eigval :     1327.78  1331.05  1331.65  1382.69  1412.52  1429.74
eigval :     1433.07  1433.30  1434.27  1434.48  1443.13  1443.21
eigval :     1443.43  1448.52  1452.91  1453.45  1472.45  1474.68
eigval :     1474.75  1477.04  1478.91  1483.43  1527.07  1560.01
eigval :     1577.41  1578.19  1585.01  1585.24  1586.68  1586.79
eigval :     1589.54  1589.59  1589.86  1589.89  1597.77  1598.01
eigval :     1601.30  1601.35  1603.89  1603.99  3068.91  3068.95
eigval :     3070.37  3070.44  3074.70  3074.72  3076.85  3077.05
eigval :     3077.15  3077.31  3081.07  3081.10  3081.56  3081.60
eigval :     3082.88  3083.29  3085.43  3085.85  3086.17  3086.46
eigval :     3086.72  3086.92  3087.87  3088.95  3089.05  3089.13
eigval :     3093.48  3093.92  3094.14  3094.27  3094.30  3094.58
eigval :     3094.80  3094.93  3099.96  3100.08  3121.50  3126.45

   temp. (K)  partition function   enthalpy   heat capacity  entropy
                                   cal/mol     cal/K/mol   cal/K/mol   J/K/mol
 298.15  VIB  0.476E+21            26901.938    172.306    168.004
         ROT  0.803E+08              888.752      2.981     39.150
         INT  0.382E+29            27790.691    175.287    207.155
         TR   0.196E+29             1481.254      4.968     45.675
         TOT                       29271.9448   180.2550   252.8296  1057.8389

       T/K    H(0)-H(T)+PV         H(T)/Eh          T*S/Eh         G(T)/Eh
   ------------------------------------------------------------------------
    298.15    0.466478E-01    0.792648E+00    0.120127E+00    0.672521E+00
   ------------------------------------------------------------------------

         :::::::::::::::::::::::::::::::::::::::::::::::::::::
         ::                  THERMODYNAMIC                  ::
         :::::::::::::::::::::::::::::::::::::::::::::::::::::
         :: total free energy        -146.074823249451 Eh   ::
         ::.................................................::
         :: total energy             -146.747344205759 Eh   ::
         :: zero point energy           0.746000626322 Eh   ::
         :: G(RRHO) w/o ZPVE           -0.073479670015 Eh   ::
         :: G(RRHO) contrib.            0.672520956308 Eh   ::
         :::::::::::::::::::::::::::::::::::::::::::::::::::::

           -------------------------------------------------
          | TOTAL ENERGY             -146.747344205759 Eh   |
          | TOTAL ENTHALPY           -145.954695766187 Eh   |
          | TOTAL FREE ENERGY        -146.074823249451 Eh   |
          | GRADIENT NORM               0.000037423658 Eh/α |
          | HOMO-LUMO GAP               2.617762868742 eV   |
           -------------------------------------------------

 * finished run on 2025/09/07 at 22:49:42.268
