   * xtb version 6.7.1 (edcfbbe) compiled by 'albert@albert-system' on 2024-07-22

   ID    Z sym.   atoms
    1    6 C      1-24, 26-32
    2    7 N      25
    3    1 H      33-51

          program call               : xtb data2507/toluene/4-SCZ/4-SCZ_toluene_T1_crest.xyz --gfn 2 --uhf 2 --gbsa toluene --ohess vtight --parallel 40 --molden --ceasefiles --namespace data2507/toluene/4-SCZ/4-SCZ_toluene_T1_finalOpt
      * Solvation model:               GBSA
        Solvent                        toluene
        Solvent mass                       9.2140E+01 g/mol
          :  Hamiltonian                  GFN2-xTB          :
 * total energy  :   -78.9782879 Eh     change       -0.1634419E-08 Eh
 * total energy  :   -78.9783030 Eh     change       -0.1509053E-04 Eh
 * total energy  :   -78.9783075 Eh     change       -0.4474178E-05 Eh
 * total energy  :   -78.9783092 Eh     change       -0.1748165E-05 Eh
 * total energy  :   -78.9783109 Eh     change       -0.1654278E-05 Eh
 * total energy  :   -78.9783120 Eh     change       -0.1107750E-05 Eh
 * total energy  :   -78.9783132 Eh     change       -0.1278822E-05 Eh
 * total energy  :   -78.9783147 Eh     change       -0.1470542E-05 Eh
 * total energy  :   -78.9783159 Eh     change       -0.1185819E-05 Eh
 * total energy  :   -78.9783167 Eh     change       -0.8106263E-06 Eh
 * total energy  :   -78.9783174 Eh     change       -0.6977483E-06 Eh
 * total energy  :   -78.9783181 Eh     change       -0.7043772E-06 Eh
 * total energy  :   -78.9783187 Eh     change       -0.6015489E-06 Eh
 * total energy  :   -78.9783191 Eh     change       -0.3473483E-06 Eh
 * total energy  :   -78.9783192 Eh     change       -0.8739619E-07 Eh
   *** GEOMETRY OPTIMIZATION CONVERGED AFTER 15 ITERATIONS ***

 final structure:
================
51
 xtb: 6.7.1 (edcfbbe)
C           -4.67677015063165        0.87803061784303       -2.54567307070919
C           -3.48869845116644        0.53141391432880       -3.17320837884736
C           -2.36370305117747        0.19704683085337       -2.43127255725152
C           -2.45195768914440        0.21888494350705       -1.05563425907016
C           -3.65103598764086        0.57072234644785       -0.41647418750468
C           -4.77056257511841        0.90150982682876       -1.16319158895382
C           -3.44218846964003        0.50763474211639        1.02147340876857
C           -4.29742676479018        0.76382179481505        2.08130427697232
C           -3.81504535989292        0.62165621815447        3.37272990709301
C           -2.50404562454607        0.23105771730193        3.60454176909670
C           -1.64142390131218       -0.02741522038349        2.54745191445571
C           -2.11747552088958        0.11240095070859        1.26165918658339
C           -1.38357795464546       -0.10871588148298       -0.04224775970270
C           -0.83127016191336       -1.50548722145438       -0.18522397780515
C           -1.51757717790449       -2.68399809633658       -0.21670798241021
C           -0.80764615678156       -3.88030572168422       -0.38511039761482
C            0.58171331220004       -3.85552143091472       -0.56118030482671
C            1.28943975082158       -2.68245411119196       -0.53248686794303
C            0.60373299527826       -1.46095590204341       -0.29305281291665
C            1.03663990367698       -0.14121423366341       -0.17635512308228
C           -0.13334933850042        0.72871725264347       -0.15579698234464
C           -0.06073064246283        2.07352105208089       -0.30197055126570
C            1.20984935813693        2.70291396968986       -0.43220069044490
C            2.34129346632061        1.90811773214135       -0.35245897686275
N            3.65119886473283        2.32881935434333       -0.36462953183867
C            4.47479197895362        1.27183315732841       -0.12728097243193
C            5.85551610913269        1.23793960014789       -0.02611743347388
C            6.45087747842203        0.02728147108432        0.27796517799798
C            5.67076795091272       -1.11747418707009        0.50467924592894
C            4.30074528786928       -1.09840200782198        0.40142183455210
C            3.65887818276634        0.09901618684473        0.03926851488920
C            2.32030079245372        0.50463631046939       -0.15530951408107
H           -5.53982014949083        1.13291437052851       -3.14400598791257
H           -3.43896864630037        0.52073638737813       -4.25244593599312
H           -1.43904486061126       -0.07458071778273       -2.92023792686351
H           -5.69775429430544        1.17193851108076       -0.67961949002699
H           -5.31880922066732        1.06853102187296        1.90650702364992
H           -4.46813142545148        0.81749420452863        4.21114451557625
H           -2.14996002707420        0.12592059349244        4.61987783161261
H           -0.62069617999391       -0.33228609981737        2.72859999438961
H           -2.59430233294650       -2.69952875805695       -0.12011468503913
H           -1.33647023224097       -4.82072573183721       -0.40635165212795
H            1.10058617577725       -4.78749428966801       -0.73879125385325
H            2.34919754582671       -2.67417977673154       -0.72618602572056
H           -0.95506643721958        2.67847761987469       -0.32005553799931
H            1.28121685767193        3.77297386850002       -0.54200502049838
H            3.95005460002985        3.27871673969019       -0.51675233001607
H            6.44402117384675        2.13264878906022       -0.16626694519345
H            7.52458104762634       -0.03673729773231        0.36746820495526
H            6.16892121969058       -2.03693451699135        0.77801632770445
H            3.72580357011271       -1.98278104322140        0.62170513509998

          :  Hamiltonian                  GFN2-xTB          :
         :: gradient norm              0.000104382020 Eh/a0 ::
         :: HOMO-LUMO gap              0.490391380408 eV    ::
         :: SCC energy               -80.483009466266 Eh    ::
         :: -> dispersion             -0.073559887263 Eh    ::
         :: -> Gsolv                  -0.031308013575 Eh    ::
         :: repulsion energy           1.504690312157 Eh    ::

    * Orbital Energies and Occupations

         #    Occupation            Energy/Eh            Energy/eV
      -------------------------------------------------------------
         1        2.0000           -0.6806771             -18.5222
       ...           ...                  ...                  ...
        63        2.0000           -0.4205933             -11.4449
        64        2.0000           -0.4186661             -11.3925
        65        2.0000           -0.4183174             -11.3830
        66        2.0000           -0.4144633             -11.2781
        67        2.0000           -0.4097948             -11.1511
        68        2.0000           -0.4053996             -11.0315
        69        2.0000           -0.3952744             -10.7560
        70        2.0000           -0.3931487             -10.6981
        71        2.0000           -0.3902976             -10.6205
        72        2.0000           -0.3794318             -10.3249
        73        1.9998           -0.3727731             -10.1437
        74        1.0002           -0.3566500              -9.7049
        75        0.9999           -0.2691803              -7.3248 (HOMO)
        76        0.0001           -0.2511588              -6.8344 (LUMO)
        77                         -0.2303406              -6.2679
        78                         -0.2243816              -6.1057
        79                         -0.2213251              -6.0226
        80                         -0.2130504              -5.7974
        81                         -0.2078429              -5.6557
        82                         -0.1894510              -5.1552
        83                         -0.1859046              -5.0587
        84                         -0.1816164              -4.9420
        85                         -0.1107843              -3.0146
        86                         -0.1093477              -2.9755
       ...                                ...                  ...
       147                          0.7718816              21.0040
      -------------------------------------------------------------
                  HL-Gap            0.0180215 Eh            0.4904 eV

     #   Z          covCN         q      C6AA      α(0)
     1   6 C        2.921    -0.033    28.832     8.805
     2   6 C        2.922    -0.033    28.813     8.803
     3   6 C        2.913    -0.033    28.829     8.804
     4   6 C        3.054     0.004    27.889     8.661
     5   6 C        3.036     0.000    27.988     8.677
     6   6 C        2.914    -0.035    28.873     8.811
     7   6 C        3.035     0.000    27.994     8.678
     8   6 C        2.914    -0.035    28.871     8.811
     9   6 C        2.921    -0.034    28.836     8.806
    10   6 C        2.922    -0.033    28.814     8.803
    11   6 C        2.913    -0.034    28.838     8.806
    12   6 C        3.056     0.005    27.865     8.657
    13   6 C        3.969     0.009    20.352     6.410
    14   6 C        3.053     0.004    27.879     8.659
    15   6 C        2.907    -0.036    28.899     8.815
    16   6 C        2.919    -0.040    28.984     8.829
    17   6 C        2.912    -0.032    28.798     8.800
    18   6 C        2.908    -0.043    29.067     8.840
    19   6 C        3.023     0.001    27.989     8.678
    20   6 C        3.015    -0.007    28.181     8.708
    21   6 C        3.045     0.004    27.895     8.662
    22   6 C        2.908    -0.043    29.064     8.840
    23   6 C        2.909    -0.059    29.454     8.899
    24   6 C        3.070     0.052    26.769     8.484
    25   7 N        2.757    -0.101    23.226     7.158
    26   6 C        3.069     0.055    26.700     8.473
    27   6 C        2.906    -0.057    29.405     8.891
    28   6 C        2.922    -0.041    29.016     8.834
    29   6 C        2.916    -0.034    28.855     8.809
    30   6 C        2.908    -0.046    29.130     8.850
    31   6 C        3.073    -0.006    28.101     8.692
    32   6 C        3.052    -0.033    28.780     8.798
    33   1 H        0.926     0.033     2.548     2.496
    34   1 H        0.926     0.032     2.554     2.499
    35   1 H        0.926     0.027     2.631     2.536
    36   1 H        0.926     0.033     2.539     2.492
    37   1 H        0.926     0.034     2.537     2.491
    38   1 H        0.926     0.033     2.547     2.496
    39   1 H        0.926     0.032     2.552     2.498
    40   1 H        0.926     0.028     2.616     2.529
    41   1 H        0.926     0.021     2.715     2.577
    42   1 H        0.926     0.026     2.639     2.540
    43   1 H        0.925     0.028     2.620     2.531
    44   1 H        0.926     0.036     2.504     2.475
    45   1 H        0.926     0.027     2.628     2.535
    46   1 H        0.926     0.033     2.543     2.494
    47   1 H        0.860     0.168     1.282     1.774
    48   1 H        0.926     0.029     2.593     2.518
    49   1 H        0.926     0.029     2.595     2.519
    50   1 H        0.926     0.029     2.600     2.521
    51   1 H        0.926     0.034     2.526     2.485

molecular dipole:
                 x           y           z       tot (Debye)
 q only:        0.443       0.856      -0.078
   full:        0.487       1.089      -0.118       3.048

 projected vibrational frequencies (cm⁻¹)
eigval :       -0.00    -0.00    -0.00     0.00     0.00     0.00
eigval :       19.93    34.88    35.78    59.39    68.04    82.00
eigval :       92.33   123.95   138.93   142.64   158.68   204.76
eigval :      221.01   226.42   245.37   268.87   281.00   300.14
eigval :      348.14   365.95   387.14   391.85   401.34   414.39
eigval :      419.01   434.16   438.91   449.48   472.57   481.26
eigval :      497.55   501.64   525.09   533.59   537.21   560.16
eigval :      565.16   577.03   589.91   614.84   621.17   631.74
eigval :      662.35   669.82   674.65   687.25   688.79   694.24
eigval :      723.59   724.60   731.29   750.37   752.56   763.47
eigval :      786.56   797.67   818.62   844.18   847.71   851.63
eigval :      874.88   878.32   880.58   887.01   891.12   897.36
eigval :      904.46   908.05   912.55   914.79   918.28   924.78
eigval :      929.21   944.98  1005.85  1035.25  1046.26  1057.72
eigval :     1058.50  1072.93  1077.82  1090.05  1120.53  1127.52
eigval :     1142.15  1145.98  1151.47  1159.62  1170.66  1174.60
eigval :     1175.39  1180.93  1199.37  1206.68  1221.73  1231.02
eigval :     1247.50  1252.59  1255.71  1260.92  1282.86  1287.77
eigval :     1309.49  1325.56  1332.22  1348.84  1361.02  1362.92
eigval :     1368.54  1374.37  1394.86  1412.35  1424.98  1426.33
eigval :     1443.47  1459.58  1467.74  1482.34  1497.38  1524.65
eigval :     1542.49  1562.72  1567.24  1581.17  1591.60  1597.31
eigval :     1600.66  1608.55  3064.61  3065.05  3067.75  3068.16
eigval :     3069.58  3072.53  3073.09  3074.61  3078.94  3079.95
eigval :     3080.74  3086.54  3088.42  3090.54  3092.75  3098.53
eigval :     3109.79  3113.94  3460.34

   temp. (K)  partition function   enthalpy   heat capacity  entropy
                                   cal/mol     cal/K/mol   cal/K/mol   J/K/mol
 298.15  VIB  0.366E+09            13047.703     90.353     77.476
         ROT  0.180E+08              888.752      2.981     36.178
         INT  0.659E+16            13936.455     93.334    113.654
         TR   0.790E+28             1481.254      4.968     43.871
         TOT                       15417.7089    98.3024   157.5249   659.0842

       T/K    H(0)-H(T)+PV         H(T)/Eh          T*S/Eh         G(T)/Eh
   ------------------------------------------------------------------------
    298.15    0.245697E-01    0.411728E+00    0.748452E-01    0.336883E+00
   ------------------------------------------------------------------------

         :::::::::::::::::::::::::::::::::::::::::::::::::::::
         ::                  THERMODYNAMIC                  ::
         :::::::::::::::::::::::::::::::::::::::::::::::::::::
         :: total free energy         -78.641436594341 Eh   ::
         ::.................................................::
         :: total energy              -78.978319153051 Eh   ::
         :: zero point energy           0.387158045214 Eh   ::
         :: G(RRHO) w/o ZPVE           -0.050275486503 Eh   ::
         :: G(RRHO) contrib.            0.336882558710 Eh   ::
         :::::::::::::::::::::::::::::::::::::::::::::::::::::

           -------------------------------------------------
          | TOTAL ENERGY              -78.978319153051 Eh   |
          | TOTAL ENTHALPY            -78.566591424727 Eh   |
          | TOTAL FREE ENERGY         -78.641436594341 Eh   |
          | GRADIENT NORM               0.000104398767 Eh/α |
          | HOMO-LUMO GAP               0.490390029372 eV   |
           -------------------------------------------------

 * finished run on 2025/08/21 at 13:34:13.023
