   * xtb version 6.7.1 (edcfbbe) compiled by 'albert@albert-system' on 2024-07-22

   ID    Z sym.   atoms
    1    6 C      1-24, 26-32
    2    7 N      25
    3    1 H      33-51

          program call               : xtb data2507/toluene/4-SCZ/4-SCZ_toluene_S0_finalOpt.xtbopt.xyz --gfn 2 --uhf 2 --gbsa toluene --ohess vtight --parallel 40 --molden --ceasefiles --namespace data2507/toluene/4-SCZ/4-SCZ_toluene_T1_preOpt
      * Solvation model:               GBSA
        Solvent                        toluene
        Solvent mass                       9.2140E+01 g/mol
          :  Hamiltonian                  GFN2-xTB          :
 * total energy  :   -78.9689216 Eh     change       -0.3563343E-08 Eh
 * total energy  :   -78.9755373 Eh     change       -0.6615613E-02 Eh
 * total energy  :   -78.9779260 Eh     change       -0.2388739E-02 Eh
 * total energy  :   -78.9780469 Eh     change       -0.1208594E-03 Eh
 * total energy  :   -78.9781058 Eh     change       -0.5894470E-04 Eh
 * total energy  :   -78.9781362 Eh     change       -0.3043319E-04 Eh
 * total energy  :   -78.9781617 Eh     change       -0.2549544E-04 Eh
 * total energy  :   -78.9782018 Eh     change       -0.4010024E-04 Eh
 * total energy  :   -78.9781849 Eh     change        0.1694420E-04 Eh
 * total energy  :   -78.9782144 Eh     change       -0.2953693E-04 Eh
 * total energy  :   -78.9783284 Eh     change       -0.5558980E-06 Eh
 * total energy  :   -78.9783289 Eh     change       -0.5318064E-06 Eh
 * total energy  :   -78.9783294 Eh     change       -0.4911950E-06 Eh
 * total energy  :   -78.9783299 Eh     change       -0.4546187E-06 Eh
 * total energy  :   -78.9783303 Eh     change       -0.4412527E-06 Eh
 * total energy  :   -78.9783308 Eh     change       -0.4627879E-06 Eh
 * total energy  :   -78.9783313 Eh     change       -0.5102276E-06 Eh
 * total energy  :   -78.9783318 Eh     change       -0.5583573E-06 Eh
 * total energy  :   -78.9783318 Eh     change       -0.2795502E-08 Eh
   *** GEOMETRY OPTIMIZATION CONVERGED AFTER 44 ITERATIONS ***

 final structure:
================
51
 xtb: 6.7.1 (edcfbbe)
C           -4.58022890704467        0.67195697513434       -2.73297989959505
C           -3.37411066225075        0.26576946994071       -3.28610886162410
C           -2.27897203913472       -0.01060825010048       -2.47868137357157
C           -2.41545265359716        0.13012930168461       -1.11417621426083
C           -3.63271243775826        0.54174322984995       -0.54993867637531
C           -4.72240250643900        0.81388162608795       -1.36167626129145
C           -3.47368212579782        0.60033864662885        0.89459341772984
C           -4.36368659414531        0.94749803137272        1.89846584973004
C           -3.92852134101609        0.90890777229673        3.21366778075739
C           -2.62994726414704        0.53124201573878        3.52369852049834
C           -1.73228286544439        0.18320903474635        2.52294051491609
C           -2.16111018939900        0.22016678930614        1.21372874323532
C           -1.38391084649682       -0.11191581368326       -0.04021435997230
C           -0.83168726076091       -1.51551402474132       -0.05083221330924
C           -1.52068085742916       -2.69176032787012        0.00171640775000
C           -0.81121235393890       -3.89884138568230       -0.05238177336735
C            0.58153229190585       -3.89023965639554       -0.20181379629515
C            1.29162336685400       -2.71960657310705       -0.25811940200028
C            0.60509542441053       -1.48116723749454       -0.13636365219931
C            1.03933683221792       -0.15666830562184       -0.12336471115522
C           -0.12917418050151        0.71284496099950       -0.19208857510819
C           -0.05284242366107        2.04144932846687       -0.44542136322823
C            1.21996014078754        2.65734841539242       -0.61102620146035
C            2.34877665420346        1.87012531470712       -0.45623993769642
N            3.65929747890243        2.28668956931739       -0.49705629225225
C            4.48005176761673        1.25185460537432       -0.17006712112214
C            5.86058367005469        1.22443481535496       -0.06430839127751
C            6.45368319875092        0.04191264736333        0.33861794091734
C            5.67101874833532       -1.07858385598817        0.65840243460265
C            4.30112234118774       -1.06569419844195        0.55253642580752
C            3.66142538215769        0.09820290579839        0.09064750592256
C            2.32414077798964        0.48769871416327       -0.14335639275507
H           -5.41915750599968        0.88043665639716       -3.38148799338794
H           -3.28650684631046        0.16204398996915       -4.35802047254929
H           -1.34007518610270       -0.32898440342926       -2.90880412403501
H           -5.66373919178471        1.12966786886517       -0.93644597629526
H           -5.37590402082271        1.24167101491726        1.66274567406079
H           -4.60900691737712        1.17576058373372        4.00963371823025
H           -2.31344889241384        0.50689914607080        4.55643495870838
H           -0.72129293327360       -0.11194089976659        2.76485483515577
H           -2.59922833943601       -2.69739415500649        0.07720462316795
H           -1.34205847406863       -4.83722811228589       -0.00625656171570
H            1.10151874901945       -4.83432481623157       -0.28941983403316
H            2.35478258540179       -2.72917025585412       -0.43127833797988
H           -0.94607410926967        2.64278551031139       -0.52676067814061
H            1.29472106361963        3.71452181518008       -0.80826681445375
H            3.96040524501923        3.21969844312739       -0.72858820358452
H            6.45058353789743        2.10362894723119       -0.27740350273207
H            7.52720623483312       -0.01663311020283        0.43377021633963
H            6.16710462406060       -1.97335211414286        1.00706023392334
H            3.72501482599022       -1.92804839269849        0.84512172529078

          :  Hamiltonian                  GFN2-xTB          :
         :: gradient norm              0.000042283527 Eh/a0 ::
         :: HOMO-LUMO gap              0.489551476185 eV    ::
         :: SCC energy               -80.483007652193 Eh    ::
         :: -> dispersion             -0.073563605133 Eh    ::
         :: -> Gsolv                  -0.031329092517 Eh    ::
         :: repulsion energy           1.504675807921 Eh    ::

    * Orbital Energies and Occupations

         #    Occupation            Energy/Eh            Energy/eV
      -------------------------------------------------------------
         1        2.0000           -0.6807066             -18.5230
       ...           ...                  ...                  ...
        63        2.0000           -0.4205939             -11.4449
        64        2.0000           -0.4186673             -11.3925
        65        2.0000           -0.4183414             -11.3836
        66        2.0000           -0.4144955             -11.2790
        67        2.0000           -0.4097234             -11.1491
        68        2.0000           -0.4054213             -11.0321
        69        2.0000           -0.3952480             -10.7552
        70        2.0000           -0.3931589             -10.6984
        71        2.0000           -0.3903089             -10.6208
        72        2.0000           -0.3794351             -10.3250
        73        1.9998           -0.3727824             -10.1439
        74        1.0002           -0.3567028              -9.7064
        75        0.9999           -0.2691619              -7.3243 (HOMO)
        76        0.0001           -0.2511712              -6.8347 (LUMO)
        77                         -0.2303692              -6.2687
        78                         -0.2243858              -6.1058
        79                         -0.2212965              -6.0218
        80                         -0.2130659              -5.7978
        81                         -0.2078387              -5.6556
        82                         -0.1894743              -5.1559
        83                         -0.1859414              -5.0597
        84                         -0.1815484              -4.9402
        85                         -0.1107249              -3.0130
        86                         -0.1093770              -2.9763
       ...                                ...                  ...
       147                          0.7716966              20.9989
      -------------------------------------------------------------
                  HL-Gap            0.0179907 Eh            0.4896 eV

     #   Z          covCN         q      C6AA      α(0)
     1   6 C        2.921    -0.033    28.832     8.805
     2   6 C        2.922    -0.033    28.813     8.803
     3   6 C        2.913    -0.033    28.830     8.805
     4   6 C        3.055     0.004    27.886     8.660
     5   6 C        3.035     0.000    27.988     8.677
     6   6 C        2.914    -0.035    28.873     8.811
     7   6 C        3.035     0.000    27.993     8.678
     8   6 C        2.914    -0.035    28.871     8.811
     9   6 C        2.921    -0.034    28.835     8.806
    10   6 C        2.922    -0.033    28.813     8.803
    11   6 C        2.913    -0.034    28.837     8.806
    12   6 C        3.055     0.005    27.867     8.657
    13   6 C        3.969     0.009    20.353     6.410
    14   6 C        3.053     0.004    27.880     8.660
    15   6 C        2.907    -0.036    28.899     8.815
    16   6 C        2.919    -0.040    28.984     8.828
    17   6 C        2.912    -0.032    28.799     8.800
    18   6 C        2.908    -0.043    29.069     8.841
    19   6 C        3.023     0.001    27.989     8.678
    20   6 C        3.015    -0.007    28.181     8.708
    21   6 C        3.045     0.004    27.894     8.662
    22   6 C        2.908    -0.043    29.063     8.840
    23   6 C        2.909    -0.059    29.454     8.899
    24   6 C        3.070     0.052    26.768     8.483
    25   7 N        2.757    -0.101    23.224     7.157
    26   6 C        3.069     0.055    26.699     8.473
    27   6 C        2.906    -0.057    29.405     8.892
    28   6 C        2.921    -0.041    29.017     8.834
    29   6 C        2.916    -0.034    28.855     8.809
    30   6 C        2.908    -0.046    29.131     8.850
    31   6 C        3.073    -0.006    28.100     8.692
    32   6 C        3.052    -0.033    28.782     8.799
    33   1 H        0.926     0.033     2.547     2.496
    34   1 H        0.926     0.032     2.554     2.499
    35   1 H        0.926     0.027     2.632     2.537
    36   1 H        0.926     0.033     2.539     2.492
    37   1 H        0.926     0.033     2.537     2.491
    38   1 H        0.926     0.033     2.547     2.496
    39   1 H        0.926     0.032     2.552     2.498
    40   1 H        0.926     0.028     2.615     2.529
    41   1 H        0.926     0.021     2.716     2.577
    42   1 H        0.926     0.026     2.639     2.540
    43   1 H        0.925     0.028     2.620     2.531
    44   1 H        0.926     0.036     2.503     2.474
    45   1 H        0.926     0.027     2.628     2.535
    46   1 H        0.926     0.033     2.543     2.494
    47   1 H        0.860     0.168     1.282     1.774
    48   1 H        0.926     0.029     2.593     2.518
    49   1 H        0.926     0.029     2.595     2.519
    50   1 H        0.926     0.029     2.600     2.521
    51   1 H        0.926     0.034     2.526     2.485

molecular dipole:
                 x           y           z       tot (Debye)
 q only:        0.445       0.847      -0.147
   full:        0.490       1.076      -0.210       3.051

 projected vibrational frequencies (cm⁻¹)
eigval :       -0.00    -0.00    -0.00    -0.00     0.00     0.00
eigval :       17.65    35.00    38.23    61.76    71.89    82.10
eigval :       93.88   121.96   138.30   142.91   161.28   205.69
eigval :      222.17   228.37   242.44   268.63   282.71   301.32
eigval :      345.19   366.42   387.12   391.76   402.89   414.55
eigval :      418.90   434.16   439.24   449.46   473.60   481.32
eigval :      492.85   501.87   521.91   529.63   537.46   560.16
eigval :      565.27   576.99   590.18   614.76   620.92   631.78
eigval :      662.43   669.83   675.17   687.41   690.64   694.31
eigval :      721.08   726.39   731.67   749.50   752.80   764.23
eigval :      787.09   797.69   820.11   842.77   845.17   851.60
eigval :      876.44   880.89   883.95   885.49   890.84   898.37
eigval :      903.83   910.17   911.88   913.67   917.27   926.35
eigval :      929.00   944.92  1005.99  1035.28  1047.23  1058.00
eigval :     1058.83  1071.92  1076.72  1089.76  1120.76  1127.20
eigval :     1141.14  1145.40  1151.71  1159.52  1171.12  1174.57
eigval :     1176.16  1179.91  1199.43  1206.52  1221.62  1230.70
eigval :     1247.40  1252.69  1256.09  1259.85  1282.97  1287.48
eigval :     1309.39  1325.72  1332.52  1349.14  1361.60  1363.12
eigval :     1368.36  1374.18  1394.59  1412.10  1424.72  1426.52
eigval :     1443.56  1459.64  1468.03  1482.47  1497.42  1524.23
eigval :     1542.18  1562.53  1567.20  1581.32  1591.94  1597.56
eigval :     1600.91  1608.48  3064.84  3066.35  3067.81  3068.35
eigval :     3069.96  3071.94  3072.49  3074.51  3078.78  3079.82
eigval :     3081.23  3086.66  3088.49  3090.15  3092.42  3099.06
eigval :     3110.28  3115.56  3459.83

   temp. (K)  partition function   enthalpy   heat capacity  entropy
                                   cal/mol     cal/K/mol   cal/K/mol   J/K/mol
 298.15  VIB  0.351E+09            13038.020     90.468     77.450
         ROT  0.180E+08              888.752      2.981     36.180
         INT  0.632E+16            13926.772     93.449    113.630
         TR   0.790E+28             1481.254      4.968     43.871
         TOT                       15408.0260    98.4175   157.5008   658.9833

       T/K    H(0)-H(T)+PV         H(T)/Eh          T*S/Eh         G(T)/Eh
   ------------------------------------------------------------------------
    298.15    0.245543E-01    0.411733E+00    0.748337E-01    0.336899E+00
   ------------------------------------------------------------------------

         :::::::::::::::::::::::::::::::::::::::::::::::::::::
         ::                  THERMODYNAMIC                  ::
         :::::::::::::::::::::::::::::::::::::::::::::::::::::
         :: total free energy         -78.641432981450 Eh   ::
         ::.................................................::
         :: total energy              -78.978331842638 Eh   ::
         :: zero point energy           0.387178310617 Eh   ::
         :: G(RRHO) w/o ZPVE           -0.050279449429 Eh   ::
         :: G(RRHO) contrib.            0.336898861188 Eh   ::
         :::::::::::::::::::::::::::::::::::::::::::::::::::::

           -------------------------------------------------
          | TOTAL ENERGY              -78.978331842638 Eh   |
          | TOTAL ENTHALPY            -78.566599279569 Eh   |
          | TOTAL FREE ENERGY         -78.641432981450 Eh   |
          | GRADIENT NORM               0.000042282157 Eh/α |
          | HOMO-LUMO GAP               0.489551655404 eV   |
           -------------------------------------------------

 * finished run on 2025/08/21 at 13:32:24.412
