   * xtb version 6.7.1 (edcfbbe) compiled by 'albert@albert-system' on 2024-07-22

   ID    Z sym.   atoms
    1    6 C      1-24, 26-32
    2    7 N      25
    3    1 H      33-51

          program call               : xtb data2507/toluene/4-SCZ/4-SCZ.xyz --gfn 2 --gbsa toluene --ohess vtight --parallel 40 --molden --ceasefiles --namespace data2507/toluene/4-SCZ/4-SCZ_toluene_S0_preOpt
      * Solvation model:               GBSA
        Solvent                        toluene
        Solvent mass                       9.2140E+01 g/mol
          :  Hamiltonian                  GFN2-xTB          :
 * total energy  :   -79.0664960 Eh     change       -0.3237005E-08 Eh
 * total energy  :   -79.0735759 Eh     change       -0.7079890E-02 Eh
 * total energy  :   -79.0746497 Eh     change       -0.1073840E-02 Eh
 * total energy  :   -79.0748726 Eh     change       -0.2228161E-03 Eh
 * total energy  :   -79.0750489 Eh     change       -0.1763793E-03 Eh
 * total energy  :   -79.0751086 Eh     change       -0.5970582E-04 Eh
 * total energy  :   -79.0751461 Eh     change       -0.3743513E-04 Eh
 * total energy  :   -79.0751762 Eh     change       -0.3012748E-04 Eh
 * total energy  :   -79.0751941 Eh     change       -0.1792679E-04 Eh
 * total energy  :   -79.0752121 Eh     change       -0.1797332E-04 Eh
 * total energy  :   -79.0752385 Eh     change       -0.2178297E-06 Eh
 * total energy  :   -79.0752388 Eh     change       -0.2806169E-06 Eh
 * total energy  :   -79.0752390 Eh     change       -0.2724938E-06 Eh
 * total energy  :   -79.0752393 Eh     change       -0.2943480E-06 Eh
 * total energy  :   -79.0752397 Eh     change       -0.3836018E-06 Eh
 * total energy  :   -79.0752402 Eh     change       -0.4683027E-06 Eh
 * total energy  :   -79.0752405 Eh     change       -0.3528847E-06 Eh
 * total energy  :   -79.0752407 Eh     change       -0.1361787E-06 Eh
 * total energy  :   -79.0752407 Eh     change       -0.1551528E-07 Eh
   *** GEOMETRY OPTIMIZATION CONVERGED AFTER 34 ITERATIONS ***

 final structure:
================
51
 xtb: 6.7.1 (edcfbbe)
C           -4.52028292128145        0.46714001188998       -2.74698117123647
C           -3.29792570359912        0.07485091451092       -3.27250494736210
C           -2.20328176985957       -0.13836543796144       -2.44482317958727
C           -2.35847141654101        0.04989793937705       -1.08855281642914
C           -3.59241712265601        0.44605660800390       -0.55173248353141
C           -4.68032830640295        0.65732548549731       -1.38339058304528
C           -3.45143852907374        0.55956948832177        0.89196906509231
C           -4.36300320327107        0.91155185721194        1.87430421861272
C           -3.94121711061145        0.93364777187330        3.19442127648522
C           -2.63451894980622        0.61111846656063        3.52975310945906
C           -1.71543498841267        0.25764432631507        2.55031854363850
C           -2.13129910932482        0.23405194687145        1.23685813219695
C           -1.33094657584751       -0.11798431143259        0.00443883579933
C           -0.73340793525376       -1.49901460919244        0.04650370910048
C           -1.40516475681496       -2.69886235771759        0.12606197278450
C           -0.67233206553743       -3.87618645174404        0.07200584926540
C            0.70297141111881       -3.83308081063024       -0.09248164169805
C            1.37865346080960       -2.62502952454183       -0.16555334214054
C            0.66644391351193       -1.43918214756961       -0.06068020016814
C            1.06702281339036       -0.03684806582288       -0.12987602733386
C           -0.10188771111422        0.73977998677875       -0.16698884974376
C           -0.10106907696724        2.11208313388595       -0.34952831681857
C            1.10238916679748        2.77179217334710       -0.51158335403356
C            2.27112748389747        2.02955627221300       -0.42080575695419
N            3.55575714311942        2.49781313131109       -0.50971699206642
C            4.42938069094078        1.47028400209697       -0.28306508307505
C            5.81505996056869        1.50885017764831       -0.23406274251076
C            6.48275327875412        0.34121446960910        0.07572983247336
C            5.77828565330722       -0.82726023048326        0.35631069544218
C            4.39923669401087       -0.86767810112322        0.29997309859116
C            3.69410425932812        0.27898700667990       -0.05590753815983
C            2.29944541199903        0.62670010571020       -0.18642973341956
H           -5.35814525419758        0.62675290605165       -3.41058044402893
H           -3.19610037071450       -0.06820671589782       -4.33859441741394
H           -1.25132217190110       -0.44519977641514       -2.85414115337413
H           -5.63440784690908        0.96232667414365       -0.97913387182676
H           -5.38181525859475        1.16314019768364        1.61849023520688
H           -4.63876611426206        1.20553914275190        3.97372399934565
H           -2.32756840744436        0.63473870273357        4.56539135923655
H           -0.69748188471888        0.00684037330464        2.81225136450083
H           -2.48212798981089       -2.71953865697401        0.21460585433018
H           -1.17851465210415       -4.82853993003034        0.13404229210808
H            1.25939409580169       -4.75626139813833       -0.17127958689264
H            2.44116118307794       -2.62181663352850       -0.33842403972054
H           -1.03500946672409        2.65366926757014       -0.37953430210961
H            1.13861720806818        3.83618814474158       -0.68860840590474
H            3.81221851329362        3.45851837546254       -0.66212432401665
H            6.34937018809636        2.42884327605087       -0.42071709317077
H            7.56193389474942        0.33706191496988        0.12232342240494
H            6.32389690591245       -1.71831390174083        0.63119861463791
H            3.88646433920260       -1.77616319023402        0.56712791705985

          :  Hamiltonian                  GFN2-xTB          :
         :: gradient norm              0.000062631619 Eh/a0 ::
         :: HOMO-LUMO gap              2.799860925045 eV    ::
         :: SCC energy               -80.598241427282 Eh    ::
         :: -> dispersion             -0.073757103921 Eh    ::
         :: -> Gsolv                  -0.031045010599 Eh    ::
         :: repulsion energy           1.523000742412 Eh    ::

    * Orbital Energies and Occupations

         #    Occupation            Energy/Eh            Energy/eV
      -------------------------------------------------------------
         1        2.0000           -0.6765992             -18.4112
       ...           ...                  ...                  ...
        62        2.0000           -0.4219818             -11.4827
        63        2.0000           -0.4207639             -11.4496
        64        2.0000           -0.4198353             -11.4243
        65        2.0000           -0.4171181             -11.3504
        66        2.0000           -0.4139531             -11.2642
        67        2.0000           -0.4086826             -11.1208
        68        2.0000           -0.4056767             -11.0390
        69        2.0000           -0.3953730             -10.7586
        70        2.0000           -0.3934840             -10.7072
        71        2.0000           -0.3908811             -10.6364
        72        2.0000           -0.3792366             -10.3196
        73        2.0000           -0.3737014             -10.1689
        74        2.0000           -0.3613925              -9.8340 (HOMO)
        75                         -0.2584996              -7.0341 (LUMO)
        76                         -0.2509278              -6.8281
        77                         -0.2301839              -6.2636
        78                         -0.2242299              -6.1016
        79                         -0.2232059              -6.0737
        80                         -0.2168816              -5.9016
        81                         -0.2059288              -5.6036
        82                         -0.1900694              -5.1721
        83                         -0.1874141              -5.0998
        84                         -0.1797727              -4.8919
        85                         -0.1099635              -2.9923
       ...                                ...                  ...
       147                          0.7665508              20.8589
      -------------------------------------------------------------
                  HL-Gap            0.1028930 Eh            2.7999 eV

     #   Z          covCN         q      C6AA      α(0)
     1   6 C        2.921    -0.034    28.843     8.807
     2   6 C        2.922    -0.033    28.819     8.803
     3   6 C        2.914    -0.034    28.839     8.806
     4   6 C        3.056     0.005    27.853     8.655
     5   6 C        3.036    -0.000    28.001     8.679
     6   6 C        2.914    -0.035    28.876     8.812
     7   6 C        3.036    -0.000    28.002     8.680
     8   6 C        2.914    -0.035    28.874     8.811
     9   6 C        2.921    -0.034    28.844     8.807
    10   6 C        2.923    -0.033    28.819     8.804
    11   6 C        2.914    -0.034    28.843     8.807
    12   6 C        3.055     0.006    27.836     8.652
    13   6 C        3.977     0.009    20.351     6.409
    14   6 C        3.059     0.005    27.848     8.654
    15   6 C        2.914    -0.035    28.862     8.810
    16   6 C        2.922    -0.033    28.832     8.805
    17   6 C        2.920    -0.035    28.862     8.810
    18   6 C        2.917    -0.038    28.948     8.823
    19   6 C        3.033     0.003    27.932     8.669
    20   6 C        3.019    -0.005    28.113     8.697
    21   6 C        3.062    -0.007    28.126     8.697
    22   6 C        2.918    -0.037    28.932     8.820
    23   6 C        2.914    -0.059    29.458     8.900
    24   6 C        3.077     0.052    26.760     8.481
    25   7 N        2.752    -0.121    23.631     7.220
    26   6 C        3.073     0.054    26.704     8.473
    27   6 C        2.910    -0.057    29.412     8.893
    28   6 C        2.923    -0.034    28.851     8.808
    29   6 C        2.918    -0.045    29.106     8.847
    30   6 C        2.914    -0.037    28.922     8.819
    31   6 C        3.065    -0.015    28.326     8.727
    32   6 C        3.053    -0.022    28.493     8.754
    33   1 H        0.926     0.032     2.557     2.500
    34   1 H        0.926     0.032     2.562     2.503
    35   1 H        0.926     0.027     2.635     2.539
    36   1 H        0.926     0.033     2.547     2.495
    37   1 H        0.926     0.033     2.545     2.495
    38   1 H        0.926     0.032     2.556     2.500
    39   1 H        0.926     0.032     2.560     2.502
    40   1 H        0.926     0.027     2.624     2.533
    41   1 H        0.926     0.025     2.658     2.550
    42   1 H        0.926     0.030     2.580     2.512
    43   1 H        0.926     0.031     2.568     2.506
    44   1 H        0.926     0.040     2.448     2.447
    45   1 H        0.926     0.028     2.621     2.532
    46   1 H        0.926     0.031     2.575     2.509
    47   1 H        0.860     0.163     1.319     1.799
    48   1 H        0.926     0.028     2.613     2.528
    49   1 H        0.926     0.030     2.591     2.517
    50   1 H        0.926     0.027     2.627     2.535
    51   1 H        0.926     0.036     2.501     2.473

molecular dipole:
                 x           y           z       tot (Debye)
 q only:        0.270       0.552      -0.101
   full:        0.302       0.786      -0.137       2.168

 projected vibrational frequencies (cm⁻¹)
eigval :       -0.00    -0.00    -0.00     0.00     0.00     0.00
eigval :       22.02    37.73    39.75    59.61    75.31    85.64
eigval :      103.45   128.69   141.73   145.04   164.92   214.30
eigval :      225.74   235.25   256.64   281.62   299.42   309.63
eigval :      353.58   388.56   394.32   402.12   410.77   414.87
eigval :      423.48   443.57   448.83   464.80   479.12   485.34
eigval :      502.76   523.42   538.11   540.87   552.54   578.08
eigval :      583.09   592.52   593.83   621.61   635.03   638.50
eigval :      676.35   688.47   690.73   703.13   706.97   715.97
eigval :      740.01   753.28   765.16   768.94   776.88   786.26
eigval :      803.93   817.44   858.72   860.08   875.78   878.62
eigval :      881.53   893.72   896.61   900.52   903.08   910.85
eigval :      911.47   913.78   919.89   924.63   927.21   928.18
eigval :      946.99   966.22  1007.58  1050.82  1065.14  1072.58
eigval :     1077.24  1078.66  1087.86  1121.89  1132.48  1142.10
eigval :     1145.09  1156.84  1169.38  1173.57  1174.87  1177.18
eigval :     1185.51  1198.90  1207.80  1212.89  1234.43  1240.16
eigval :     1259.17  1261.86  1262.54  1283.88  1285.00  1300.98
eigval :     1323.23  1325.19  1341.46  1361.47  1364.31  1390.19
eigval :     1404.02  1424.41  1427.10  1430.12  1445.32  1449.13
eigval :     1460.48  1467.36  1470.09  1487.04  1570.46  1583.53
eigval :     1584.06  1585.75  1594.44  1598.50  1599.92  1602.53
eigval :     1602.90  1610.91  3067.67  3068.19  3068.57  3070.59
eigval :     3071.98  3072.02  3072.68  3075.16  3077.28  3078.59
eigval :     3079.65  3085.31  3086.66  3087.19  3088.50  3089.28
eigval :     3120.32  3128.67  3480.12

   temp. (K)  partition function   enthalpy   heat capacity  entropy
                                   cal/mol     cal/K/mol   cal/K/mol   J/K/mol
 298.15  VIB  0.149E+09            12682.572     88.613     75.057
         ROT  0.179E+08              888.752      2.981     36.171
         INT  0.267E+16            13571.324     91.594    111.228
         TR   0.790E+28             1481.254      4.968     43.871
         TOT                       15052.5778    96.5618   155.0987   648.9330

       T/K    H(0)-H(T)+PV         H(T)/Eh          T*S/Eh         G(T)/Eh
   ------------------------------------------------------------------------
    298.15    0.239878E-01    0.415300E+00    0.736924E-01    0.341608E+00
   ------------------------------------------------------------------------

         :::::::::::::::::::::::::::::::::::::::::::::::::::::
         ::                  THERMODYNAMIC                  ::
         :::::::::::::::::::::::::::::::::::::::::::::::::::::
         :: total free energy         -78.733632738936 Eh   ::
         ::.................................................::
         :: total energy              -79.075240684386 Eh   ::
         :: zero point energy           0.391312537530 Eh   ::
         :: G(RRHO) w/o ZPVE           -0.049704592081 Eh   ::
         :: G(RRHO) contrib.            0.341607945449 Eh   ::
         :::::::::::::::::::::::::::::::::::::::::::::::::::::

           -------------------------------------------------
          | TOTAL ENERGY              -79.075240684386 Eh   |
          | TOTAL ENTHALPY            -78.659940337277 Eh   |
          | TOTAL FREE ENERGY         -78.733632738936 Eh   |
          | GRADIENT NORM               0.000062628727 Eh/α |
          | HOMO-LUMO GAP               2.799860870909 eV   |
           -------------------------------------------------

 * finished run on 2025/08/21 at 13:30:42.931
