   * xtb version 6.7.1 (edcfbbe) compiled by 'albert@albert-system' on 2024-07-22

   ID    Z sym.   atoms
    1    6 C      1-24, 26-32
    2    7 N      25
    3    1 H      33-51

          program call               : xtb data2507/toluene/4-SCZ/4-SCZ_toluene_S0_crest.xyz --gfn 2 --gbsa toluene --ohess vtight --parallel 40 --molden --ceasefiles --namespace data2507/toluene/4-SCZ/4-SCZ_toluene_S0_finalOpt
      * Solvation model:               GBSA
        Solvent                        toluene
        Solvent mass                       9.2140E+01 g/mol
          :  Hamiltonian                  GFN2-xTB          :
 * total energy  :   -79.0752103 Eh     change       -0.2804995E-08 Eh
 * total energy  :   -79.0752236 Eh     change       -0.1333106E-04 Eh
 * total energy  :   -79.0752253 Eh     change       -0.1750563E-05 Eh
 * total energy  :   -79.0752253 Eh     change       -0.7707413E-08 Eh
 * total energy  :   -79.0752264 Eh     change       -0.1086821E-05 Eh
 * total energy  :   -79.0752263 Eh     change        0.1353985E-06 Eh
 * total energy  :   -79.0752271 Eh     change       -0.8158236E-06 Eh
 * total energy  :   -79.0752277 Eh     change       -0.5524947E-06 Eh
 * total energy  :   -79.0752283 Eh     change       -0.5878720E-06 Eh
 * total energy  :   -79.0752289 Eh     change       -0.5985237E-06 Eh
 * total energy  :   -79.0752293 Eh     change       -0.4003792E-06 Eh
 * total energy  :   -79.0752295 Eh     change       -0.2331921E-06 Eh
 * total energy  :   -79.0752297 Eh     change       -0.2154125E-06 Eh
 * total energy  :   -79.0752300 Eh     change       -0.2561645E-06 Eh
 * total energy  :   -79.0752302 Eh     change       -0.2057724E-06 Eh
 * total energy  :   -79.0752303 Eh     change       -0.1354684E-06 Eh
 * total energy  :   -79.0752304 Eh     change       -0.6329242E-07 Eh
   *** GEOMETRY OPTIMIZATION CONVERGED AFTER 17 ITERATIONS ***

 final structure:
================
51
 xtb: 6.7.1 (edcfbbe)
C           -4.49781563618949        0.62751371651689       -2.77965691279774
C           -3.28577839453402        0.19614490684806       -3.29835638260219
C           -2.21027233599630       -0.07468231089566       -2.46242927292113
C           -2.37370793423629        0.09635100408963       -1.10483867455460
C           -3.59723737064627        0.53246034156180       -0.57504347714125
C           -4.66621284127454        0.80056311719613       -1.41479199253805
C           -3.46851011526281        0.61774087644938        0.87172632204959
C           -4.37631799439454        0.99078806041993        1.84975895689870
C           -3.96856726909583        0.97627412871458        3.17438760916008
C           -2.67941291509617        0.59721010417988        3.51842744703748
C           -1.76430750919874        0.22190468239338        2.54340374924407
C           -2.16637135360163        0.23457659850309        1.22553867911005
C           -1.36612031162005       -0.12859203253652       -0.00369935707589
C           -0.81924782351472       -1.53073169830050        0.02421387863298
C           -1.53408903733921       -2.70693954696224        0.07789242709691
C           -0.84271463081033       -3.90879247853185        0.01741604843227
C            0.53549681366751       -3.91269746675058       -0.12729198022359
C            1.25438000425243       -2.72860716889461       -0.17477129252034
C            0.58325229540946       -1.51963666500624       -0.06318445822041
C            1.03483862831028       -0.13179101457980       -0.10564790999798
C           -0.10491977648829        0.68675446717125       -0.14618796428872
C           -0.05316873416089        2.06081074746489       -0.30654129313197
C            1.17511693116209        2.67958858314415       -0.44143262977998
C            2.31532422561083        1.89455521120143       -0.34746931263068
N            3.61682202857705        2.31805083509556       -0.41243172864116
C            4.45045275841071        1.25640703221026       -0.19285542007954
C            5.83596519687206        1.24461385123678       -0.12763818528823
C            6.45800576915770        0.04905590020199        0.17044876134969
C            5.70910860712318       -1.09777074666466        0.42396709467776
C            4.33021068853746       -1.08780770715260        0.35160269795793
C            3.67052135718254        0.08868957538850        0.00607324100993
C            2.29077618165121        0.48804420890693       -0.13547768717864
H           -5.32085287495121        0.83177387184831       -3.44954546439985
H           -3.17698751768612        0.06794036809692       -4.36566297026819
H           -1.26645703964193       -0.41194980468619       -2.86664442209653
H           -5.61209579916090        1.13630173802600       -1.01567810849137
H           -5.38140671281792        1.28669286115302        1.58719660283162
H           -4.66340653125131        1.26397388963061        3.95043147568415
H           -2.38325524965052        0.59336415095817        4.55745884477806
H           -0.76005040969220       -0.07325235382052        2.81193760737825
H           -2.61223534393816       -2.69091654823056        0.15171720293066
H           -1.38320533259443       -4.84319696540937        0.05954173123138
H            1.05991002709686       -4.85403783768726       -0.21098664287634
H            2.31868152249470       -2.76070616469829       -0.33286410579002
H           -0.96710203647885        2.63537844555111       -0.34025613015424
H            1.25168091359660        3.74466811821051       -0.60059448366771
H            3.90900508958004        3.27094683021016       -0.54849102929193
H            6.40473604002791        2.14786191940990       -0.29315294584472
H            7.53573929705245        0.00571137302517        0.22885179615264
H            6.21921508833495       -2.01220226148662        0.69038564148707
H            3.78247485421571       -1.98156778371982        0.59812762156157

          :  Hamiltonian                  GFN2-xTB          :
         :: gradient norm              0.000033273331 Eh/a0 ::
         :: HOMO-LUMO gap              2.799623062612 eV    ::
         :: SCC energy               -80.598223737322 Eh    ::
         :: -> dispersion             -0.073757087059 Eh    ::
         :: -> Gsolv                  -0.031034198446 Eh    ::
         :: repulsion energy           1.522993375752 Eh    ::

    * Orbital Energies and Occupations

         #    Occupation            Energy/Eh            Energy/eV
      -------------------------------------------------------------
         1        2.0000           -0.6766001             -18.4112
       ...           ...                  ...                  ...
        62        2.0000           -0.4219874             -11.4829
        63        2.0000           -0.4207644             -11.4496
        64        2.0000           -0.4198353             -11.4243
        65        2.0000           -0.4171162             -11.3503
        66        2.0000           -0.4139464             -11.2641
        67        2.0000           -0.4086732             -11.1206
        68        2.0000           -0.4056799             -11.0391
        69        2.0000           -0.3953877             -10.7590
        70        2.0000           -0.3934810             -10.7072
        71        2.0000           -0.3908753             -10.6363
        72        2.0000           -0.3792386             -10.3196
        73        2.0000           -0.3737101             -10.1692
        74        2.0000           -0.3613822              -9.8337 (HOMO)
        75                         -0.2584979              -7.0341 (LUMO)
        76                         -0.2509299              -6.8281
        77                         -0.2301876              -6.2637
        78                         -0.2242263              -6.1015
        79                         -0.2231871              -6.0732
        80                         -0.2169021              -5.9022
        81                         -0.2059301              -5.6036
        82                         -0.1900650              -5.1719
        83                         -0.1874057              -5.0996
        84                         -0.1797656              -4.8917
        85                         -0.1099610              -2.9922
       ...                                ...                  ...
       147                          0.7665313              20.8584
      -------------------------------------------------------------
                  HL-Gap            0.1028843 Eh            2.7996 eV

     #   Z          covCN         q      C6AA      α(0)
     1   6 C        2.921    -0.034    28.843     8.807
     2   6 C        2.922    -0.033    28.819     8.803
     3   6 C        2.914    -0.034    28.839     8.806
     4   6 C        3.055     0.005    27.853     8.655
     5   6 C        3.036    -0.000    28.001     8.679
     6   6 C        2.914    -0.035    28.876     8.812
     7   6 C        3.036    -0.000    28.002     8.680
     8   6 C        2.914    -0.035    28.874     8.811
     9   6 C        2.921    -0.034    28.844     8.807
    10   6 C        2.923    -0.033    28.819     8.804
    11   6 C        2.914    -0.034    28.843     8.807
    12   6 C        3.056     0.006    27.835     8.652
    13   6 C        3.977     0.009    20.350     6.409
    14   6 C        3.058     0.005    27.849     8.654
    15   6 C        2.914    -0.035    28.862     8.810
    16   6 C        2.922    -0.033    28.832     8.805
    17   6 C        2.920    -0.035    28.862     8.810
    18   6 C        2.917    -0.038    28.949     8.823
    19   6 C        3.034     0.003    27.932     8.669
    20   6 C        3.019    -0.005    28.114     8.697
    21   6 C        3.062    -0.007    28.125     8.697
    22   6 C        2.918    -0.037    28.932     8.820
    23   6 C        2.914    -0.059    29.458     8.900
    24   6 C        3.077     0.052    26.760     8.481
    25   7 N        2.752    -0.121    23.631     7.220
    26   6 C        3.073     0.054    26.704     8.473
    27   6 C        2.910    -0.057    29.413     8.893
    28   6 C        2.923    -0.034    28.851     8.808
    29   6 C        2.918    -0.045    29.106     8.847
    30   6 C        2.914    -0.037    28.922     8.819
    31   6 C        3.065    -0.015    28.326     8.727
    32   6 C        3.053    -0.022    28.493     8.754
    33   1 H        0.926     0.032     2.557     2.501
    34   1 H        0.926     0.032     2.562     2.503
    35   1 H        0.926     0.027     2.635     2.538
    36   1 H        0.926     0.033     2.547     2.496
    37   1 H        0.926     0.033     2.545     2.495
    38   1 H        0.926     0.032     2.556     2.500
    39   1 H        0.926     0.032     2.560     2.502
    40   1 H        0.926     0.027     2.624     2.533
    41   1 H        0.926     0.025     2.658     2.549
    42   1 H        0.926     0.030     2.580     2.512
    43   1 H        0.926     0.031     2.568     2.506
    44   1 H        0.926     0.040     2.448     2.447
    45   1 H        0.926     0.028     2.621     2.532
    46   1 H        0.926     0.031     2.575     2.509
    47   1 H        0.860     0.163     1.319     1.799
    48   1 H        0.926     0.028     2.613     2.528
    49   1 H        0.926     0.030     2.591     2.517
    50   1 H        0.926     0.027     2.627     2.535
    51   1 H        0.926     0.036     2.501     2.473

molecular dipole:
                 x           y           z       tot (Debye)
 q only:        0.291       0.543      -0.089
   full:        0.332       0.777      -0.122       2.170

 projected vibrational frequencies (cm⁻¹)
eigval :       -0.00    -0.00    -0.00     0.00     0.00     0.00
eigval :       23.09    34.00    37.74    57.41    76.54    83.28
eigval :      103.30   127.06   140.49   144.36   164.86   214.55
eigval :      224.93   235.35   256.35   280.57   299.36   309.81
eigval :      352.59   386.45   394.36   402.48   411.91   414.82
eigval :      423.26   442.60   448.38   460.67   477.84   484.85
eigval :      502.65   521.50   537.24   540.30   552.08   577.69
eigval :      582.96   592.59   593.72   621.56   635.02   638.13
eigval :      676.25   688.10   690.05   702.83   706.80   715.32
eigval :      739.10   753.55   763.55   768.17   777.24   785.53
eigval :      803.90   817.91   858.77   860.34   870.60   876.17
eigval :      882.18   893.54   896.40   900.22   902.11   906.55
eigval :      911.88   913.73   917.40   925.59   925.76   929.71
eigval :      947.02   966.21  1007.58  1050.95  1065.68  1072.91
eigval :     1077.48  1078.83  1087.92  1121.85  1132.64  1142.70
eigval :     1144.19  1157.29  1168.28  1173.89  1176.34  1179.25
eigval :     1185.43  1198.78  1208.27  1213.06  1234.70  1240.68
eigval :     1259.37  1261.57  1263.10  1284.51  1285.09  1300.81
eigval :     1323.14  1325.18  1341.36  1361.45  1364.79  1389.99
eigval :     1403.87  1424.53  1427.93  1430.27  1445.38  1449.07
eigval :     1460.78  1467.22  1470.51  1487.17  1570.28  1583.71
eigval :     1583.99  1585.62  1594.67  1598.40  1599.81  1602.48
eigval :     1602.84  1611.11  3068.01  3068.06  3068.49  3069.99
eigval :     3072.15  3072.35  3072.87  3074.06  3076.94  3078.77
eigval :     3079.78  3084.79  3086.89  3087.24  3088.47  3089.11
eigval :     3120.25  3129.43  3480.61

   temp. (K)  partition function   enthalpy   heat capacity  entropy
                                   cal/mol     cal/K/mol   cal/K/mol   J/K/mol
 298.15  VIB  0.177E+09            12708.387     88.537     75.202
         ROT  0.179E+08              888.752      2.981     36.171
         INT  0.317E+16            13597.139     91.518    111.372
         TR   0.790E+28             1481.254      4.968     43.871
         TOT                       15078.3933    96.4858   155.2432   649.5377

       T/K    H(0)-H(T)+PV         H(T)/Eh          T*S/Eh         G(T)/Eh
   ------------------------------------------------------------------------
    298.15    0.240289E-01    0.415254E+00    0.737611E-01    0.341493E+00
   ------------------------------------------------------------------------

         :::::::::::::::::::::::::::::::::::::::::::::::::::::
         ::                  THERMODYNAMIC                  ::
         :::::::::::::::::::::::::::::::::::::::::::::::::::::
         :: total free energy         -78.733736976706 Eh   ::
         ::.................................................::
         :: total energy              -79.075230359150 Eh   ::
         :: zero point energy           0.391225508478 Eh   ::
         :: G(RRHO) w/o ZPVE           -0.049732126035 Eh   ::
         :: G(RRHO) contrib.            0.341493382443 Eh   ::
         :::::::::::::::::::::::::::::::::::::::::::::::::::::

           -------------------------------------------------
          | TOTAL ENERGY              -79.075230359150 Eh   |
          | TOTAL ENTHALPY            -78.659975901512 Eh   |
          | TOTAL FREE ENERGY         -78.733736976706 Eh   |
          | GRADIENT NORM               0.000033292748 Eh/α |
          | HOMO-LUMO GAP               2.799623350908 eV   |
           -------------------------------------------------

 * finished run on 2025/08/21 at 13:32:21.354
