   * xtb version 6.7.1 (edcfbbe) compiled by 'albert@albert-system' on 2024-07-22

   ID    Z sym.   atoms
    1    6 C      1, 2, 4-17, 19-38
    2    5 B      3
    3    7 N      18
    4    1 H      39-62

          program call               : xtb data2507/gas/BN-DBC-Ph2/BN-DBC-Ph2_gas_S0_finalOpt.xtbopt.xyz --gfn 2 --spinpol --tblite --uhf 2 --ohess vtight --parallel 40 --molden --ceasefiles --namespace data2507/gas/BN-DBC-Ph2/BN-DBC-Ph2_gas_T1_preOpt
 * total energy  :   -93.3977215 Eh     change       -0.9871485E-08 Eh
 * total energy  :   -93.4007451 Eh     change       -0.3023592E-02 Eh
 * total energy  :   -93.4021427 Eh     change       -0.1397631E-02 Eh
 * total energy  :   -93.4022953 Eh     change       -0.1525548E-03 Eh
 * total energy  :   -93.4024010 Eh     change       -0.1057339E-03 Eh
 * total energy  :   -93.4024600 Eh     change       -0.5896708E-04 Eh
 * total energy  :   -93.4025267 Eh     change       -0.6670772E-04 Eh
 * total energy  :   -93.4025882 Eh     change       -0.6143835E-04 Eh
 * total energy  :   -93.4026353 Eh     change       -0.4717930E-04 Eh
 * total energy  :   -93.4026708 Eh     change       -0.3551809E-04 Eh
 * total energy  :   -93.4028910 Eh     change       -0.1548507E-06 Eh
 * total energy  :   -93.4028912 Eh     change       -0.1977029E-06 Eh
 * total energy  :   -93.4028914 Eh     change       -0.1500261E-06 Eh
 * total energy  :   -93.4028916 Eh     change       -0.2018875E-06 Eh
 * total energy  :   -93.4028918 Eh     change       -0.1664741E-06 Eh
 * total energy  :   -93.4028920 Eh     change       -0.1885069E-06 Eh
 * total energy  :   -93.4028921 Eh     change       -0.1562105E-06 Eh
 * total energy  :   -93.4028923 Eh     change       -0.1557996E-06 Eh
 * total energy  :   -93.4028923 Eh     change       -0.7067739E-07 Eh
   *** GEOMETRY OPTIMIZATION CONVERGED AFTER 40 ITERATIONS ***

 final structure:
================
62
 xtb: 6.7.1 (edcfbbe)
C            2.18019534992947       -4.50194054510601        1.85224432378509
C            1.08530890725922       -4.61522357924240        1.04694067955411
B            0.47065134282652       -3.34818627384632        0.44852827613425
C            1.22574023404392       -2.02195881273759        0.72122268304615
C            0.70667881914709       -0.80002287124953        0.21453300454783
C           -0.62419722158514       -0.76220336430071       -0.22749667110186
C           -1.34953324658743        0.46208615786068       -0.07580700174688
C           -2.72990484159218        0.49252787128362       -0.00125047333505
C           -3.46978500079739        1.65026560560923        0.27600616564258
C           -4.91585064133237        1.64807415190747        0.31307692890587
C           -5.65461338208091        0.70862096850486       -0.42202680735925
C           -7.03300381309168        0.71027520505559       -0.39845915169576
C           -7.72305233568235        1.64547751831761        0.35781074357649
C           -7.01075324658691        2.58102156358038        1.09230463783778
C           -5.63198200941484        2.58558448000538        1.07121349472705
C           -2.69547574987650        2.80902768554377        0.56051932470835
C           -1.34630868467706        2.77400129650459        0.52135888992947
N           -0.63181458866285        1.64215148215873        0.18203333280927
C            0.74545031559820        1.66573509779963        0.06645093136642
C            1.46144668309474        2.85148955415965       -0.12229884811876
C            2.83754530334289        2.83585589179167       -0.23154222624864
C            3.54872234028932        1.63991675340523       -0.19605033889806
C            5.00775233918976        1.61671322776467       -0.33418945218270
C            5.65989055475539        2.49801482543487       -1.19627659036530
C            7.03557939483625        2.47434411729912       -1.32223357100440
C            7.78843471789477        1.57286969740901       -0.58802252429891
C            7.15307489938323        0.69196470182037        0.27149786658502
C            5.77726339772066        0.71111115996999        0.39615174704593
C            2.83033794178957        0.45345106888106       -0.03625380337777
C            1.45224898345422        0.44631627953949        0.13408428878349
C           -1.26036377379456       -1.95059137493518       -0.77670812121124
C           -2.23846283768073       -1.82463424693645       -1.76800387272235
C           -2.83676847749632       -2.94018374019946       -2.32404235289559
C           -2.45676915910263       -4.20854168289357       -1.91402888409672
C           -1.43256279247273       -4.34519722521084       -0.99578302561373
C           -0.79840527505634       -3.23944051307778       -0.42570610251064
C            2.30276350947934       -2.05566605091685        1.61530638963569
C            2.75867060565737       -3.24607914433926        2.14445558455133
H            2.63290162836600       -5.37426113499295        2.30895415519860
H            0.67862465328011       -5.60813468043147        0.89845444793970
H           -3.25135422323731       -0.44612661296242       -0.08577672336446
H           -5.14010397479986       -0.01303523567202       -1.03905038651540
H           -7.57828438626279       -0.02017853549587       -0.97923429489939
H           -8.80260613444767        1.64519086996121        0.37456141291821
H           -7.53836658962334        3.31032139147322        1.69066002156561
H           -5.10078567127133        3.30718790793221        1.67382723398621
H           -3.17859873671821        3.73665739422206        0.81999690763076
H           -0.76173890982987        3.63590699555199        0.79266381310195
H            0.94995189697221        3.79633888655451       -0.21343272369068
H            3.36442731125504        3.77123249127291       -0.34641854493266
H            5.08027218761069        3.19066325372051       -1.78906629228818
H            7.52416812323641        3.16039556379306       -1.99917373623699
H            8.86383088390651        1.55640540400128       -0.68592824074269
H            7.73442883087862       -0.01193788903584        0.84951758708196
H            5.29338330053861        0.03164424656831        1.08252211481172
H            3.35293224146655       -0.48802822183805       -0.09675400721949
H           -2.49988837842378       -0.84557652084703       -2.14370912703143
H           -3.59665326496114       -2.81824364131873       -3.08252348410927
H           -2.94049526198968       -5.08090129876755       -2.32905374381920
H           -1.10390029914944       -5.33425437700462       -0.71220247156265
H            2.77232547037290       -1.13707571978618        1.94427215842156
H            3.60265102714190       -3.22188719137383        2.82155708701123

 projected vibrational frequencies (cm⁻¹)
eigval :       -0.00    -0.00    -0.00    -0.00     0.00     0.00
eigval :       17.77    28.56    35.39    38.22    46.67    49.67
eigval :       63.65    76.75    81.21    99.39   103.59   123.34
eigval :      134.81   164.24   175.48   178.96   198.32   221.25
eigval :      231.98   249.95   254.24   306.08   311.76   322.40
eigval :      337.12   346.72   358.04   370.73   372.22   377.74
eigval :      386.07   401.83   420.96   428.53   441.73   454.22
eigval :      459.05   473.07   497.39   499.84   508.88   530.19
eigval :      544.39   567.61   574.11   578.98   587.13   589.87
eigval :      600.78   618.67   622.53   633.24   649.62   656.45
eigval :      658.19   669.68   671.40   686.83   701.02   709.40
eigval :      715.92   730.37   745.16   755.70   768.99   778.12
eigval :      796.79   809.09   842.80   855.20   859.05   861.46
eigval :      873.20   879.21   880.10   882.17   895.05   895.87
eigval :      898.04   902.78   920.03   922.74   924.27   924.78
eigval :      927.27   930.38   930.46   936.61   944.37   963.74
eigval :      976.91   983.82   987.93  1045.22  1056.19  1068.04
eigval :     1084.18  1086.53  1093.27  1100.74  1111.93  1124.07
eigval :     1125.72  1135.97  1146.48  1164.04  1176.26  1182.13
eigval :     1182.78  1183.57  1190.69  1195.13  1203.26  1209.19
eigval :     1218.72  1241.00  1243.55  1253.86  1261.05  1272.62
eigval :     1283.50  1288.86  1289.51  1294.84  1304.55  1313.82
eigval :     1320.84  1324.61  1326.93  1338.01  1340.51  1350.14
eigval :     1370.69  1373.71  1394.46  1396.04  1413.01  1424.51
eigval :     1433.71  1438.97  1445.56  1448.94  1452.27  1470.55
eigval :     1473.61  1485.69  1534.29  1538.99  1544.29  1550.73
eigval :     1557.31  1563.30  1577.71  1582.92  1597.50  1610.24
eigval :     3029.06  3040.19  3045.82  3062.47  3066.12  3067.39
eigval :     3068.75  3069.95  3071.62  3072.10  3080.54  3080.70
eigval :     3082.80  3083.51  3084.77  3086.38  3087.81  3091.76
eigval :     3092.19  3100.14  3104.25  3109.48  3120.39  3128.44

   temp. (K)  partition function   enthalpy   heat capacity  entropy
                                   cal/mol     cal/K/mol   cal/K/mol   J/K/mol
 298.15  VIB  0.546E+12            16717.584    110.718    101.419
         ROT  0.416E+08              888.752      2.981     37.846
         INT  0.227E+20            17606.337    113.699    139.265
         TR   0.102E+29             1481.254      4.968     44.382
         TOT                       19087.5906   118.6674   183.6477   768.3821

       T/K    H(0)-H(T)+PV         H(T)/Eh          T*S/Eh         G(T)/Eh
   ------------------------------------------------------------------------
    298.15    0.304180E-01    0.504583E+00    0.872570E-01    0.417326E+00
   ------------------------------------------------------------------------

         :::::::::::::::::::::::::::::::::::::::::::::::::::::
         ::                  THERMODYNAMIC                  ::
         :::::::::::::::::::::::::::::::::::::::::::::::::::::
         :: total free energy         -92.985566535043 Eh   ::
         ::.................................................::
         :: total energy              -93.402892366738 Eh   ::
         :: zero point energy           0.474164777101 Eh   ::
         :: G(RRHO) w/o ZPVE           -0.056838945406 Eh   ::
         :: G(RRHO) contrib.            0.417325831694 Eh   ::
         :::::::::::::::::::::::::::::::::::::::::::::::::::::

           -------------------------------------------------
          | TOTAL ENERGY              -93.402892366738 Eh   |
          | TOTAL ENTHALPY            -92.898309577760 Eh   |
          | TOTAL FREE ENERGY         -92.985566535043 Eh   |
          | GRADIENT NORM               0.000032104469 Eh/α |
           -------------------------------------------------

 * finished run on 2025/09/10 at 13:12:29.200
