   * xtb version 6.7.1 (edcfbbe) compiled by 'albert@albert-system' on 2024-07-22

   ID    Z sym.   atoms
    1    6 C      1, 2, 4-17, 19-38
    2    5 B      3
    3    7 N      18
    4    1 H      39-62

          program call               : xtb data2507/gas/BN-DBC-Ph2/BN-DBC-Ph2_gas_S0_crest.xyz --gfn 2 --ohess vtight --parallel 40 --molden --ceasefiles --namespace data2507/gas/BN-DBC-Ph2/BN-DBC-Ph2_gas_S0_finalOpt
          :  Hamiltonian                  GFN2-xTB          :
 * total energy  :   -93.4509381 Eh     change       -0.3756170E-08 Eh
 * total energy  :   -93.4509390 Eh     change       -0.9533869E-06 Eh
 * total energy  :   -93.4509401 Eh     change       -0.1106623E-05 Eh
 * total energy  :   -93.4509416 Eh     change       -0.1480774E-05 Eh
 * total energy  :   -93.4509428 Eh     change       -0.1164713E-05 Eh
 * total energy  :   -93.4509430 Eh     change       -0.2023076E-06 Eh
 * total energy  :   -93.4509435 Eh     change       -0.5262424E-06 Eh
 * total energy  :   -93.4509439 Eh     change       -0.4202530E-06 Eh
 * total energy  :   -93.4509444 Eh     change       -0.4752464E-06 Eh
 * total energy  :   -93.4509447 Eh     change       -0.3567074E-06 Eh
 * total energy  :   -93.4509451 Eh     change       -0.3508319E-06 Eh
 * total energy  :   -93.4509454 Eh     change       -0.2904140E-06 Eh
 * total energy  :   -93.4509456 Eh     change       -0.1893905E-06 Eh
 * total energy  :   -93.4509457 Eh     change       -0.1663060E-06 Eh
 * total energy  :   -93.4509459 Eh     change       -0.1629910E-06 Eh
 * total energy  :   -93.4509460 Eh     change       -0.1168538E-06 Eh
 * total energy  :   -93.4509461 Eh     change       -0.6592875E-07 Eh
   *** GEOMETRY OPTIMIZATION CONVERGED AFTER 17 ITERATIONS ***

 final structure:
================
62
 xtb: 6.7.1 (edcfbbe)
C            2.16219813113524       -4.45994481229518        1.89627021776572
C            1.02763295207207       -4.56169895362354        1.15136299310915
B            0.42932043998591       -3.30646668258133        0.53686247648391
C            1.17976967935317       -1.99585785542579        0.81795239102366
C            0.69675944459936       -0.81006163991586        0.26992763118338
C           -0.63578898122214       -0.75026135356454       -0.25697323496495
C           -1.33180742817177        0.45151411806007       -0.09976950164324
C           -2.74907724054708        0.50204019626245       -0.05883790779981
C           -3.44726757824268        1.63413412668979        0.25849381293988
C           -4.91117201645951        1.64646252566619        0.30005481079123
C           -5.64830492809107        0.91298147572907       -0.62948333228168
C           -7.02948299872431        0.92728162837134       -0.60021273123663
C           -7.69902081208670        1.66825555030022        0.35977479384546
C           -6.97730781042012        2.39580563452315        1.29133473774567
C           -5.59562945224604        2.38932648233549        1.26096195587695
C           -2.69339303165830        2.79450671261911        0.59822522234905
C           -1.34308630155172        2.74053978600025        0.58017059839457
N           -0.65206277149508        1.62923420478236        0.20064715073993
C            0.73619476277305        1.65117496543576        0.08758024837337
C            1.44229152549965        2.83671135902117       -0.12382830011170
C            2.81356763512002        2.82417198829187       -0.23906424855319
C            3.52494932362793        1.62178527889978       -0.19330945178421
C            4.98547938056421        1.60200370733512       -0.34890658283169
C            5.62085131478948        2.44886477023383       -1.25450984396612
C            6.99599655723691        2.42637080772117       -1.39314776184942
C            7.75970067846175        1.56213552687134       -0.62663634210705
C            7.13861634535985        0.71568019894100        0.27654002530425
C            5.76341695629453        0.73237814113642        0.41312187032610
C            2.81856470246643        0.44258910834190       -0.01873499562727
C            1.43365231596276        0.43100916462207        0.15953627959735
C           -1.24481315817407       -1.93968174439974       -0.81985500873652
C           -2.21795131631355       -1.83478654611093       -1.82332852237479
C           -2.79116478915772       -2.95980486452187       -2.37260083278535
C           -2.39631453694863       -4.22056146988485       -1.93953627581326
C           -1.38992947413600       -4.33357517199250       -1.00500730484306
C           -0.77498847404204       -3.21501173909032       -0.43425024701272
C            2.32572014964716       -2.03580090605588        1.65824715827804
C            2.78372116429045       -3.21317267790710        2.16581068083668
H            2.61688594227598       -5.33827651041467        2.34363089857268
H            0.59780532788923       -5.55169508270679        1.04170743519045
H           -3.27543530625062       -0.42632872975169       -0.20542300609028
H           -5.13349238610385        0.34608345992614       -1.39086992638896
H           -7.58710380528560        0.35947554854336       -1.33033990246442
H           -8.77844220783810        1.67790691140582        0.38248745203854
H           -7.49394386529520        2.96991466551901        2.04649204460317
H           -5.04290818794607        2.94235105614630        2.00619466376111
H           -3.19068867789895        3.70539404186229        0.88542370678856
H           -0.74958629098193        3.58478831085876        0.89092003609501
H            0.92089522253261        3.77496065532688       -0.23656731336618
H            3.34220917466612        3.75470976954248       -0.37967278906036
H            5.03088048149612        3.11197049510247       -1.87060184126784
H            7.47442813056254        3.08441898449088       -2.10405864445530
H            8.83419204322167        1.54748842827017       -0.73394019072503
H            7.72911793415760        0.04019613200918        0.87808625274722
H            5.28737702959948        0.07953307031937        1.12974659635182
H            3.33651150851425       -0.50155582577748       -0.07655970042136
H           -2.48341882579024       -0.86145339654955       -2.21508678982974
H           -3.53376400974532       -2.86195023205940       -3.15247219064105
H           -2.85644482810044       -5.10309779242710       -2.36154202161845
H           -1.05058370215053       -5.31510354745940       -0.70751061671135
H            2.79957241785615       -1.11228260430196        1.97232519102489
H            3.64136765146393       -3.20838516039719        2.82697265432493

          :  Hamiltonian                  GFN2-xTB          :
         :: gradient norm              0.000020912850 Eh/a0 ::
         :: HOMO-LUMO gap              1.148328396635 eV    ::
         :: SCC energy               -95.246743293457 Eh    ::
         :: -> dispersion             -0.085389544987 Eh    ::
         :: repulsion energy           1.795797202382 Eh    ::

    * Orbital Energies and Occupations

         #    Occupation            Energy/Eh            Energy/eV
      -------------------------------------------------------------
         1        2.0000           -0.6978534             -18.9896
       ...           ...                  ...                  ...
        76        2.0000           -0.4145697             -11.2810
        77        2.0000           -0.4091559             -11.1337
        78        2.0000           -0.4065841             -11.0637
        79        2.0000           -0.4059080             -11.0453
        80        2.0000           -0.4040989             -10.9961
        81        2.0000           -0.3993587             -10.8671
        82        2.0000           -0.3907516             -10.6329
        83        2.0000           -0.3839657             -10.4482
        84        2.0000           -0.3767216             -10.2511
        85        2.0000           -0.3606584              -9.8140
        86        2.0000           -0.3565442              -9.7021
        87        2.0000           -0.3476350              -9.4596
        88        2.0000           -0.3300290              -8.9805 (HOMO)
        89                         -0.2878282              -7.8322 (LUMO)
        90                         -0.2696304              -7.3370
        91                         -0.2479239              -6.7464
        92                         -0.2398375              -6.5263
        93                         -0.2334272              -6.3519
        94                         -0.2260828              -6.1520
        95                         -0.2238321              -6.0908
        96                         -0.2180570              -5.9336
        97                         -0.2095087              -5.7010
        98                         -0.1964600              -5.3459
        99                         -0.1799671              -4.8972
       ...                                ...                  ...
       176                          0.7477550              20.3474
      -------------------------------------------------------------
                  HL-Gap            0.0422007 Eh            1.1483 eV

     #   Z          covCN         q      C6AA      α(0)
     1   6 C        2.902    -0.029    28.717     8.787
     2   6 C        2.821    -0.116    30.926     9.112
     3   5 B        2.728     0.179    18.686     7.242
     4   6 C        2.887    -0.081    30.035     8.985
     5   6 C        2.979     0.006    27.880     8.661
     6   6 C        2.983    -0.026    28.652     8.780
     7   6 C        2.931     0.056    26.753     8.483
     8   6 C        2.926    -0.046    29.138     8.852
     9   6 C        2.974     0.017    27.632     8.622
    10   6 C        2.977     0.009    27.814     8.651
    11   6 C        2.925    -0.032    28.804     8.801
    12   6 C        2.918    -0.027    28.680     8.782
    13   6 C        2.920    -0.028    28.699     8.785
    14   6 C        2.918    -0.028    28.705     8.786
    15   6 C        2.925    -0.032    28.807     8.802
    16   6 C        2.917    -0.052    29.296     8.876
    17   6 C        2.870     0.015    27.668     8.622
    18   7 N        2.756     0.018    20.944     6.797
    19   6 C        2.939     0.040    27.096     8.537
    20   6 C        2.916    -0.050    29.239     8.867
    21   6 C        2.924    -0.037    28.912     8.818
    22   6 C        2.973     0.008    27.844     8.655
    23   6 C        2.977     0.010    27.793     8.648
    24   6 C        2.925    -0.034    28.842     8.807
    25   6 C        2.918    -0.029    28.735     8.790
    26   6 C        2.920    -0.030    28.749     8.793
    27   6 C        2.918    -0.028    28.710     8.787
    28   6 C        2.925    -0.033    28.815     8.803
    29   6 C        2.930    -0.037    28.920     8.819
    30   6 C        2.984     0.004    27.920     8.668
    31   6 C        2.979     0.002    27.985     8.677
    32   6 C        2.920    -0.043    29.064     8.841
    33   6 C        2.918    -0.035    28.864     8.810
    34   6 C        2.915    -0.035    28.876     8.812
    35   6 C        2.921    -0.032    28.789     8.799
    36   6 C        2.890    -0.066    29.653     8.928
    37   6 C        2.905    -0.042    29.033     8.835
    38   6 C        2.908    -0.049    29.207     8.862
    39   1 H        0.925     0.005     2.972     2.696
    40   1 H        0.925    -0.000     3.061     2.736
    41   1 H        0.926     0.064     2.151     2.293
    42   1 H        0.926     0.037     2.495     2.470
    43   1 H        0.926     0.035     2.509     2.477
    44   1 H        0.926     0.035     2.522     2.484
    45   1 H        0.926     0.034     2.535     2.490
    46   1 H        0.926     0.033     2.549     2.497
    47   1 H        0.926     0.048     2.347     2.396
    48   1 H        0.926     0.055     2.256     2.349
    49   1 H        0.926     0.032     2.558     2.501
    50   1 H        0.926     0.037     2.486     2.466
    51   1 H        0.926     0.030     2.587     2.515
    52   1 H        0.926     0.030     2.585     2.514
    53   1 H        0.926     0.031     2.574     2.509
    54   1 H        0.926     0.033     2.549     2.496
    55   1 H        0.926     0.036     2.499     2.472
    56   1 H        0.926     0.057     2.237     2.339
    57   1 H        0.925     0.012     2.860     2.644
    58   1 H        0.925     0.016     2.801     2.617
    59   1 H        0.926     0.018     2.766     2.601
    60   1 H        0.926     0.028     2.609     2.526
    61   1 H        0.925     0.003     3.000     2.708
    62   1 H        0.925     0.007     2.945     2.684

molecular dipole:
                 x           y           z       tot (Debye)
 q only:       -0.886       2.312      -0.146
   full:       -0.876       2.592      -0.175       6.967

 projected vibrational frequencies (cm⁻¹)
eigval :       -0.00    -0.00    -0.00    -0.00     0.00     0.00
eigval :       19.71    29.34    36.33    39.09    45.76    48.24
eigval :       66.12    78.49    87.79   102.60   104.79   127.98
eigval :      134.18   175.41   178.10   188.42   201.26   228.36
eigval :      239.37   255.87   259.69   303.82   321.19   331.27
eigval :      347.67   355.29   367.26   371.52   372.20   382.70
eigval :      396.50   403.53   424.83   437.74   455.86   468.99
eigval :      477.38   484.23   506.47   512.04   514.21   551.62
eigval :      566.94   572.27   579.03   586.96   590.05   590.55
eigval :      623.41   631.28   635.24   652.23   658.19   664.28
eigval :      670.00   673.26   675.09   700.31   714.44   717.44
eigval :      735.18   744.61   756.05   758.37   775.05   802.65
eigval :      809.21   823.93   856.19   861.05   871.00   875.72
eigval :      876.05   885.91   891.12   897.95   900.59   903.52
eigval :      903.96   908.83   922.88   929.14   929.25   930.68
eigval :      932.42   932.66   945.67   949.71   951.36   965.85
eigval :      982.84   987.38   990.23  1047.23  1066.04  1077.14
eigval :     1083.99  1087.10  1093.24  1100.66  1122.21  1123.55
eigval :     1128.72  1148.25  1165.97  1176.08  1182.52  1183.16
eigval :     1185.05  1197.94  1202.15  1203.48  1209.88  1226.67
eigval :     1231.40  1239.90  1247.72  1258.64  1280.42  1282.70
eigval :     1282.93  1288.03  1289.11  1300.45  1307.79  1319.17
eigval :     1319.76  1322.31  1331.08  1346.57  1358.50  1370.17
eigval :     1406.18  1413.22  1421.77  1425.86  1433.26  1435.32
eigval :     1439.53  1442.98  1459.71  1466.96  1480.62  1489.03
eigval :     1510.22  1520.74  1544.21  1547.78  1576.23  1578.58
eigval :     1583.17  1585.40  1592.26  1593.32  1600.37  1606.96
eigval :     3004.99  3013.15  3023.72  3045.81  3049.37  3060.40
eigval :     3071.21  3071.62  3075.58  3075.71  3078.52  3081.75
eigval :     3083.23  3083.31  3085.49  3087.71  3090.22  3094.17
eigval :     3096.20  3096.89  3108.00  3110.51  3122.61  3124.23

   temp. (K)  partition function   enthalpy   heat capacity  entropy
                                   cal/mol     cal/K/mol   cal/K/mol   J/K/mol
 298.15  VIB  0.285E+12            16421.493    109.232     99.390
         ROT  0.413E+08              888.752      2.981     37.832
         INT  0.118E+20            17310.246    112.213    137.222
         TR   0.102E+29             1481.254      4.968     44.382
         TOT                       18791.4995   117.1812   181.6039   759.8308

       T/K    H(0)-H(T)+PV         H(T)/Eh          T*S/Eh         G(T)/Eh
   ------------------------------------------------------------------------
    298.15    0.299462E-01    0.507215E+00    0.862859E-01    0.420930E+00
   ------------------------------------------------------------------------

         :::::::::::::::::::::::::::::::::::::::::::::::::::::
         ::                  THERMODYNAMIC                  ::
         :::::::::::::::::::::::::::::::::::::::::::::::::::::
         :: total free energy         -93.030016535880 Eh   ::
         ::.................................................::
         :: total energy              -93.450946091051 Eh   ::
         :: zero point energy           0.477269275432 Eh   ::
         :: G(RRHO) w/o ZPVE           -0.056339720260 Eh   ::
         :: G(RRHO) contrib.            0.420929555171 Eh   ::
         :::::::::::::::::::::::::::::::::::::::::::::::::::::

           -------------------------------------------------
          | TOTAL ENERGY              -93.450946091051 Eh   |
          | TOTAL ENTHALPY            -92.943730654948 Eh   |
          | TOTAL FREE ENERGY         -93.030016535880 Eh   |
          | GRADIENT NORM               0.000021259714 Eh/α |
          | HOMO-LUMO GAP               1.148340823465 eV   |
           -------------------------------------------------

 * finished run on 2025/09/10 at 13:12:23.902
