   * xtb version 6.7.1 (edcfbbe) compiled by 'albert@albert-system' on 2024-07-22

   ID    Z sym.   atoms
    1    6 C      1, 2, 4-17, 19-38
    2    5 B      3
    3    7 N      18
    4    1 H      39-62

          program call               : xtb data2507/gas/BN-DBC-Ph2/BN-DBC-Ph2.xyz --gfn 2 --ohess vtight --parallel 40 --molden --ceasefiles --namespace data2507/gas/BN-DBC-Ph2/BN-DBC-Ph2_gas_S0_preOpt
          :  Hamiltonian                  GFN2-xTB          :
 * total energy  :   -93.3353617 Eh     change       -0.1356909E-08 Eh
 * total energy  :   -93.3896009 Eh     change       -0.5423922E-01 Eh
 * total energy  :   -93.4114374 Eh     change       -0.2183649E-01 Eh
 * total energy  :   -93.4210238 Eh     change       -0.9586343E-02 Eh
 * total energy  :   -93.4267226 Eh     change       -0.5698863E-02 Eh
 * total energy  :   -93.4307542 Eh     change       -0.4031548E-02 Eh
 * total energy  :   -93.4337783 Eh     change       -0.3024135E-02 Eh
 * total energy  :   -93.4358880 Eh     change       -0.2109698E-02 Eh
 * total energy  :   -93.4372064 Eh     change       -0.1318340E-02 Eh
 * total energy  :   -93.4380713 Eh     change       -0.8649943E-03 Eh
 * total energy  :   -93.4439825 Eh     change       -0.1048529E-05 Eh
 * total energy  :   -93.4439834 Eh     change       -0.9232907E-06 Eh
 * total energy  :   -93.4439843 Eh     change       -0.8685699E-06 Eh
 * total energy  :   -93.4439852 Eh     change       -0.8929408E-06 Eh
 * total energy  :   -93.4439861 Eh     change       -0.9322850E-06 Eh
 * total energy  :   -93.4439870 Eh     change       -0.8996009E-06 Eh
 * total energy  :   -93.4439878 Eh     change       -0.7589618E-06 Eh
 * total energy  :   -93.4439884 Eh     change       -0.5839138E-06 Eh
 * total energy  :   -93.4439884 Eh     change       -0.3875783E-08 Eh
   *** GEOMETRY OPTIMIZATION CONVERGED AFTER 68 ITERATIONS ***

 final structure:
================
62
 xtb: 6.7.1 (edcfbbe)
C            2.90003255934505       -4.53821648359061       -0.24146947798184
C            1.59916983623901       -4.55439480225633       -0.64308915951638
B            0.69764278247159       -3.38234282292322       -0.28986440783738
C            1.39178404083895       -2.19307971031963        0.38366752798691
C            0.70465689743707       -0.97440466801533        0.41082246586775
C           -0.72221554361372       -0.92960933495242        0.30941023848258
C           -1.36933218991275        0.30558486505598        0.39213918296554
C           -2.71515677677704        0.51919955735343       -0.01324610488544
C           -3.42385287046271        1.63437153295288        0.33461149377687
C           -4.80574331333543        1.84869275525565       -0.09808825147912
C           -5.68313420520127        0.77376944331299       -0.24125571190214
C           -6.98993463062603        0.98226293543657       -0.63856703637294
C           -7.44279961411213        2.26388026132913       -0.90524963395063
C           -6.57907190534941        3.33826513734164       -0.77129524531871
C           -5.27322428155140        3.13467873862728       -0.36772730767436
C           -2.75730753480843        2.59198525062877        1.15673445149530
C           -1.42723411889263        2.47289613649739        1.36143046038660
N           -0.69777093823980        1.42339695117838        0.88018153291169
C            0.68723989342036        1.48011262438614        0.76380963021069
C            1.38487670454393        2.68671620177853        0.86854889324592
C            2.73410446552412        2.74649924079001        0.60722711809865
C            3.42263155912234        1.61752513924345        0.15478747101472
C            4.84224860506668        1.69290800294859       -0.21423593120302
C            5.70616743731111        0.64071342947277        0.08440587695407
C            7.04437083646030        0.71172118736162       -0.25358268056872
C            7.54211614237670        1.83097064114118       -0.89965644250741
C            6.69181916146952        2.88014204078591       -1.20611236180929
C            5.35400564668412        2.81381925661858       -0.86471454407437
C            2.72850888543803        0.42365661809086        0.05176161911674
C            1.38622524050394        0.30446989820671        0.42449201119049
C           -1.48643720580124       -2.15728246168385        0.14053262469487
C           -2.82512726662293       -2.25390829951849        0.54524069762877
C           -3.56816117343621       -3.38464593308689        0.28531319420030
C           -2.98346818131579       -4.46407772549297       -0.36582749643644
C           -1.63298772497881       -4.43308384562997       -0.63789311598649
C           -0.84316273944523       -3.31283460430824       -0.36067358449797
C            2.73055566963702       -2.35234516829085        0.82412613732101
C            3.44099401624783       -3.47702997483523        0.52805478853851
H            3.55922988687249       -5.37401801298539       -0.45345725716285
H            1.25505389166063       -5.44241873445826       -1.16235647797904
H           -3.15218462156905       -0.22259846603749       -0.66186519737085
H           -5.34593941725763       -0.22720821970957       -0.01790348643506
H           -7.65996576992836        0.14109234177770       -0.73815631338612
H           -8.46429508769716        2.42480362942949       -1.21578967569249
H           -6.92499096375898        4.33942358845485       -0.98303382380988
H           -4.60144918351235        3.97666362745289       -0.28484279910854
H           -3.30008906201727        3.41532950105073        1.58921124443932
H           -0.88496417554648        3.20996601751422        1.93022764416847
H            0.87323779137625        3.60256319371810        1.11846870885051
H            3.25482542618008        3.68521928870770        0.72016893104285
H            5.32967904420135       -0.22954636568563        0.60085710837030
H            7.70287579233840       -0.10936214389939       -0.01069488990601
H            8.58768774239061        1.88508520078124       -1.16448881809667
H            7.07289686545196        3.75327929792763       -1.71579550372183
H            4.69376279023697        3.62834611968533       -1.12558082927211
H            3.22018411541373       -0.43675757239932       -0.37238129303647
H           -3.27350694484056       -1.45720611868616        1.12353499158004
H           -4.60079722415515       -3.43602063419164        0.60222497739139
H           -3.57331934238174       -5.33943320011048       -0.59886715452966
H           -1.15501838417238       -5.30886871083384       -1.05198885678557
H            3.17302638492334       -1.60462376779690        1.47473999186255
H            4.45103828014486       -3.58469187056512        0.90301585649292

          :  Hamiltonian                  GFN2-xTB          :
         :: gradient norm              0.000050166926 Eh/a0 ::
         :: HOMO-LUMO gap              1.011665410685 eV    ::
         :: SCC energy               -95.237450746786 Eh    ::
         :: -> dispersion             -0.086720232434 Eh    ::
         :: repulsion energy           1.793462385877 Eh    ::

    * Orbital Energies and Occupations

         #    Occupation            Energy/Eh            Energy/eV
      -------------------------------------------------------------
         1        2.0000           -0.6984247             -19.0051
       ...           ...                  ...                  ...
        76        2.0000           -0.4152232             -11.2988
        77        2.0000           -0.4094444             -11.1415
        78        2.0000           -0.4058386             -11.0434
        79        2.0000           -0.4055766             -11.0363
        80        2.0000           -0.4046492             -11.0111
        81        2.0000           -0.3995972             -10.8736
        82        2.0000           -0.3899850             -10.6120
        83        2.0000           -0.3827008             -10.4138
        84        2.0000           -0.3758053             -10.2262
        85        2.0000           -0.3599407              -9.7945
        86        2.0000           -0.3583039              -9.7499
        87        2.0000           -0.3463990              -9.4260
        88        2.0000           -0.3280387              -8.9264 (HOMO)
        89                         -0.2908607              -7.9147 (LUMO)
        90                         -0.2717984              -7.3960
        91                         -0.2472017              -6.7267
        92                         -0.2393680              -6.5135
        93                         -0.2340088              -6.3677
        94                         -0.2280867              -6.2066
        95                         -0.2234605              -6.0807
        96                         -0.2160283              -5.8784
        97                         -0.2099669              -5.7135
        98                         -0.1961453              -5.3374
        99                         -0.1807878              -4.9195
       ...                                ...                  ...
       176                          0.7444051              20.2563
      -------------------------------------------------------------
                  HL-Gap            0.0371780 Eh            1.0117 eV

     #   Z          covCN         q      C6AA      α(0)
     1   6 C        2.903    -0.030    28.741     8.790
     2   6 C        2.821    -0.116    30.938     9.114
     3   5 B        2.731     0.179    18.668     7.237
     4   6 C        2.888    -0.080    29.998     8.979
     5   6 C        2.973     0.004    27.935     8.670
     6   6 C        2.973    -0.027    28.671     8.783
     7   6 C        2.934     0.057    26.730     8.479
     8   6 C        2.926    -0.045    29.112     8.848
     9   6 C        2.975     0.016    27.656     8.626
    10   6 C        2.976     0.009    27.814     8.651
    11   6 C        2.925    -0.032    28.809     8.802
    12   6 C        2.918    -0.027    28.679     8.782
    13   6 C        2.920    -0.028    28.696     8.784
    14   6 C        2.918    -0.028    28.708     8.786
    15   6 C        2.925    -0.033    28.812     8.803
    16   6 C        2.919    -0.052    29.282     8.874
    17   6 C        2.871     0.014    27.698     8.627
    18   7 N        2.757     0.017    20.956     6.799
    19   6 C        2.936     0.043    27.037     8.528
    20   6 C        2.917    -0.052    29.286     8.874
    21   6 C        2.924    -0.035    28.883     8.813
    22   6 C        2.973     0.007    27.853     8.657
    23   6 C        2.977     0.010    27.797     8.648
    24   6 C        2.925    -0.033    28.817     8.803
    25   6 C        2.918    -0.028    28.706     8.786
    26   6 C        2.920    -0.030    28.748     8.793
    27   6 C        2.918    -0.030    28.738     8.791
    28   6 C        2.925    -0.034    28.845     8.808
    29   6 C        2.931    -0.038    28.951     8.824
    30   6 C        2.980     0.004    27.927     8.669
    31   6 C        2.979     0.001    28.010     8.681
    32   6 C        2.920    -0.043    29.077     8.843
    33   6 C        2.918    -0.036    28.903     8.816
    34   6 C        2.915    -0.035    28.876     8.812
    35   6 C        2.922    -0.032    28.804     8.801
    36   6 C        2.892    -0.067    29.663     8.929
    37   6 C        2.904    -0.041    29.012     8.832
    38   6 C        2.908    -0.051    29.257     8.869
    39   1 H        0.925     0.005     2.974     2.697
    40   1 H        0.925     0.000     3.050     2.731
    41   1 H        0.926     0.064     2.148     2.292
    42   1 H        0.926     0.039     2.466     2.456
    43   1 H        0.926     0.036     2.506     2.476
    44   1 H        0.926     0.034     2.524     2.484
    45   1 H        0.926     0.033     2.540     2.492
    46   1 H        0.926     0.032     2.558     2.501
    47   1 H        0.926     0.048     2.350     2.397
    48   1 H        0.926     0.055     2.255     2.348
    49   1 H        0.926     0.032     2.555     2.500
    50   1 H        0.926     0.038     2.482     2.464
    51   1 H        0.926     0.038     2.475     2.460
    52   1 H        0.926     0.033     2.545     2.495
    53   1 H        0.926     0.031     2.574     2.509
    54   1 H        0.926     0.030     2.589     2.516
    55   1 H        0.926     0.029     2.597     2.520
    56   1 H        0.926     0.061     2.187     2.313
    57   1 H        0.925     0.014     2.827     2.629
    58   1 H        0.925     0.014     2.820     2.626
    59   1 H        0.926     0.018     2.768     2.602
    60   1 H        0.926     0.028     2.613     2.528
    61   1 H        0.925     0.005     2.977     2.698
    62   1 H        0.925     0.006     2.960     2.691

molecular dipole:
                 x           y           z       tot (Debye)
 q only:       -0.961       2.417       0.128
   full:       -0.994       2.680       0.272       7.299

 projected vibrational frequencies (cm⁻¹)
eigval :       -0.00    -0.00    -0.00     0.00     0.00     0.00
eigval :       20.09    24.43    37.60    40.62    46.03    48.93
eigval :       62.34    81.61    90.88   103.38   108.16   124.05
eigval :      146.09   170.89   190.85   196.50   209.23   216.19
eigval :      230.85   263.97   277.56   317.27   322.29   326.49
eigval :      333.32   360.34   370.76   371.39   373.31   380.94
eigval :      401.73   413.49   431.55   437.91   447.39   472.07
eigval :      482.81   488.17   505.50   515.28   517.73   553.43
eigval :      566.78   569.33   583.42   586.72   588.85   602.03
eigval :      611.85   628.92   641.83   651.28   660.05   664.91
eigval :      672.78   674.29   675.55   698.40   714.87   721.94
eigval :      733.45   745.82   756.56   757.75   775.06   803.11
eigval :      805.22   813.60   850.32   860.59   863.00   873.92
eigval :      875.51   882.70   884.59   895.29   899.12   902.15
eigval :      903.95   905.87   921.03   929.41   929.71   930.73
eigval :      932.47   933.01   944.48   964.80   968.71   971.36
eigval :      984.08   988.80   993.40  1047.62  1061.54  1074.60
eigval :     1084.73  1087.36  1095.70  1104.57  1121.79  1124.20
eigval :     1126.52  1146.62  1162.56  1176.71  1182.55  1183.35
eigval :     1184.63  1195.62  1202.64  1203.93  1206.28  1225.42
eigval :     1227.75  1239.21  1248.71  1258.27  1278.36  1282.28
eigval :     1283.12  1284.79  1286.79  1296.22  1305.29  1315.65
eigval :     1319.25  1321.37  1329.83  1345.76  1356.87  1367.17
eigval :     1403.96  1408.64  1417.18  1421.09  1429.23  1433.19
eigval :     1436.40  1439.31  1454.49  1469.44  1480.09  1488.98
eigval :     1505.46  1517.05  1542.20  1546.14  1575.77  1578.14
eigval :     1582.40  1582.91  1589.46  1592.00  1600.24  1606.86
eigval :     3000.31  3006.11  3024.19  3047.80  3050.05  3060.40
eigval :     3070.66  3071.26  3074.85  3076.21  3079.20  3082.27
eigval :     3083.24  3085.43  3087.72  3089.60  3092.07  3095.26
eigval :     3097.60  3099.79  3108.90  3110.34  3111.74  3123.95

   temp. (K)  partition function   enthalpy   heat capacity  entropy
                                   cal/mol     cal/K/mol   cal/K/mol   J/K/mol
 298.15  VIB  0.256E+12            16360.157    109.147     98.879
         ROT  0.413E+08              888.752      2.981     37.828
         INT  0.106E+20            17248.910    112.128    136.707
         TR   0.102E+29             1481.254      4.968     44.382
         TOT                       18730.1636   117.0957   181.0897   757.6793

       T/K    H(0)-H(T)+PV         H(T)/Eh          T*S/Eh         G(T)/Eh
   ------------------------------------------------------------------------
    298.15    0.298484E-01    0.507084E+00    0.860416E-01    0.421042E+00
   ------------------------------------------------------------------------

         :::::::::::::::::::::::::::::::::::::::::::::::::::::
         ::                  THERMODYNAMIC                  ::
         :::::::::::::::::::::::::::::::::::::::::::::::::::::
         :: total free energy         -93.022946409749 Eh   ::
         ::.................................................::
         :: total energy              -93.443988360909 Eh   ::
         :: zero point energy           0.477235093588 Eh   ::
         :: G(RRHO) w/o ZPVE           -0.056193142428 Eh   ::
         :: G(RRHO) contrib.            0.421041951159 Eh   ::
         :::::::::::::::::::::::::::::::::::::::::::::::::::::

           -------------------------------------------------
          | TOTAL ENERGY              -93.443988360909 Eh   |
          | TOTAL ENTHALPY            -92.936904851747 Eh   |
          | TOTAL FREE ENERGY         -93.022946409749 Eh   |
          | GRADIENT NORM               0.000050167328 Eh/α |
          | HOMO-LUMO GAP               1.011666224065 eV   |
           -------------------------------------------------

 * finished run on 2025/09/10 at 13:10:06.105
