   * xtb version 6.7.1 (edcfbbe) compiled by 'albert@albert-system' on 2024-07-22

   ID    Z sym.   atoms
    1    6 C      1, 2, 4-17, 19-38
    2    5 B      3
    3    7 N      18
    4    1 H      39-62

          program call               : xtb data2507/gas/BN-DBC-Ph2/BN-DBC-Ph2_gas_T1_crest.xyz --gfn 2 --spinpol --tblite --uhf 2 --ohess vtight --parallel 40 --molden --ceasefiles --namespace data2507/gas/BN-DBC-Ph2/BN-DBC-Ph2_gas_T1_finalOpt
 * total energy  :   -93.4028797 Eh     change       -0.1000038E-07 Eh
 * total energy  :   -93.4028883 Eh     change       -0.8580216E-05 Eh
 * total energy  :   -93.4028913 Eh     change       -0.2973739E-05 Eh
 * total energy  :   -93.4028920 Eh     change       -0.7865789E-06 Eh
 * total energy  :   -93.4028923 Eh     change       -0.2774223E-06 Eh
 * total energy  :   -93.4028927 Eh     change       -0.3794561E-06 Eh
 * total energy  :   -93.4028930 Eh     change       -0.3190849E-06 Eh
 * total energy  :   -93.4028933 Eh     change       -0.2761550E-06 Eh
 * total energy  :   -93.4028935 Eh     change       -0.2112313E-06 Eh
 * total energy  :   -93.4028937 Eh     change       -0.1682373E-06 Eh
 * total energy  :   -93.4028938 Eh     change       -0.1305584E-06 Eh
 * total energy  :   -93.4028939 Eh     change       -0.8656714E-07 Eh
   *** GEOMETRY OPTIMIZATION CONVERGED AFTER 12 ITERATIONS ***

 final structure:
================
62
 xtb: 6.7.1 (edcfbbe)
C            2.16517479560536       -4.49773317271911        1.86862110799790
C            1.07125604930276       -4.61155219627949        1.06213243791579
B            0.45973826064757       -3.34525668458149        0.45889278511084
C            1.21731409228996       -2.01978391163203        0.72802403746788
C            0.70212240089262       -0.79864098969163        0.21559221883125
C           -0.62818845893191       -0.75905780287025       -0.22776482022115
C           -1.35001616101447        0.46806363900895       -0.08144009847815
C           -2.73012907073912        0.50194214031631       -0.00469357542888
C           -3.46692347397741        1.66255750727979        0.26877623426455
C           -4.91285031587077        1.66304674677095        0.31119641048415
C           -5.62432819692901        2.60492724494909        1.06827817277054
C           -7.00300511693942        2.60253669167148        1.09522223916589
C           -7.71978552960860        1.66492779580710        0.36774899793263
C           -7.03434872923643        0.72540979292455       -0.38737132225697
C           -5.65606924094603        0.72151889352711       -0.41669774998795
C           -2.68952301930668        2.82136456487105        0.54443643059628
C           -1.34049436313039        2.78322078408331        0.50270056770638
N           -0.62900665117446        1.64756921267733        0.16970481541009
C            0.74846983032513        1.66637475874797        0.05534943524866
C            1.46859472769594        2.84877435546081       -0.13878638851774
C            2.84496347786319        2.82837112767932       -0.24450696580690
C            3.55240364344918        1.63054702101714       -0.20005483127557
C            5.01193244839918        1.60146009452372       -0.33167052220433
C            5.77439833374755        0.69726868314870        0.40780178857952
C            7.15068428397389        0.67196299088553        0.28995663786045
C            7.79359120514381        1.54520765559396       -0.57176895790686
C            7.04780888899370        2.44525999195403       -1.31489234679310
C            5.67160907426487        2.47514458529490       -1.19571348795488
C            2.82982721915909        0.44715801270047       -0.03648697179157
C            1.45136363489884        0.44512948160061        0.13058506553272
C           -1.26765529757923       -1.94790426233899       -0.77195241240388
C           -2.24622582952417       -1.82330928772919       -1.76298782663629
C           -2.84763826234278       -2.93946930973974       -2.31441132796710
C           -2.47018799814169       -4.20721263809946       -1.90015958225821
C           -1.44563744137711       -4.34290384702332       -0.98214744318643
C           -0.80865005947417       -3.23658932027104       -0.41636347585524
C            2.29257536829439       -2.05247927569853        1.62432000364651
C            2.74539374561383       -3.24195806826123        2.15803600851478
H            2.61569856348215       -5.36941144754767        2.32869783506871
H            0.66291514272291       -5.60416698192282        0.91625962616161
H           -3.25376243822395       -0.43596429362854       -0.08391589003643
H           -5.08941284383744        3.32820912857221        1.66557916150261
H           -7.52700159270437        3.33515394905715        1.69270246481902
H           -8.79926150690824        1.66633240795203        0.38906225097586
H           -7.58318812928408       -0.00673913656121       -0.96263491001442
H           -5.14521597108207       -0.00365599102271       -1.03263856323606
H           -3.17019465118722        3.75165411124936        0.79892651233212
H           -0.75364254424573        3.64568808527834        0.76717809625635
H            0.96026034707572        3.79468742131673       -0.23642734494619
H            3.37498614992919        3.76148383102236       -0.36336092199676
H            5.28453397602186        0.02387058729529        1.09590432660365
H            7.72643967463455       -0.03073485992735        0.87500664290528
H            8.86936828620954        1.52390809207600       -0.66441891484076
H            7.54239649055438        3.12534006596550       -1.99350187589365
H            5.09757754595247        3.16662938194709       -1.79526741573830
H            3.34964007255512       -0.49621085538103       -0.09104547803181
H           -2.50571545557622       -0.84503513333806       -2.14206579161859
H           -3.60794392429209       -2.81852484063534       -3.07263184737730
H           -2.95625001794302       -5.07996169252475       -2.31162157840073
H           -1.11909970414528       -5.33169170722931       -0.69519266855319
H            2.76296187470239       -1.13358238487524        1.95124848387783
H            3.58813596897245       -3.21720966939702        2.83665157297556

 projected vibrational frequencies (cm⁻¹)
eigval :       -0.00    -0.00    -0.00     0.00     0.00     0.00
eigval :       17.67    28.55    34.70    38.31    46.79    49.71
eigval :       63.54    76.80    81.22    99.42   103.73   123.39
eigval :      134.88   164.62   175.44   178.91   198.36   221.24
eigval :      232.01   250.00   254.20   306.18   311.88   322.11
eigval :      337.12   346.66   357.97   370.79   372.25   377.77
eigval :      386.01   401.72   420.99   428.43   441.70   454.31
eigval :      459.06   473.11   497.53   499.84   508.85   530.29
eigval :      544.44   567.62   574.16   579.01   587.17   589.97
eigval :      600.78   618.84   622.53   633.29   649.69   656.37
eigval :      658.25   669.63   671.34   686.85   701.05   709.51
eigval :      715.91   730.41   745.22   755.70   769.00   777.94
eigval :      796.74   809.06   842.91   855.26   859.06   861.53
eigval :      873.24   879.33   880.17   882.25   895.09   895.96
eigval :      898.08   902.75   920.05   922.80   924.33   924.85
eigval :      927.31   930.42   930.51   936.85   944.34   963.70
eigval :      976.78   983.79   987.91  1044.97  1056.06  1067.89
eigval :     1084.15  1086.39  1093.19  1100.69  1111.89  1123.98
eigval :     1125.54  1135.69  1146.87  1163.95  1176.40  1182.17
eigval :     1182.85  1183.62  1190.62  1195.24  1203.30  1209.17
eigval :     1218.75  1241.05  1243.58  1253.86  1261.05  1272.64
eigval :     1283.53  1288.91  1289.64  1294.87  1304.76  1313.86
eigval :     1320.85  1324.68  1326.94  1338.00  1340.72  1350.09
eigval :     1370.74  1373.75  1394.43  1396.14  1413.01  1424.48
eigval :     1433.71  1438.97  1445.65  1448.90  1452.27  1470.50
eigval :     1473.82  1485.73  1534.39  1539.03  1544.28  1550.65
eigval :     1557.14  1563.25  1577.47  1582.75  1597.35  1610.26
eigval :     3029.15  3040.17  3045.84  3062.77  3066.24  3067.49
eigval :     3068.81  3070.06  3071.67  3072.22  3080.70  3080.80
eigval :     3082.89  3083.62  3084.86  3086.44  3087.96  3091.85
eigval :     3092.29  3100.18  3104.49  3109.58  3120.45  3128.54

   temp. (K)  partition function   enthalpy   heat capacity  entropy
                                   cal/mol     cal/K/mol   cal/K/mol   J/K/mol
 298.15  VIB  0.555E+12            16717.485    110.708    101.418
         ROT  0.416E+08              888.752      2.981     37.845
         INT  0.231E+20            17606.237    113.688    139.264
         TR   0.102E+29             1481.254      4.968     44.382
         TOT                       19087.4912   118.6566   183.6457   768.3737

       T/K    H(0)-H(T)+PV         H(T)/Eh          T*S/Eh         G(T)/Eh
   ------------------------------------------------------------------------
    298.15    0.304179E-01    0.504591E+00    0.872560E-01    0.417335E+00
   ------------------------------------------------------------------------

         :::::::::::::::::::::::::::::::::::::::::::::::::::::
         ::                  THERMODYNAMIC                  ::
         :::::::::::::::::::::::::::::::::::::::::::::::::::::
         :: total free energy         -92.985559000433 Eh   ::
         ::.................................................::
         :: total energy              -93.402893941857 Eh   ::
         :: zero point energy           0.474173099465 Eh   ::
         :: G(RRHO) w/o ZPVE           -0.056838158041 Eh   ::
         :: G(RRHO) contrib.            0.417334941424 Eh   ::
         :::::::::::::::::::::::::::::::::::::::::::::::::::::

           -------------------------------------------------
          | TOTAL ENERGY              -93.402893941857 Eh   |
          | TOTAL ENTHALPY            -92.898302988930 Eh   |
          | TOTAL FREE ENERGY         -92.985559000433 Eh   |
          | GRADIENT NORM               0.000077247337 Eh/α |
           -------------------------------------------------

 * finished run on 2025/09/10 at 13:15:20.762
