   * xtb version 6.7.1 (edcfbbe) compiled by 'albert@albert-system' on 2024-07-22

   ID    Z sym.   atoms
    1    6 C      1, 2, 4-11, 13, 15, 16, 19-21, 23-28, 30-39
    2    7 N      3, 22
    3    8 O      12, 14, 17, 18
    4   16 S      29
    5    1 H      40-63

          program call               : xtb data2507/toluene/VBC-PTZ/VBC-PTZ_toluene_T1_crest.xyz --gfn 2 --uhf 2 --gbsa toluene --ohess vtight --parallel 40 --molden --ceasefiles --namespace data2507/toluene/VBC-PTZ/VBC-PTZ_toluene_T1_finalOpt
      * Solvation model:               GBSA
        Solvent                        toluene
        Solvent mass                       9.2140E+01 g/mol
          :  Hamiltonian                  GFN2-xTB          :
 * total energy  :  -106.1937725 Eh     change       -0.4116004E-08 Eh
 * total energy  :  -106.1942482 Eh     change       -0.4757818E-03 Eh
 * total energy  :  -106.1943753 Eh     change       -0.1270266E-03 Eh
 * total energy  :  -106.1943953 Eh     change       -0.2001415E-04 Eh
 * total energy  :  -106.1944079 Eh     change       -0.1264935E-04 Eh
 * total energy  :  -106.1944182 Eh     change       -0.1029128E-04 Eh
 * total energy  :  -106.1944245 Eh     change       -0.6230230E-05 Eh
 * total energy  :  -106.1944311 Eh     change       -0.6625271E-05 Eh
 * total energy  :  -106.1944335 Eh     change       -0.2414782E-05 Eh
 * total energy  :  -106.1944361 Eh     change       -0.2579626E-05 Eh
 * total energy  :  -106.1944484 Eh     change       -0.3098251E-05 Eh
 * total energy  :  -106.1944505 Eh     change       -0.2051244E-05 Eh
 * total energy  :  -106.1944520 Eh     change       -0.1565474E-05 Eh
 * total energy  :  -106.1944535 Eh     change       -0.1516280E-05 Eh
 * total energy  :  -106.1944547 Eh     change       -0.1153262E-05 Eh
 * total energy  :  -106.1944553 Eh     change       -0.6461109E-06 Eh
 * total energy  :  -106.1944558 Eh     change       -0.4357958E-06 Eh
 * total energy  :  -106.1944562 Eh     change       -0.4294220E-06 Eh
 * total energy  :  -106.1944562 Eh     change       -0.1003221E-07 Eh
   *** GEOMETRY OPTIMIZATION CONVERGED AFTER 22 ITERATIONS ***

 final structure:
================
63
 xtb: 6.7.1 (edcfbbe)
C            8.06894333957242        0.85767547963451       -2.11098911935718
C            7.77933326178196        1.42328967674685       -0.71771680769089
N            6.47219355780085        2.03276392803486       -0.63605211251071
C            6.41711926149818        3.44609005260215       -0.93398074326912
C            6.60179047390279        4.31143398267304        0.31576065549838
C            5.35402064204083        1.31491169858084       -0.33327083364642
C            4.11389480334618        1.93988213723569       -0.08647786406314
C            2.97764831834543        1.21056108368006        0.16172751293843
C            2.98006976676263       -0.19669071702938        0.17277367938965
C            4.24324549066299       -0.81130131117830        0.04794371014619
C            5.38669997946844       -0.08948223250657       -0.21977964117104
O            4.40357128880638       -2.16589815624466        0.16762110641614
C            3.39828447277966       -2.96222097779006        0.69040277022930
O            3.73139525914167       -4.10770144417332        0.95060301446320
C            2.09867219140228       -2.38278218536444        0.81645639238814
C            1.05635429150621       -3.18797004940071        1.36980931656112
O            1.14771025909991       -4.30954246691521        1.84089027771515
O           -0.21323058051586       -2.63573298917680        1.41969986224448
C           -0.51669189923735       -1.48185955423586        0.74959176325967
C           -1.85696243515540       -1.16828312637271        0.64667794268648
C           -2.24676444509316       -0.02046681651446       -0.04614065707786
N           -3.63519065936234        0.31156650266195       -0.14456845189795
C           -4.16813938014468        1.11645342377166        0.84303246537652
C           -3.34527800256505        1.56748133623718        1.88689451382282
C           -3.83285516823845        2.37655133735426        2.88963346033292
C           -5.16541982599745        2.77209194660751        2.89289151443857
C           -5.99581023547444        2.34339757633128        1.87920090622617
C           -5.51171878314930        1.52514292363475        0.86298767148065
S           -6.67451831676792        1.05254505320104       -0.36491175521670
C           -5.70782591665618        0.04042810804741       -1.42485088819439
C           -6.37367477878081       -0.50995920269072       -2.51582099335975
C           -5.70696709293286       -1.31709012041528       -3.41295664387632
C           -4.35557434740734       -1.57586494185778       -3.21594947977597
C           -3.68875122888421       -1.03455810643646       -2.13884072407758
C           -4.34281646211319       -0.21116411704939       -1.20903877913035
C           -1.28763590934271        0.77616741585775       -0.66335011848572
C            0.04782246506904        0.46650684752879       -0.54740830168260
C            0.48646472275624       -0.64673079172477        0.20315833685577
C            1.84041050908233       -1.03607880467355        0.38418363470099
H            7.34646770499226        0.08818132689499       -2.37025756089307
H            8.01750511316453        1.64332822389199       -2.86076095113308
H            9.06449802987013        0.42287177811956       -2.13076555086262
H            7.86656996516001        0.63489071808301        0.03227626125719
H            8.52096776528862        2.18978383365304       -0.48017849964864
H            5.46860617005752        3.68210529128764       -1.41960638607291
H            7.21733540053543        3.66928913439039       -1.64391157496552
H            5.82528400314772        4.10410774350211        1.04703973902190
H            6.55718944031145        5.36224762140500        0.04315771291935
H            7.56573087099416        4.11386119056577        0.77793468674757
H            4.03787362058015        3.01331220169108       -0.06298212799727
H            2.06567142401285        1.73184356043579        0.40043105715398
H            6.29297663807883       -0.65740689353093       -0.33888168971558
H           -2.58515181816975       -1.82244691964737        1.09953152707144
H           -2.31063526000577        1.26662497118700        1.90014503765114
H           -3.16889100060168        2.70026712375719        3.67584266753812
H           -5.54870402614874        3.40479662827782        3.67714126038904
H           -7.03510966398161        2.63269406324117        1.85509549504516
H           -7.42274626105952       -0.29073814750330       -2.64212200657818
H           -6.23015625391307       -1.74068182781028       -4.25498368416195
H           -3.81691023367352       -2.20576273390446       -3.90650807810167
H           -2.64166238860052       -1.24799435603242       -1.99976361162257
H           -1.59790341401966        1.63385484374372       -1.24085288142610
H            0.77375253807106        1.05390310593355       -1.08261202760406

          :  Hamiltonian                  GFN2-xTB          :
         :: gradient norm              0.000061247592 Eh/a0 ::
         :: HOMO-LUMO gap              0.716484639704 eV    ::
         :: SCC energy              -107.793019061954 Eh    ::
         :: -> dispersion             -0.085003650693 Eh    ::
         :: -> Gsolv                  -0.085396187577 Eh    ::
         :: repulsion energy           1.598562848675 Eh    ::

    * Orbital Energies and Occupations

         #    Occupation            Energy/Eh            Energy/eV
      -------------------------------------------------------------
         1        2.0000           -0.7546393             -20.5348
       ...           ...                  ...                  ...
        85        2.0000           -0.4379666             -11.9177
        86        2.0000           -0.4365889             -11.8802
        87        2.0000           -0.4295132             -11.6876
        88        2.0000           -0.4241352             -11.5413
        89        2.0000           -0.4102052             -11.1623
        90        2.0000           -0.4082168             -11.1081
        91        2.0000           -0.4073704             -11.0851
        92        2.0000           -0.4007018             -10.9037
        93        2.0000           -0.3935271             -10.7084
        94        2.0000           -0.3869689             -10.5300
        95        1.6036           -0.3673877              -9.9971
        96        1.3964           -0.3665885              -9.9754
        97        1.0000           -0.2962277              -8.0608 (HOMO)
        98        0.0000           -0.2698977              -7.3443 (LUMO)
        99                         -0.2534307              -6.8962
       100                         -0.2489728              -6.7749
       101                         -0.2472471              -6.7279
       102                         -0.2371203              -6.4524
       103                         -0.2295385              -6.2461
       104                         -0.2241865              -6.1004
       105                         -0.2233044              -6.0764
       106                         -0.2101826              -5.7194
       107                         -0.1962086              -5.3391
       108                         -0.1596827              -4.3452
       ...                                ...                  ...
       185                          0.7132632              19.4089
      -------------------------------------------------------------
                  HL-Gap            0.0263300 Eh            0.7165 eV

     #   Z          covCN         q      C6AA      α(0)
     1   6 C        3.751    -0.115    22.764     6.804
     2   6 C        3.747    -0.012    20.849     6.513
     3   7 N        2.738    -0.026    21.749     6.926
     4   6 C        3.747    -0.013    20.877     6.517
     5   6 C        3.751    -0.117    22.795     6.809
     6   6 C        2.907     0.065    26.541     8.448
     7   6 C        2.918    -0.061    29.521     8.910
     8   6 C        2.919    -0.046    29.143     8.853
     9   6 C        2.972    -0.016    28.410     8.743
    10   6 C        2.871     0.137    25.008     8.198
    11   6 C        2.919    -0.077    29.913     8.969
    12   8 O        1.708    -0.294    18.884     5.867
    13   6 C        2.717     0.333    21.346     7.563
    14   8 O        0.857    -0.493    23.636     6.518
    15   6 C        2.959    -0.115    30.910     9.119
    16   6 C        2.716     0.334    21.330     7.560
    17   8 O        0.857    -0.491    23.591     6.512
    18   8 O        1.708    -0.292    18.855     5.863
    19   6 C        2.872     0.134    25.062     8.207
    20   6 C        2.915    -0.066    29.654     8.930
    21   6 C        2.934     0.036    27.195     8.552
    22   7 N        2.750    -0.011    21.465     6.881
    23   6 C        2.944     0.063    26.583     8.456
    24   6 C        2.925    -0.046    29.131     8.851
    25   6 C        2.918    -0.021    28.535     8.760
    26   6 C        2.917    -0.025    28.625     8.773
    27   6 C        2.992    -0.034    28.835     8.809
    28   6 C        2.969     0.029    27.350     8.578
    29  16 S        2.154     0.004   140.899    19.978
    30   6 C        2.969     0.029    27.355     8.579
    31   6 C        2.993    -0.034    28.837     8.809
    32   6 C        2.917    -0.025    28.625     8.774
    33   6 C        2.918    -0.021    28.536     8.760
    34   6 C        2.925    -0.046    29.130     8.851
    35   6 C        2.944     0.063    26.582     8.456
    36   6 C        2.914    -0.048    29.186     8.859
    37   6 C        2.921    -0.052    29.291     8.875
    38   6 C        2.971    -0.019    28.467     8.752
    39   6 C        2.975    -0.018    28.461     8.751
    40   1 H        0.925     0.048     2.340     2.392
    41   1 H        0.925     0.053     2.280     2.361
    42   1 H        0.925     0.055     2.255     2.348
    43   1 H        0.924     0.058     2.222     2.331
    44   1 H        0.924     0.068     2.107     2.270
    45   1 H        0.924     0.065     2.146     2.291
    46   1 H        0.924     0.068     2.110     2.271
    47   1 H        0.925     0.052     2.294     2.369
    48   1 H        0.925     0.058     2.217     2.329
    49   1 H        0.925     0.051     2.308     2.376
    50   1 H        0.926     0.064     2.156     2.296
    51   1 H        0.926     0.058     2.220     2.330
    52   1 H        0.926     0.059     2.206     2.322
    53   1 H        0.926     0.051     2.312     2.378
    54   1 H        0.926     0.057     2.235     2.338
    55   1 H        0.926     0.059     2.208     2.324
    56   1 H        0.926     0.062     2.174     2.306
    57   1 H        0.926     0.065     2.140     2.288
    58   1 H        0.926     0.065     2.140     2.287
    59   1 H        0.926     0.062     2.179     2.308
    60   1 H        0.926     0.057     2.229     2.335
    61   1 H        0.926     0.055     2.261     2.351
    62   1 H        0.926     0.054     2.265     2.353
    63   1 H        0.926     0.060     2.202     2.320

molecular dipole:
                 x           y           z       tot (Debye)
 q only:       -2.964       9.091      -2.982
   full:       -2.736       8.744      -2.887      24.417

 projected vibrational frequencies (cm⁻¹)
eigval :       -0.00    -0.00     0.00     0.00     0.00     0.00
eigval :       11.71    17.62    19.24    28.90    34.70    41.08
eigval :       54.62    65.24    74.34    86.84    92.95    97.48
eigval :      101.15   114.64   132.94   144.22   169.19   176.08
eigval :      183.40   191.27   210.41   224.35   226.74   232.19
eigval :      241.74   259.11   264.15   290.73   302.96   316.47
eigval :      332.30   338.09   348.87   376.48   385.60   394.13
eigval :      408.24   418.30   418.70   424.14   426.20   436.87
eigval :      444.44   457.05   476.03   477.97   489.57   498.99
eigval :      515.91   523.97   534.61   550.19   563.92   585.11
eigval :      600.83   609.31   631.79   637.17   649.38   655.94
eigval :      657.55   657.93   666.43   675.92   684.94   704.22
eigval :      706.41   717.42   735.50   769.31   774.59   798.26
eigval :      817.50   821.83   825.20   832.58   836.46   853.09
eigval :      862.91   865.36   869.60   885.19   897.90   904.08
eigval :      907.09   909.45   910.34   923.04   923.22   926.18
eigval :      928.82   973.45   987.10   994.94  1044.09  1048.53
eigval :     1053.89  1071.31  1073.62  1075.90  1090.40  1095.73
eigval :     1096.33  1105.28  1130.00  1148.21  1151.80  1157.24
eigval :     1162.38  1175.08  1178.45  1189.87  1205.48  1208.13
eigval :     1219.62  1228.91  1235.04  1243.81  1248.40  1258.68
eigval :     1265.50  1274.19  1292.84  1295.95  1314.79  1315.52
eigval :     1329.13  1331.39  1333.44  1333.82  1352.37  1376.73
eigval :     1392.84  1395.58  1399.77  1403.25  1406.86  1419.42
eigval :     1422.86  1437.92  1451.20  1455.03  1467.31  1469.96
eigval :     1480.14  1480.86  1489.63  1491.85  1493.36  1494.95
eigval :     1513.58  1535.46  1549.87  1550.58  1563.13  1566.95
eigval :     1575.61  1604.45  1688.41  2965.67  2970.77  2982.14
eigval :     2984.70  3042.03  3044.31  3049.18  3050.81  3051.17
eigval :     3053.06  3089.47  3096.06  3096.72  3099.25  3099.51
eigval :     3105.58  3111.73  3111.77  3112.37  3121.92  3122.10
eigval :     3126.11  3127.92  3132.68

   temp. (K)  partition function   enthalpy   heat capacity  entropy
                                   cal/mol     cal/K/mol   cal/K/mol   J/K/mol
 298.15  VIB  0.415E+15            19196.422    119.395    119.041
         ROT  0.572E+08              888.752      2.981     38.477
         INT  0.237E+23            20085.175    122.376    157.518
         TR   0.119E+29             1481.254      4.968     44.683
         TOT                       21566.4287   127.3440   202.2017   846.0117

       T/K    H(0)-H(T)+PV         H(T)/Eh          T*S/Eh         G(T)/Eh
   ------------------------------------------------------------------------
    298.15    0.343683E-01    0.505676E+00    0.960725E-01    0.409603E+00
   ------------------------------------------------------------------------

         :::::::::::::::::::::::::::::::::::::::::::::::::::::
         ::                  THERMODYNAMIC                  ::
         :::::::::::::::::::::::::::::::::::::::::::::::::::::
         :: total free energy        -105.784852970590 Eh   ::
         ::.................................................::
         :: total energy             -106.194456212982 Eh   ::
         :: zero point energy           0.471307480934 Eh   ::
         :: G(RRHO) w/o ZPVE           -0.061704238542 Eh   ::
         :: G(RRHO) contrib.            0.409603242392 Eh   ::
         :::::::::::::::::::::::::::::::::::::::::::::::::::::

           -------------------------------------------------
          | TOTAL ENERGY             -106.194456212982 Eh   |
          | TOTAL ENTHALPY           -105.688780440321 Eh   |
          | TOTAL FREE ENERGY        -105.784852970590 Eh   |
          | GRADIENT NORM               0.000060876144 Eh/α |
          | HOMO-LUMO GAP               0.716475885635 eV   |
           -------------------------------------------------

 * finished run on 2025/09/13 at 19:15:59.855
