   * xtb version 6.7.1 (edcfbbe) compiled by 'albert@albert-system' on 2024-07-22

   ID    Z sym.   atoms
    1    6 C      1, 2, 4-11, 13, 15, 16, 19-21, 23-28, 30-39
    2    7 N      3, 22
    3    8 O      12, 14, 17, 18
    4   16 S      29
    5    1 H      40-63

          program call               : xtb data2507/toluene/VBC-PTZ/VBC-PTZ_toluene_S0_finalOpt.xtbopt.xyz --gfn 2 --uhf 2 --gbsa toluene --ohess vtight --parallel 40 --molden --ceasefiles --namespace data2507/toluene/VBC-PTZ/VBC-PTZ_toluene_T1_preOpt
      * Solvation model:               GBSA
        Solvent                        toluene
        Solvent mass                       9.2140E+01 g/mol
          :  Hamiltonian                  GFN2-xTB          :
 * total energy  :  -106.1830317 Eh     change       -0.6707704E-07 Eh
 * total energy  :  -106.1852458 Eh     change       -0.2214118E-02 Eh
 * total energy  :  -106.1859264 Eh     change       -0.6805484E-03 Eh
 * total energy  :  -106.1860188 Eh     change       -0.9241820E-04 Eh
 * total energy  :  -106.1860964 Eh     change       -0.7762604E-04 Eh
 * total energy  :  -106.1861701 Eh     change       -0.7365000E-04 Eh
 * total energy  :  -106.1862108 Eh     change       -0.4075626E-04 Eh
 * total energy  :  -106.1862406 Eh     change       -0.2975523E-04 Eh
 * total energy  :  -106.1862560 Eh     change       -0.1541122E-04 Eh
 * total energy  :  -106.1862668 Eh     change       -0.1081808E-04 Eh
 * total energy  :  -106.1863038 Eh     change       -0.5433883E-06 Eh
 * total energy  :  -106.1863040 Eh     change       -0.2238246E-06 Eh
 * total energy  :  -106.1863045 Eh     change       -0.5473157E-06 Eh
 * total energy  :  -106.1863048 Eh     change       -0.2616571E-06 Eh
 * total energy  :  -106.1863050 Eh     change       -0.1921262E-06 Eh
 * total energy  :  -106.1863052 Eh     change       -0.2168943E-06 Eh
 * total energy  :  -106.1863054 Eh     change       -0.1491924E-06 Eh
 * total energy  :  -106.1863054 Eh     change       -0.1392982E-07 Eh
 * total energy  :  -106.1863054 Eh     change       -0.6911762E-07 Eh
   *** GEOMETRY OPTIMIZATION CONVERGED AFTER 29 ITERATIONS ***

 final structure:
================
63
 xtb: 6.7.1 (edcfbbe)
C            8.66289031928532       -0.70357579935195        0.48473412888501
C            7.76399993631303       -1.49627189571486       -0.46883860639076
N            6.55515598288483       -1.95615311327633        0.17327272872952
C            6.63161965963456       -3.25496378145440        0.80153109613772
C            6.20795692577129       -4.38186314034610       -0.14525902732102
C            5.41058561629051       -1.21604081555732        0.17705339609004
C            4.18630096512135       -1.73527326100066        0.64779236432003
C            3.02801379804465       -0.99947411985470        0.60194716513183
C            2.99068834737890        0.30517783004958        0.07191491376098
C            4.23654093607269        0.85695040302301       -0.29963567952310
C            5.40090373615149        0.12233969156951       -0.27023052423372
O            4.35631668033133        2.15549641756655       -0.71728154201184
C            3.32324372096877        3.06283847108883       -0.55674533496065
O            3.61854583111736        4.22486070560437       -0.78529798780894
C            2.04275719532340        2.54529976186871       -0.18928720450184
C            0.97453799297741        3.47469617764443        0.00672780889124
O            1.03283211397631        4.69297294862312       -0.02629247797570
O           -0.27432246691002        2.95787009977838        0.30546084697011
C           -0.54096766841299        1.61944781574374        0.19253727808061
C           -1.86650784375408        1.25787327336670        0.28579023707921
C           -2.25396327506521       -0.08886887026380        0.17410098693478
N           -3.58817784920797       -0.46027113497041        0.27825220723667
C           -4.01710616961208       -1.78428638002163        0.10076182848793
C           -3.43499451680659       -2.83866101002091        0.80664840645241
C           -3.86476155284427       -4.13513924956008        0.60755315981948
C           -4.88902172078026       -4.40623396424509       -0.29099632459174
C           -5.51018830685808       -3.36933062474758       -0.95951502238798
C           -5.08931693707739       -2.06241428987961       -0.75342077401594
S           -5.91485413038157       -0.73570162732925       -1.58108249041609
C           -5.76082638934373        0.45674192259200       -0.28671085553327
C           -6.77895383646466        1.37698261028415       -0.07967015169614
C           -6.68117962467517        2.29051014468843        0.95200866986210
C           -5.57977214287885        2.26329256411570        1.79773567897220
C           -4.56062652953289        1.35549636759804        1.58979632151119
C           -4.61688604203483        0.46236679642267        0.51847350519809
C           -1.26255714601528       -1.01861316030777       -0.17719416136219
C            0.05774642373292       -0.65223233242473       -0.26267553965136
C            0.48603271930003        0.66757721758336       -0.00453252029074
C            1.82988362655685        1.12958693836068       -0.03815429513812
H            8.95134983687088       -1.31419085094904        1.33667389301209
H            9.56237859770278       -0.38908801608776       -0.03731599417878
H            8.14775738955193        0.17903793150910        0.85483008682753
H            7.51010863372738       -0.88639875980896       -1.33755663598303
H            8.30852306062082       -2.37423467932848       -0.82564362419217
H            6.01488076236387       -3.26601850641680        1.70199052765746
H            7.66756095436453       -3.41660992280749        1.10811104066578
H            6.28512964622777       -5.33740253576333        0.36601197829570
H            6.85047115128769       -4.40462803299155       -1.02187271323294
H            5.18304043628324       -4.24094554303189       -0.47699730248057
H            4.13149446267483       -2.73208613225395        1.05017175885399
H            2.12638932676703       -1.41769922126668        1.01649705956491
H            6.29697278293036        0.63227491849783       -0.57845411280138
H           -2.58425037328622        2.05010432167674        0.41577133066229
H           -2.65463895779446       -2.62175844929429        1.51953369378438
H           -3.40393226856553       -4.93841588214666        1.16100675414388
H           -5.21626818081317       -5.42105889921005       -0.45278216752561
H           -6.32657549084801       -3.55556382070981       -1.63936124346743
H           -7.64092750645811        1.36114946132848       -0.72825844453697
H           -7.47081565634427        3.00774671718849        1.11081336477567
H           -5.51764270449170        2.94992940284924        2.62767183422923
H           -3.71587472409283        1.31835464687504        2.26009709567103
H           -1.53198777514562       -2.03304535817022       -0.42169416769619
H            0.78097780239707       -1.37937267776341       -0.59072298142704

          :  Hamiltonian                  GFN2-xTB          :
         :: gradient norm              0.000132698484 Eh/a0 ::
         :: HOMO-LUMO gap              0.953962540083 eV    ::
         :: SCC energy              -107.783704684200 Eh    ::
         :: -> dispersion             -0.085005685075 Eh    ::
         :: -> Gsolv                  -0.084217241418 Eh    ::
         :: repulsion energy           1.597399252720 Eh    ::

    * Orbital Energies and Occupations

         #    Occupation            Energy/Eh            Energy/eV
      -------------------------------------------------------------
         1        2.0000           -0.7443130             -20.2538
       ...           ...                  ...                  ...
        85        2.0000           -0.4323352             -11.7644
        86        2.0000           -0.4315915             -11.7442
        87        2.0000           -0.4298316             -11.6963
        88        2.0000           -0.4251500             -11.5689
        89        2.0000           -0.4111917             -11.1891
        90        2.0000           -0.4106877             -11.1754
        91        2.0000           -0.4047232             -11.0131
        92        2.0000           -0.4027683             -10.9599
        93        2.0000           -0.3921665             -10.6714
        94        2.0000           -0.3891554             -10.5895
        95        1.5971           -0.3705237             -10.0825
        96        1.4029           -0.3697762             -10.0621
        97        1.0000           -0.2942122              -8.0059 (HOMO)
        98                         -0.2591559              -7.0520 (LUMO)
        99                         -0.2537767              -6.9056
       100                         -0.2519796              -6.8567
       101                         -0.2497108              -6.7950
       102                         -0.2457104              -6.6861
       103                         -0.2307708              -6.2796
       104                         -0.2290830              -6.2337
       105                         -0.2180243              -5.9327
       106                         -0.2083732              -5.6701
       107                         -0.1944244              -5.2906
       108                         -0.1529627              -4.1623
       ...                                ...                  ...
       185                          0.7114293              19.3590
      -------------------------------------------------------------
                  HL-Gap            0.0350563 Eh            0.9539 eV

     #   Z          covCN         q      C6AA      α(0)
     1   6 C        3.751    -0.115    22.766     6.804
     2   6 C        3.747    -0.013    20.876     6.517
     3   7 N        2.738    -0.017    21.587     6.900
     4   6 C        3.747    -0.014    20.896     6.520
     5   6 C        3.751    -0.117    22.808     6.811
     6   6 C        2.907     0.064    26.567     8.452
     7   6 C        2.917    -0.058    29.441     8.898
     8   6 C        2.919    -0.047    29.167     8.856
     9   6 C        2.971    -0.012    28.317     8.729
    10   6 C        2.869     0.137    25.001     8.196
    11   6 C        2.919    -0.075    29.877     8.963
    12   8 O        1.708    -0.291    18.840     5.860
    13   6 C        2.716     0.333    21.335     7.561
    14   8 O        0.857    -0.488    23.532     6.504
    15   6 C        2.959    -0.111    30.817     9.105
    16   6 C        2.716     0.334    21.325     7.559
    17   8 O        0.857    -0.488    23.510     6.501
    18   8 O        1.708    -0.291    18.842     5.861
    19   6 C        2.871     0.136    25.037     8.202
    20   6 C        2.918    -0.074    29.850     8.959
    21   6 C        2.912     0.055    26.777     8.485
    22   7 N        2.750    -0.021    21.661     6.912
    23   6 C        2.973     0.054    26.775     8.488
    24   6 C        2.921    -0.040    28.984     8.829
    25   6 C        2.918    -0.025    28.638     8.775
    26   6 C        2.920    -0.026    28.646     8.777
    27   6 C        2.960    -0.032    28.803     8.803
    28   6 C        2.971     0.033    27.251     8.563
    29  16 S        2.119    -0.058   143.451    20.158
    30   6 C        2.971     0.032    27.274     8.566
    31   6 C        2.962    -0.033    28.826     8.806
    32   6 C        2.920    -0.026    28.654     8.778
    33   6 C        2.918    -0.025    28.636     8.775
    34   6 C        2.921    -0.039    28.975     8.827
    35   6 C        2.973     0.055    26.766     8.486
    36   6 C        2.917    -0.056    29.383     8.889
    37   6 C        2.920    -0.049    29.227     8.865
    38   6 C        2.971    -0.014    28.355     8.735
    39   6 C        2.973    -0.020    28.501     8.757
    40   1 H        0.925     0.054     2.269     2.356
    41   1 H        0.925     0.057     2.236     2.338
    42   1 H        0.925     0.048     2.339     2.392
    43   1 H        0.924     0.061     2.183     2.311
    44   1 H        0.924     0.071     2.078     2.254
    45   1 H        0.924     0.066     2.134     2.285
    46   1 H        0.924     0.070     2.085     2.258
    47   1 H        0.925     0.060     2.200     2.320
    48   1 H        0.925     0.052     2.290     2.367
    49   1 H        0.925     0.055     2.264     2.353
    50   1 H        0.926     0.067     2.123     2.278
    51   1 H        0.926     0.060     2.198     2.318
    52   1 H        0.926     0.062     2.174     2.306
    53   1 H        0.926     0.055     2.254     2.348
    54   1 H        0.926     0.063     2.160     2.298
    55   1 H        0.926     0.062     2.176     2.307
    56   1 H        0.926     0.061     2.183     2.311
    57   1 H        0.926     0.063     2.163     2.300
    58   1 H        0.926     0.062     2.173     2.305
    59   1 H        0.926     0.059     2.210     2.325
    60   1 H        0.926     0.057     2.234     2.338
    61   1 H        0.926     0.059     2.211     2.325
    62   1 H        0.926     0.060     2.204     2.321
    63   1 H        0.926     0.061     2.192     2.315

molecular dipole:
                 x           y           z       tot (Debye)
 q only:       -1.692      -9.690       1.352
   full:       -1.584      -9.328       1.458      24.332

 projected vibrational frequencies (cm⁻¹)
eigval :       -0.00    -0.00     0.00     0.00     0.00     0.00
eigval :       12.12    22.30    28.74    36.50    40.71    55.11
eigval :       60.29    64.92    78.17    88.96    91.19   102.09
eigval :      112.72   136.71   141.64   155.09   157.16   167.92
eigval :      172.82   180.18   205.84   223.05   229.41   235.54
eigval :      256.85   264.72   271.93   289.70   308.96   315.18
eigval :      325.80   342.06   350.59   358.86   376.55   398.17
eigval :      409.69   413.36   421.79   424.58   427.09   440.28
eigval :      446.54   466.07   480.19   489.52   490.59   505.93
eigval :      509.97   525.38   530.58   551.11   569.14   580.96
eigval :      587.45   593.62   629.85   630.41   649.58   655.61
eigval :      657.40   672.73   674.97   682.97   684.51   695.12
eigval :      704.35   714.24   733.80   776.19   779.62   796.97
eigval :      818.28   821.76   825.23   835.65   838.26   845.82
eigval :      862.10   876.48   886.27   893.95   896.35   901.30
eigval :      909.71   918.24   918.96   921.89   927.37   933.69
eigval :      936.34   974.25   987.34   993.96  1041.32  1048.28
eigval :     1048.50  1055.86  1070.61  1072.65  1084.44  1084.77
eigval :     1088.92  1107.50  1138.34  1144.50  1153.16  1159.82
eigval :     1169.07  1171.96  1173.04  1188.01  1205.18  1206.90
eigval :     1221.85  1227.19  1229.96  1237.06  1246.98  1258.06
eigval :     1266.55  1271.43  1283.24  1303.18  1311.00  1313.25
eigval :     1314.57  1319.29  1333.34  1338.73  1354.85  1371.59
eigval :     1391.37  1397.83  1403.10  1404.68  1410.74  1417.62
eigval :     1424.94  1438.10  1440.68  1450.42  1465.15  1465.79
eigval :     1477.92  1480.59  1481.33  1488.08  1491.02  1493.10
eigval :     1497.82  1542.58  1544.83  1550.70  1558.98  1562.69
eigval :     1569.62  1600.01  1680.86  2965.40  2972.99  2984.59
eigval :     2986.43  3043.01  3044.75  3050.98  3053.07  3053.90
eigval :     3053.96  3092.68  3093.34  3097.03  3098.98  3102.73
eigval :     3104.55  3108.38  3110.14  3110.76  3115.04  3123.52
eigval :     3124.73  3128.89  3133.56

   temp. (K)  partition function   enthalpy   heat capacity  entropy
                                   cal/mol     cal/K/mol   cal/K/mol   J/K/mol
 298.15  VIB  0.817E+14            19079.430    120.107    117.699
         ROT  0.568E+08              888.752      2.981     38.465
         INT  0.464E+22            19968.183    123.088    156.164
         TR   0.119E+29             1481.254      4.968     44.683
         TOT                       21449.4364   128.0558   200.8471   840.3443

       T/K    H(0)-H(T)+PV         H(T)/Eh          T*S/Eh         G(T)/Eh
   ------------------------------------------------------------------------
    298.15    0.341819E-01    0.505496E+00    0.954289E-01    0.410067E+00
   ------------------------------------------------------------------------

         :::::::::::::::::::::::::::::::::::::::::::::::::::::
         ::                  THERMODYNAMIC                  ::
         :::::::::::::::::::::::::::::::::::::::::::::::::::::
         :: total free energy        -105.776238682892 Eh   ::
         ::.................................................::
         :: total energy             -106.186305431190 Eh   ::
         :: zero point energy           0.471313833465 Eh   ::
         :: G(RRHO) w/o ZPVE           -0.061247085167 Eh   ::
         :: G(RRHO) contrib.            0.410066748298 Eh   ::
         :::::::::::::::::::::::::::::::::::::::::::::::::::::

           -------------------------------------------------
          | TOTAL ENERGY             -106.186305431190 Eh   |
          | TOTAL ENTHALPY           -105.680809744995 Eh   |
          | TOTAL FREE ENERGY        -105.776238682892 Eh   |
          | GRADIENT NORM               0.000132464781 Eh/α |
          | HOMO-LUMO GAP               0.953930864224 eV   |
           -------------------------------------------------

 * finished run on 2025/09/13 at 19:07:58.819
