   * xtb version 6.7.1 (edcfbbe) compiled by 'albert@albert-system' on 2024-07-22

   ID    Z sym.   atoms
    1    6 C      1, 2, 4-11, 13, 15, 16, 19-21, 23-28, 30-39
    2    7 N      3, 22
    3    8 O      12, 14, 17, 18
    4   16 S      29
    5    1 H      40-63

          program call               : xtb data2507/toluene/VBC-PTZ/VBC-PTZ_toluene_S0_crest.xyz --gfn 2 --gbsa toluene --ohess vtight --parallel 40 --molden --ceasefiles --namespace data2507/toluene/VBC-PTZ/VBC-PTZ_toluene_S0_finalOpt
      * Solvation model:               GBSA
        Solvent                        toluene
        Solvent mass                       9.2140E+01 g/mol
          :  Hamiltonian                  GFN2-xTB          :
 * total energy  :  -106.2547977 Eh     change       -0.1718590E-08 Eh
 * total energy  :  -106.2552916 Eh     change       -0.4939296E-03 Eh
 * total energy  :  -106.2554427 Eh     change       -0.1511507E-03 Eh
 * total energy  :  -106.2554545 Eh     change       -0.1178318E-04 Eh
 * total energy  :  -106.2554610 Eh     change       -0.6502930E-05 Eh
 * total energy  :  -106.2554657 Eh     change       -0.4652425E-05 Eh
 * total energy  :  -106.2554715 Eh     change       -0.5766744E-05 Eh
 * total energy  :  -106.2554737 Eh     change       -0.2238728E-05 Eh
 * total energy  :  -106.2554753 Eh     change       -0.1653333E-05 Eh
 * total energy  :  -106.2554766 Eh     change       -0.1231236E-05 Eh
 * total energy  :  -106.2554794 Eh     change       -0.4955482E-06 Eh
 * total energy  :  -106.2554799 Eh     change       -0.4840351E-06 Eh
 * total energy  :  -106.2554804 Eh     change       -0.5304167E-06 Eh
 * total energy  :  -106.2554809 Eh     change       -0.4638582E-06 Eh
 * total energy  :  -106.2554812 Eh     change       -0.3181629E-06 Eh
 * total energy  :  -106.2554814 Eh     change       -0.2266320E-06 Eh
 * total energy  :  -106.2554816 Eh     change       -0.2011029E-06 Eh
 * total energy  :  -106.2554818 Eh     change       -0.1997402E-06 Eh
 * total energy  :  -106.2554818 Eh     change       -0.7209408E-08 Eh
   *** GEOMETRY OPTIMIZATION CONVERGED AFTER 22 ITERATIONS ***

 final structure:
================
63
 xtb: 6.7.1 (edcfbbe)
C            8.64171027886122       -0.72320474089818        0.52741636223142
C            7.75345366062778       -1.50140301015941       -0.44430929813382
N            6.52440203014869       -1.95555524944537        0.17457152016985
C            6.57439226945542       -3.27494188192777        0.77377211350474
C            6.10108209147874       -4.36634714582241       -0.18734652831910
C            5.40494427952142       -1.20226145407956        0.17826830485785
C            4.17059185011768       -1.69611205547044        0.67418184019681
C            3.02256052132818       -0.95933135216991        0.61638161887360
C            2.99700657793836        0.33698147596152        0.06628634889564
C            4.24656008701015        0.87664633786770       -0.30241737519875
C            5.40489139613941        0.12890354491144       -0.27653791277620
O            4.37314707596443        2.17189167926552       -0.70812869933264
C            3.35084184548878        3.07313194972677       -0.59344848634892
O            3.62706467353393        4.22998077401341       -0.83481238368386
C            2.04457806511471        2.54467908092011       -0.25769845062272
C            0.95610143211272        3.48813962354738       -0.12108994093988
O            1.02380137969968        4.69635548917676       -0.20605371048427
O           -0.27399168945006        2.97486027002163        0.20124353027677
C           -0.53091153505701        1.63975192514029        0.15413751882361
C           -1.85592748028026        1.26544440803891        0.28400934840893
C           -2.22941148861286       -0.07887029756540        0.19438891227264
N           -3.53514907396750       -0.46371755198189        0.33199891908682
C           -3.96951264420013       -1.79558506683512        0.13591536743939
C           -3.44347047173859       -2.84835722794472        0.87728359298381
C           -3.87930316591334       -4.14195720293092        0.65343307288621
C           -4.85809538901231       -4.39541487651074       -0.29532845499182
C           -5.42610377025244       -3.35009436856409       -1.00025738675715
C           -4.98956727467392       -2.05254643619732       -0.77794215579393
S           -5.74649674833355       -0.69705219593928       -1.64035391578856
C           -5.68185951012571        0.46475548437610       -0.30056859033706
C           -6.72484382751631        1.35752613439850       -0.10523133852365
C           -6.68617187194820        2.23327784019550        0.96416113602891
C           -5.62384876750125        2.19509719613619        1.85436676524950
C           -4.58418996932708        1.30316599752633        1.66206365644391
C           -4.58673857724193        0.45408230893970        0.56064021947701
C           -1.22619792212618       -1.00967104265941       -0.14830850344165
C            0.08618989133615       -0.63474032694502       -0.24484383760448
C            0.49401300030513        0.69170230283384       -0.02034463022193
C            1.84642776276359        1.17118391459460       -0.06652144090378
H            8.91060546109044       -1.34273522350443        1.37959948966437
H            9.55345858069245       -0.41127503938270        0.02498349488965
H            8.12814851210159        0.16069959748498        0.89689388941944
H            7.51874972326289       -0.88736995462837       -1.31598242803556
H            8.29283640618229       -2.38239624735838       -0.80055357687509
H            5.97867123226396       -3.28889997534282        1.68872022589419
H            7.61038773285816       -3.46958185207340        1.05917891204832
H            6.16735985568404       -5.33749878337169        0.29574695795968
H            6.72120958504619       -4.38092014977459       -1.08035985685503
H            5.07203318907126       -4.19427976961325       -0.49084952143384
H            4.11692681654520       -2.67713733819565        1.11343479296237
H            2.12201654487216       -1.36086194670087        1.04982680700959
H            6.30503644218367        0.63047585500698       -0.58561865405765
H           -2.58444187747327        2.04835509258781        0.41343605064404
H           -2.69045069583718       -2.64256283294382        1.62270044195852
H           -3.45529703508834       -4.95320850627572        1.22469156704856
H           -5.19299370451972       -5.40522921989414       -0.47466442940487
H           -6.20606332497011       -3.52587315998629       -1.72470235145006
H           -7.55497813637466        1.35727308323068       -0.79470102410750
H           -7.49306146334409        2.93429880061059        1.11118688958362
H           -5.60421167106039        2.86030986969847        2.70384677862353
H           -3.75980621720060        1.26302467937432        2.35780083520035
H           -1.49744450341836       -2.02908460875691       -0.36915335948790
H            0.81519065416527       -1.36261556963493       -0.55855873390142

          :  Hamiltonian                  GFN2-xTB          :
         :: gradient norm              0.000046058972 Eh/a0 ::
         :: HOMO-LUMO gap              1.673178195779 eV    ::
         :: SCC energy              -107.867331334540 Eh    ::
         :: -> dispersion             -0.085164401756 Eh    ::
         :: -> Gsolv                  -0.070444665311 Eh    ::
         :: repulsion energy           1.611849495698 Eh    ::

    * Orbital Energies and Occupations

         #    Occupation            Energy/Eh            Energy/eV
      -------------------------------------------------------------
         1        2.0000           -0.7550138             -20.5450
       ...           ...                  ...                  ...
        84        2.0000           -0.4360773             -11.8663
        85        2.0000           -0.4335726             -11.7981
        86        2.0000           -0.4301450             -11.7048
        87        2.0000           -0.4256785             -11.5833
        88        2.0000           -0.4239390             -11.5360
        89        2.0000           -0.4201868             -11.4339
        90        2.0000           -0.4194672             -11.4143
        91        2.0000           -0.4128435             -11.2340
        92        2.0000           -0.4102695             -11.1640
        93        2.0000           -0.4021048             -10.9418
        94        2.0000           -0.3874797             -10.5439
        95        2.0000           -0.3704486             -10.0804
        96        2.0000           -0.3647465              -9.9253 (HOMO)
        97                         -0.3032582              -8.2521 (LUMO)
        98                         -0.2591278              -7.0512
        99                         -0.2496670              -6.7938
       100                         -0.2488070              -6.7704
       101                         -0.2453017              -6.6750
       102                         -0.2424171              -6.5965
       103                         -0.2374087              -6.4602
       104                         -0.2322232              -6.3191
       105                         -0.2154671              -5.8632
       106                         -0.2086386              -5.6773
       107                         -0.2050912              -5.5808
       ...                                ...                  ...
       185                          0.6983387              19.0028
      -------------------------------------------------------------
                  HL-Gap            0.0614883 Eh            1.6732 eV

     #   Z          covCN         q      C6AA      α(0)
     1   6 C        3.751    -0.115    22.771     6.805
     2   6 C        3.747    -0.012    20.851     6.513
     3   7 N        2.738    -0.040    22.023     6.970
     4   6 C        3.747    -0.012    20.862     6.515
     5   6 C        3.751    -0.117    22.811     6.811
     6   6 C        2.908     0.078    26.253     8.402
     7   6 C        2.919    -0.063    29.573     8.918
     8   6 C        2.918    -0.033    28.827     8.804
     9   6 C        2.976    -0.031    28.769     8.798
    10   6 C        2.874     0.144    24.867     8.175
    11   6 C        2.920    -0.086    30.143     9.003
    12   8 O        1.709    -0.260    18.307     5.777
    13   6 C        2.717     0.344    21.164     7.531
    14   8 O        0.857    -0.462    22.962     6.425
    15   6 C        2.964    -0.105    30.639     9.079
    16   6 C        2.718     0.343    21.170     7.532
    17   8 O        0.857    -0.459    22.900     6.416
    18   8 O        1.709    -0.260    18.307     5.777
    19   6 C        2.876     0.146    24.828     8.168
    20   6 C        2.920    -0.079    29.986     8.980
    21   6 C        2.914     0.079    26.242     8.400
    22   7 N        2.752    -0.047    22.149     6.990
    23   6 C        2.974     0.052    26.826     8.496
    24   6 C        2.922    -0.043    29.059     8.840
    25   6 C        2.919    -0.030    28.752     8.793
    26   6 C        2.920    -0.029    28.725     8.789
    27   6 C        2.957    -0.035    28.866     8.812
    28   6 C        2.971     0.038    27.138     8.545
    29  16 S        2.110    -0.144   147.104    20.413
    30   6 C        2.972     0.037    27.164     8.549
    31   6 C        2.958    -0.036    28.884     8.815
    32   6 C        2.920    -0.029    28.736     8.791
    33   6 C        2.919    -0.030    28.753     8.793
    34   6 C        2.922    -0.042    29.050     8.839
    35   6 C        2.974     0.052    26.824     8.496
    36   6 C        2.920    -0.060    29.493     8.906
    37   6 C        2.920    -0.032    28.788     8.799
    38   6 C        2.976    -0.027    28.672     8.783
    39   6 C        2.976     0.036    27.184     8.552
    40   1 H        0.925     0.050     2.314     2.379
    41   1 H        0.925     0.052     2.292     2.367
    42   1 H        0.925     0.046     2.373     2.409
    43   1 H        0.924     0.056     2.252     2.347
    44   1 H        0.924     0.064     2.157     2.297
    45   1 H        0.924     0.059     2.211     2.325
    46   1 H        0.924     0.064     2.157     2.297
    47   1 H        0.925     0.055     2.258     2.350
    48   1 H        0.925     0.049     2.334     2.389
    49   1 H        0.925     0.051     2.303     2.373
    50   1 H        0.926     0.068     2.108     2.270
    51   1 H        0.926     0.068     2.111     2.272
    52   1 H        0.926     0.063     2.168     2.303
    53   1 H        0.926     0.058     2.217     2.329
    54   1 H        0.926     0.057     2.237     2.339
    55   1 H        0.926     0.055     2.254     2.348
    56   1 H        0.926     0.054     2.269     2.355
    57   1 H        0.926     0.055     2.262     2.352
    58   1 H        0.926     0.054     2.273     2.358
    59   1 H        0.926     0.052     2.293     2.368
    60   1 H        0.926     0.051     2.307     2.375
    61   1 H        0.926     0.052     2.289     2.366
    62   1 H        0.926     0.064     2.157     2.297
    63   1 H        0.926     0.074     2.046     2.237

molecular dipole:
                 x           y           z       tot (Debye)
 q only:       -0.013      -8.190       1.575
   full:        0.027      -7.875       1.694      20.475

 projected vibrational frequencies (cm⁻¹)
eigval :       -0.00    -0.00    -0.00     0.00     0.00     0.00
eigval :       12.50    23.37    30.56    37.30    40.64    53.27
eigval :       59.24    62.82    82.46    91.44    94.51   103.25
eigval :      119.53   135.82   146.37   153.21   162.50   174.11
eigval :      181.14   183.86   208.28   229.31   237.86   244.95
eigval :      258.53   266.07   273.58   292.18   309.20   318.48
eigval :      328.27   342.72   346.31   355.26   378.21   405.90
eigval :      414.92   418.86   424.88   427.59   428.76   442.20
eigval :      449.84   472.91   487.26   495.86   500.86   512.95
eigval :      525.09   533.61   553.31   567.58   590.28   593.40
eigval :      596.28   611.12   635.08   648.40   657.58   658.21
eigval :      663.87   676.05   687.01   690.07   695.78   698.58
eigval :      719.12   736.61   745.93   776.76   780.58   807.69
eigval :      821.47   824.48   825.71   843.02   849.37   859.38
eigval :      867.55   881.68   883.64   898.94   901.20   909.22
eigval :      916.53   919.55   922.08   927.51   927.61   954.01
eigval :      963.92   975.81  1000.67  1008.46  1041.47  1050.97
eigval :     1053.22  1078.24  1079.80  1080.68  1084.27  1084.99
eigval :     1092.73  1121.33  1146.35  1147.35  1154.34  1167.67
eigval :     1170.56  1174.12  1175.58  1195.61  1209.73  1217.91
eigval :     1224.64  1227.24  1236.00  1238.77  1249.13  1254.79
eigval :     1266.60  1273.96  1282.01  1311.30  1315.99  1320.04
eigval :     1324.21  1335.09  1349.87  1358.08  1377.49  1402.63
eigval :     1407.14  1409.18  1414.46  1416.82  1419.39  1435.09
eigval :     1441.74  1453.15  1460.34  1475.59  1482.56  1485.14
eigval :     1494.99  1495.09  1495.96  1498.34  1508.89  1526.37
eigval :     1528.65  1561.92  1567.73  1569.89  1574.05  1582.89
eigval :     1596.78  1653.23  1712.05  2966.87  2971.69  2982.32
eigval :     2984.10  3040.51  3042.54  3048.79  3049.65  3051.35
eigval :     3053.07  3087.79  3089.41  3092.30  3093.79  3097.98
eigval :     3100.13  3105.80  3106.76  3110.75  3116.10  3123.90
eigval :     3124.85  3131.15  3137.99

   temp. (K)  partition function   enthalpy   heat capacity  entropy
                                   cal/mol     cal/K/mol   cal/K/mol   J/K/mol
 298.15  VIB  0.485E+14            18845.689    118.853    116.046
         ROT  0.563E+08              888.752      2.981     38.446
         INT  0.273E+22            19734.441    121.834    154.493
         TR   0.119E+29             1481.254      4.968     44.683
         TOT                       21215.6949   126.8025   199.1761   833.3527

       T/K    H(0)-H(T)+PV         H(T)/Eh          T*S/Eh         G(T)/Eh
   ------------------------------------------------------------------------
    298.15    0.338094E-01    0.508127E+00    0.946350E-01    0.413492E+00
   ------------------------------------------------------------------------

         :::::::::::::::::::::::::::::::::::::::::::::::::::::
         ::                  THERMODYNAMIC                  ::
         :::::::::::::::::::::::::::::::::::::::::::::::::::::
         :: total free energy        -105.841989395616 Eh   ::
         ::.................................................::
         :: total energy             -106.255481833792 Eh   ::
         :: zero point energy           0.474318051367 Eh   ::
         :: G(RRHO) w/o ZPVE           -0.060825613191 Eh   ::
         :: G(RRHO) contrib.            0.413492438176 Eh   ::
         :::::::::::::::::::::::::::::::::::::::::::::::::::::

           -------------------------------------------------
          | TOTAL ENERGY             -106.255481833792 Eh   |
          | TOTAL ENTHALPY           -105.747354420470 Eh   |
          | TOTAL FREE ENERGY        -105.841989395616 Eh   |
          | GRADIENT NORM               0.000046029048 Eh/α |
          | HOMO-LUMO GAP               1.673180604529 eV   |
           -------------------------------------------------

 * finished run on 2025/09/13 at 19:07:54.540
