   * xtb version 6.7.1 (edcfbbe) compiled by 'albert@albert-system' on 2024-07-22

   ID    Z sym.   atoms
    1    6 C      1, 2, 4-11, 13, 15, 16, 19-21, 23-28, 30-39
    2    7 N      3, 22
    3    8 O      12, 14, 17, 18
    4   16 S      29
    5    1 H      40-63

          program call               : xtb data2507/toluene/VBC-PTZ/VBC-PTZ.xyz --gfn 2 --gbsa toluene --ohess vtight --parallel 40 --molden --ceasefiles --namespace data2507/toluene/VBC-PTZ/VBC-PTZ_toluene_S0_preOpt
      * Solvation model:               GBSA
        Solvent                        toluene
        Solvent mass                       9.2140E+01 g/mol
          :  Hamiltonian                  GFN2-xTB          :
 * total energy  :  -106.2175498 Eh     change       -0.1497554E-08 Eh
 * total energy  :  -106.2351752 Eh     change       -0.1762544E-01 Eh
 * total energy  :  -106.2430583 Eh     change       -0.7883058E-02 Eh
 * total energy  :  -106.2454444 Eh     change       -0.2386140E-02 Eh
 * total energy  :  -106.2467994 Eh     change       -0.1354965E-02 Eh
 * total energy  :  -106.2476181 Eh     change       -0.8187342E-03 Eh
 * total energy  :  -106.2480987 Eh     change       -0.4805731E-03 Eh
 * total energy  :  -106.2484195 Eh     change       -0.3208247E-03 Eh
 * total energy  :  -106.2486515 Eh     change       -0.2320188E-03 Eh
 * total energy  :  -106.2488334 Eh     change       -0.1819028E-03 Eh
 * total energy  :  -106.2493183 Eh     change       -0.1559363E-05 Eh
 * total energy  :  -106.2493201 Eh     change       -0.1724074E-05 Eh
 * total energy  :  -106.2493217 Eh     change       -0.1661652E-05 Eh
 * total energy  :  -106.2493230 Eh     change       -0.1255660E-05 Eh
 * total energy  :  -106.2493240 Eh     change       -0.1000034E-05 Eh
 * total energy  :  -106.2493250 Eh     change       -0.9958821E-06 Eh
 * total energy  :  -106.2493260 Eh     change       -0.9961621E-06 Eh
 * total energy  :  -106.2493270 Eh     change       -0.1035090E-05 Eh
 * total energy  :  -106.2493270 Eh     change       -0.1081169E-07 Eh
   *** GEOMETRY OPTIMIZATION CONVERGED AFTER 94 ITERATIONS ***

 final structure:
================
63
 xtb: 6.7.1 (edcfbbe)
C            7.34424052075863       -1.06891130851241       -1.42062053211928
C            7.08418229789302       -0.02750776383078       -0.33142089458595
N            5.84054634072033        0.68690574750648       -0.54219933027273
C            5.95078080934158        1.92494297069890       -1.28962392887080
C            6.17649310472105        3.13348633295422       -0.37993042254869
C            4.65999070245000        0.21652366422584       -0.09953741490242
C            3.46935257318240        0.98925995942405       -0.18237751524324
C            2.25779909250043        0.49354780409554        0.19908535817635
C            2.11589442349491       -0.81409566085880        0.71072052927434
C            3.31761075077679       -1.52602077384447        0.92751479104779
C            4.53971528511158       -1.04709882146055        0.50913899196304
O            3.32426962338092       -2.74240185962773        1.53998427367534
C            2.21867132507057       -3.25955995618285        2.15039268351448
O            2.37678586308815       -4.28055359276419        2.78329920054429
C            0.96210960331393       -2.56528631961954        1.92568966830686
C           -0.20951423110744       -3.06866849506740        2.61330931393433
O           -0.25299787517017       -3.98420165796947        3.40357698862213
O           -1.38623047856816       -2.39202861173854        2.40201348262069
C           -1.51735842939091       -1.48270206465717        1.40439725002074
C           -2.81063956668506       -1.06260595251925        1.11091819112294
C           -3.02959932071257       -0.19877436761711        0.04904374235667
N           -4.33877239116255        0.24236194379085       -0.27853101487158
C           -5.23266610051517       -0.67148370791782       -0.84126226797812
C           -4.86847147734847       -2.00926104394371       -1.00583558132210
C           -5.73876354198974       -2.93648877656323       -1.55153405987531
C           -7.00721238743537       -2.55732659114811       -1.94875665088758
C           -7.37707753493748       -1.23011842384510       -1.82396759045073
C           -6.50048810288434       -0.29599703967099       -1.29545612366310
S           -7.05184084378038        1.38835123357887       -1.31665027200767
C           -5.88790812237712        2.14554348188540       -0.21634773154732
C           -6.20561654334243        3.41272029656295        0.24629353034045
C           -5.34068137538007        4.09917246871728        1.07983070737589
C           -4.15826156069170        3.49378186107996        1.46292828773786
C           -3.84803895571523        2.22095052112226        1.01785758773020
C           -4.69641031552475        1.52051021609219        0.15760171021190
C           -1.95264515765374        0.21883939189310       -0.73463743288165
C           -0.67139228492889       -0.17585802488908       -0.42407821978254
C           -0.41463109214830       -0.99013148362396        0.68763875588261
C            0.89943151803794       -1.43901601740148        1.10098761612961
H            8.28956285794687       -1.57052866706654       -1.23241622493574
H            6.55290760818159       -1.81360143750500       -1.43991092223131
H            7.39253714859979       -0.59539314380179       -2.39822568342850
H            7.07529615871887       -0.50225092978108        0.65162821570896
H            7.89318827575480        0.70615568315829       -0.33188880718844
H            5.05707480185451        2.06831839393440       -1.89927287046358
H            6.79761073509159        1.82530548758502       -1.97251384868428
H            7.09415184951438        3.01573445091800        0.19107570554010
H            5.35417651399149        3.25189436356215        0.32060316680993
H            6.25758634606808        4.03549818085699       -0.98034004919904
H            3.51174333092106        2.00822999571483       -0.52561914891753
H            1.39762176665098        1.14135546357797        0.17237029003807
H            5.38777841397037       -1.68627699626359        0.68067535713076
H           -3.62799555052688       -1.43912487644152        1.70580560741426
H           -3.88325577364925       -2.33383926570621       -0.71227985105435
H           -5.41415742901307       -3.96011045242509       -1.66144364145979
H           -7.69584767649420       -3.27523785578252       -2.36541838822329
H           -8.34963542810237       -0.89493669554894       -2.15211553422296
H           -7.13849003726942        3.85589221632771       -0.06831655991976
H           -5.59353982368075        5.08953001980964        1.42416817491354
H           -3.47045815598743        4.00485949411948        2.11917949413420
H           -2.92914448743033        1.76061268635536        1.34448226013072
H           -2.13789110287718        0.84524757330080       -1.59323482870621
H            0.13852151338398        0.10186773276341       -1.07644758995439

          :  Hamiltonian                  GFN2-xTB          :
         :: gradient norm              0.000057199896 Eh/a0 ::
         :: HOMO-LUMO gap              0.830770007008 eV    ::
         :: SCC energy              -107.860056864722 Eh    ::
         :: -> dispersion             -0.085061927127 Eh    ::
         :: -> Gsolv                  -0.067013612881 Eh    ::
         :: repulsion energy           1.610729838001 Eh    ::

    * Orbital Energies and Occupations

         #    Occupation            Energy/Eh            Energy/eV
      -------------------------------------------------------------
         1        2.0000           -0.7653717             -20.8268
       ...           ...                  ...                  ...
        84        2.0000           -0.4381242             -11.9220
        85        2.0000           -0.4339950             -11.8096
        86        2.0000           -0.4314307             -11.7398
        87        2.0000           -0.4289716             -11.6729
        88        2.0000           -0.4258473             -11.5879
        89        2.0000           -0.4198044             -11.4235
        90        2.0000           -0.4184356             -11.3862
        91        2.0000           -0.4168674             -11.3435
        92        2.0000           -0.4157168             -11.3122
        93        2.0000           -0.4096050             -11.1459
        94        2.0000           -0.3860273             -10.5043
        95        2.0000           -0.3763899             -10.2421
        96        2.0000           -0.3460600              -9.4168 (HOMO)
        97        0.0000           -0.3155297              -8.5860 (LUMO)
        98                         -0.2690420              -7.3210
        99                         -0.2559575              -6.9650
       100                         -0.2477287              -6.7410
       101                         -0.2465461              -6.7089
       102                         -0.2353658              -6.4046
       103                         -0.2303732              -6.2688
       104                         -0.2268366              -6.1725
       105                         -0.2170068              -5.9051
       106                         -0.2064419              -5.6176
       107                         -0.2013772              -5.4798
       ...                                ...                  ...
       185                          0.6902113              18.7816
      -------------------------------------------------------------
                  HL-Gap            0.0305303 Eh            0.8308 eV

     #   Z          covCN         q      C6AA      α(0)
     1   6 C        3.751    -0.117    22.793     6.808
     2   6 C        3.747    -0.014    20.884     6.518
     3   7 N        2.739    -0.029    21.811     6.936
     4   6 C        3.747    -0.015    20.905     6.522
     5   6 C        3.751    -0.118    22.815     6.812
     6   6 C        2.908     0.080    26.211     8.395
     7   6 C        2.919    -0.060    29.504     8.907
     8   6 C        2.917    -0.032    28.792     8.799
     9   6 C        2.975    -0.028    28.689     8.786
    10   6 C        2.874     0.146    24.818     8.167
    11   6 C        2.919    -0.084    30.101     8.997
    12   8 O        1.710    -0.250    18.149     5.752
    13   6 C        2.717     0.346    21.128     7.524
    14   8 O        0.857    -0.451    22.718     6.390
    15   6 C        2.964    -0.098    30.473     9.055
    16   6 C        2.718     0.345    21.142     7.527
    17   8 O        0.857    -0.443    22.562     6.368
    18   8 O        1.709    -0.250    18.143     5.751
    19   6 C        2.877     0.149    24.765     8.158
    20   6 C        2.917    -0.057    29.422     8.895
    21   6 C        2.930     0.079    26.242     8.401
    22   7 N        2.749    -0.068    22.561     7.055
    23   6 C        2.938     0.058    26.694     8.474
    24   6 C        2.928    -0.059    29.468     8.902
    25   6 C        2.919    -0.033    28.830     8.805
    26   6 C        2.918    -0.039    28.966     8.826
    27   6 C        2.989    -0.040    28.989     8.832
    28   6 C        2.971     0.034    27.237     8.561
    29  16 S        2.134    -0.163   147.960    20.473
    30   6 C        2.971     0.035    27.213     8.557
    31   6 C        2.985    -0.040    28.983     8.831
    32   6 C        2.918    -0.038    28.948     8.823
    33   6 C        2.919    -0.033    28.829     8.805
    34   6 C        2.928    -0.058    29.442     8.898
    35   6 C        2.946     0.058    26.695     8.474
    36   6 C        2.919    -0.042    29.055     8.839
    37   6 C        2.921    -0.029    28.725     8.789
    38   6 C        2.976    -0.012    28.317     8.729
    39   6 C        2.976     0.039    27.125     8.543
    40   1 H        0.925     0.054     2.271     2.357
    41   1 H        0.925     0.048     2.341     2.393
    42   1 H        0.925     0.052     2.297     2.370
    43   1 H        0.924     0.057     2.233     2.337
    44   1 H        0.924     0.067     2.122     2.278
    45   1 H        0.924     0.063     2.163     2.300
    46   1 H        0.924     0.067     2.124     2.279
    47   1 H        0.925     0.050     2.320     2.382
    48   1 H        0.925     0.051     2.306     2.375
    49   1 H        0.925     0.056     2.241     2.341
    50   1 H        0.926     0.073     2.053     2.241
    51   1 H        0.926     0.072     2.066     2.247
    52   1 H        0.926     0.068     2.109     2.271
    53   1 H        0.926     0.071     2.072     2.251
    54   1 H        0.926     0.034     2.529     2.487
    55   1 H        0.926     0.039     2.465     2.455
    56   1 H        0.926     0.041     2.437     2.441
    57   1 H        0.926     0.044     2.397     2.421
    58   1 H        0.926     0.044     2.390     2.418
    59   1 H        0.926     0.042     2.416     2.431
    60   1 H        0.926     0.042     2.416     2.431
    61   1 H        0.926     0.036     2.499     2.472
    62   1 H        0.926     0.074     2.047     2.237
    63   1 H        0.926     0.087     1.908     2.160

molecular dipole:
                 x           y           z       tot (Debye)
 q only:        3.430       5.611      -4.122
   full:        3.472       5.299      -3.861      18.858

 projected vibrational frequencies (cm⁻¹)
eigval :       -0.00    -0.00    -0.00    -0.00     0.00     0.00
eigval :        5.84    18.54    21.30    24.05    35.60    37.25
eigval :       53.38    59.91    73.31    89.51    95.97   100.31
eigval :      105.10   118.96   130.79   144.57   168.87   175.68
eigval :      180.61   190.60   212.47   224.64   229.44   243.20
eigval :      254.37   265.15   268.38   288.09   297.33   314.46
eigval :      332.69   343.16   346.60   377.04   385.41   399.90
eigval :      405.82   415.93   418.83   425.67   431.47   439.91
eigval :      446.54   463.24   482.87   491.02   496.47   503.96
eigval :      511.35   536.10   550.99   561.86   579.39   604.33
eigval :      606.13   630.28   635.54   646.14   648.42   652.31
eigval :      656.26   663.15   669.98   693.15   696.87   713.13
eigval :      720.72   736.69   746.65   768.57   770.38   803.94
eigval :      819.70   822.32   830.59   841.38   843.82   858.91
eigval :      859.78   865.65   884.27   899.14   901.55   903.87
eigval :      904.67   907.77   913.14   917.25   920.16   954.70
eigval :      963.86   975.51  1000.06  1006.68  1040.41  1051.86
eigval :     1052.80  1073.48  1078.66  1080.08  1092.24  1103.10
eigval :     1105.15  1118.52  1137.77  1150.10  1153.27  1160.14
eigval :     1163.21  1179.25  1182.66  1191.59  1206.62  1214.89
eigval :     1217.33  1230.25  1243.48  1244.67  1253.26  1255.05
eigval :     1263.33  1268.45  1298.14  1309.95  1312.23  1320.02
eigval :     1324.75  1328.83  1333.92  1349.50  1361.84  1390.24
eigval :     1403.50  1406.22  1407.52  1417.18  1422.14  1439.42
eigval :     1458.11  1462.88  1464.73  1474.26  1476.85  1482.30
eigval :     1483.30  1493.53  1494.72  1494.99  1504.20  1531.80
eigval :     1541.71  1555.50  1567.75  1572.26  1573.63  1590.53
eigval :     1593.79  1662.63  1718.29  2969.46  2975.03  2985.53
eigval :     2987.64  3041.56  3043.50  3050.17  3050.21  3052.01
eigval :     3052.47  3085.03  3086.52  3087.58  3088.96  3101.67
eigval :     3102.03  3104.91  3108.54  3110.33  3111.55  3114.76
eigval :     3128.90  3133.87  3139.58

   temp. (K)  partition function   enthalpy   heat capacity  entropy
                                   cal/mol     cal/K/mol   cal/K/mol   J/K/mol
 298.15  VIB  0.766E+15            19062.973    118.280    118.776
         ROT  0.570E+08              888.752      2.981     38.469
         INT  0.436E+23            19951.725    121.261    157.245
         TR   0.119E+29             1481.254      4.968     44.683
         TOT                       21432.9788   126.2289   201.9281   844.8673

       T/K    H(0)-H(T)+PV         H(T)/Eh          T*S/Eh         G(T)/Eh
   ------------------------------------------------------------------------
    298.15    0.341556E-01    0.507736E+00    0.959426E-01    0.411794E+00
   ------------------------------------------------------------------------

         :::::::::::::::::::::::::::::::::::::::::::::::::::::
         ::                  THERMODYNAMIC                  ::
         :::::::::::::::::::::::::::::::::::::::::::::::::::::
         :: total free energy        -105.837533205514 Eh   ::
         ::.................................................::
         :: total energy             -106.249327026438 Eh   ::
         :: zero point energy           0.473580766032 Eh   ::
         :: G(RRHO) w/o ZPVE           -0.061786945108 Eh   ::
         :: G(RRHO) contrib.            0.411793820924 Eh   ::
         :::::::::::::::::::::::::::::::::::::::::::::::::::::

           -------------------------------------------------
          | TOTAL ENERGY             -106.249327026438 Eh   |
          | TOTAL ENTHALPY           -105.741590634607 Eh   |
          | TOTAL FREE ENERGY        -105.837533205514 Eh   |
          | GRADIENT NORM               0.000057219845 Eh/α |
          | HOMO-LUMO GAP               0.830770868398 eV   |
           -------------------------------------------------

 * finished run on 2025/09/13 at 19:02:37.947
