   * xtb version 6.7.1 (edcfbbe) compiled by 'albert@albert-system' on 2024-07-22

   ID    Z sym.   atoms
    1    8 O      1, 10
    2    6 C      2-9, 11-13, 15-18, 20-36
    3   16 S      14
    4    7 N      19
    5    1 H      37-55

          program call               : xtb data2507/gas/AQ-S-CZ/AQ-S-CZ_gas_T1_crest.xyz --gfn 2 --spinpol --tblite --uhf 2 --ohess vtight --parallel 40 --molden --ceasefiles --namespace data2507/gas/AQ-S-CZ/AQ-S-CZ_gas_T1_finalOpt
 * total energy  :   -92.4754011 Eh     change        0.3523738E-07 Eh
 * total energy  :   -92.4754139 Eh     change       -0.1280917E-04 Eh
 * total energy  :   -92.4754186 Eh     change       -0.4736154E-05 Eh
 * total energy  :   -92.4754194 Eh     change       -0.7653053E-06 Eh
 * total energy  :   -92.4754202 Eh     change       -0.8153134E-06 Eh
 * total energy  :   -92.4754208 Eh     change       -0.6132539E-06 Eh
 * total energy  :   -92.4754213 Eh     change       -0.4859026E-06 Eh
 * total energy  :   -92.4754215 Eh     change       -0.2046072E-06 Eh
 * total energy  :   -92.4754217 Eh     change       -0.1704933E-06 Eh
 * total energy  :   -92.4754219 Eh     change       -0.2065067E-06 Eh
 * total energy  :   -92.4754221 Eh     change       -0.2132811E-06 Eh
 * total energy  :   -92.4754222 Eh     change       -0.1016293E-06 Eh
 * total energy  :   -92.4754223 Eh     change       -0.1493468E-06 Eh
 * total energy  :   -92.4754224 Eh     change       -0.1559157E-07 Eh
 * total energy  :   -92.4754225 Eh     change       -0.1007808E-06 Eh
 * total energy  :   -92.4754225 Eh     change       -0.8758899E-07 Eh
   *** GEOMETRY OPTIMIZATION CONVERGED AFTER 16 ITERATIONS ***

 final structure:
================
55
 xtb: 6.7.1 (edcfbbe)
O            6.65648093381013       -0.81312601534868       -1.20793565073240
C            5.66194794942116       -0.32464268285286       -0.65268987482138
C            5.60345356749082        1.06776802766834       -0.22913936066210
C            6.73042532415026        1.87435622100807       -0.45053691419178
C            6.72807663509637        3.19578347558756       -0.08004814280058
C            5.59748999969438        3.75325123877319        0.52241005718719
C            4.48523701456162        2.98156754163521        0.74602911717100
C            4.46880058544212        1.62647023668287        0.37908527278089
C            3.26449571267200        0.85722466799698        0.64743120562636
O            2.24562060571734        1.35180407455142        1.15273330650535
C            3.34056160819465       -0.54307700452489        0.26196617248414
C            2.22804869724437       -1.35236684672427        0.51917338905332
C            2.22014401306324       -2.66920753471743        0.12381349554692
S            0.81838109030957       -3.70768894257035        0.45438536307169
C           -0.53427979044641       -2.58539819795149        0.26027567167850
C           -1.64218916142096       -2.73617133901829        1.08818730650044
C           -2.71075364430457       -1.87180355616582        0.97753258030622
C           -2.68499876761537       -0.84339707626813        0.03533110836604
N           -3.74315712799565        0.06020753698039       -0.05619164063631
C           -5.08612163101549       -0.26164100973433       -0.11052107705566
C           -5.69596081737671       -1.50766869433304       -0.14846156856253
C           -7.07528443346986       -1.54778053568243       -0.23713596993766
C           -7.83352346360902       -0.38188037206324       -0.29849921693637
C           -7.22894299668217        0.86182145275893       -0.29059861633652
C           -5.84670820883688        0.92686729608362       -0.20096847833237
C           -4.90669824771181        2.01638506873535       -0.19076665609164
C           -5.04715242682264        3.39559545130163       -0.22967072282148
C           -3.90792720302128        4.17738500638999       -0.17131013421595
C           -2.64664962529195        3.59926629123160       -0.05594520721143
C           -2.48164326927378        2.22696870454687       -0.01476618564988
C           -3.61998914564603        1.43769089179581       -0.10402444930292
C           -1.58605932333802       -0.72059251890785       -0.81664555812862
C           -0.52280444686360       -1.58962402941246       -0.71181192707300
C            3.34834926374692       -3.23688900723086       -0.48941563545508
C            4.45486204189806       -2.46237169447429       -0.71289397018799
C            4.47056654858350       -1.10046290893994       -0.36392740621399
H            7.58897453790585        1.41749466227300       -0.92022298171346
H            7.60188242452710        3.80578658251522       -0.25518371303903
H            5.59924031814544        4.79327786503602        0.81368831840132
H            3.59743204085294        3.38485139402660        1.21058054277961
H            1.38633236452272       -0.90206791644904        1.02504698643427
H           -1.64650601923383       -3.51792287658884        1.83183743996882
H           -3.55207339084102       -1.96203953411969        1.64734666863180
H           -5.11664110986517       -2.41799234122357       -0.12465157506715
H           -7.57392854330611       -2.50498347487416       -0.26408065315815
H           -8.90856777431773       -0.45428909208653       -0.36447082604490
H           -7.81638997127371        1.76462576458594       -0.35792760283372
H           -6.02618433554119        3.84470571069448       -0.29751214556637
H           -3.99514584467606        5.25294067932253       -0.20269785924143
H           -1.77640302099330        4.23432532723236        0.00918113893709
H           -1.49997250796195        1.79422504454838        0.10087866305663
H           -1.58326782550754        0.04587765610001       -1.57624885424131
H            0.31749546855026       -1.49590475467252       -1.38273586518503
H            3.32957355984967       -4.27559279980484       -0.78034584380342
H            5.33899221430842       -2.86777003622243       -1.18212567943570

 projected vibrational frequencies (cm⁻¹)
eigval :       -0.00    -0.00    -0.00     0.00     0.00     0.00
eigval :        7.30    13.75    15.45    37.12    40.98    50.19
eigval :       80.70    89.07   103.57   109.91   121.25   142.89
eigval :      145.12   160.39   177.85   184.19   205.02   250.22
eigval :      256.43   268.02   270.75   281.33   300.09   327.85
eigval :      356.16   359.42   372.29   382.98   387.58   396.23
eigval :      402.90   403.82   420.13   424.59   435.64   456.75
eigval :      477.66   480.74   501.81   511.36   516.15   538.23
eigval :      538.49   567.94   578.78   590.38   595.14   611.10
eigval :      616.01   630.93   649.25   656.85   667.28   673.85
eigval :      676.04   682.98   709.46   718.87   738.78   757.24
eigval :      770.67   777.29   780.62   804.44   813.22   817.07
eigval :      863.67   873.63   876.68   877.47   885.16   896.53
eigval :      897.35   903.81   906.23   911.92   914.83   917.90
eigval :      918.31   921.65   925.17   927.01   932.25   956.83
eigval :     1005.22  1011.45  1069.96  1073.16  1076.99  1081.77
eigval :     1092.28  1104.36  1116.60  1124.02  1133.55  1147.98
eigval :     1158.60  1168.89  1175.46  1179.08  1180.28  1182.36
eigval :     1203.07  1205.37  1215.89  1223.71  1231.59  1241.76
eigval :     1246.83  1258.72  1288.79  1294.53  1319.08  1347.98
eigval :     1354.90  1355.53  1361.58  1365.59  1375.44  1389.89
eigval :     1404.85  1405.86  1417.82  1419.84  1433.91  1464.85
eigval :     1466.11  1473.90  1483.04  1515.05  1540.42  1546.36
eigval :     1548.48  1550.67  1570.52  1571.93  1572.24  1584.67
eigval :     1586.32  1606.14  3076.75  3083.15  3084.50  3085.13
eigval :     3087.67  3087.96  3089.68  3091.10  3092.17  3092.61
eigval :     3094.45  3095.45  3095.63  3097.56  3101.33  3101.56
eigval :     3103.48  3104.31  3105.57

   temp. (K)  partition function   enthalpy   heat capacity  entropy
                                   cal/mol     cal/K/mol   cal/K/mol   J/K/mol
 298.15  VIB  0.160E+13            15996.590    103.521     98.291
         ROT  0.424E+08              888.752      2.981     37.882
         INT  0.680E+20            16885.342    106.502    136.173
         TR   0.102E+29             1481.254      4.968     44.383
         TOT                       18366.5958   111.4703   180.5564   755.4478

       T/K    H(0)-H(T)+PV         H(T)/Eh          T*S/Eh         G(T)/Eh
   ------------------------------------------------------------------------
    298.15    0.292690E-01    0.431339E+00    0.857882E-01    0.345551E+00
   ------------------------------------------------------------------------

         :::::::::::::::::::::::::::::::::::::::::::::::::::::
         ::                  THERMODYNAMIC                  ::
         :::::::::::::::::::::::::::::::::::::::::::::::::::::
         :: total free energy         -92.129871752289 Eh   ::
         ::.................................................::
         :: total energy              -92.475422487678 Eh   ::
         :: zero point energy           0.402069856435 Eh   ::
         :: G(RRHO) w/o ZPVE           -0.056519121046 Eh   ::
         :: G(RRHO) contrib.            0.345550735389 Eh   ::
         :::::::::::::::::::::::::::::::::::::::::::::::::::::

           -------------------------------------------------
          | TOTAL ENERGY              -92.475422487678 Eh   |
          | TOTAL ENTHALPY            -92.044083597806 Eh   |
          | TOTAL FREE ENERGY         -92.129871752289 Eh   |
          | GRADIENT NORM               0.000061011353 Eh/α |
           -------------------------------------------------

 * finished run on 2025/07/19 at 19:21:37.017
