   * xtb version 6.7.1 (edcfbbe) compiled by 'albert@albert-system' on 2024-07-22

   ID    Z sym.   atoms
    1    8 O      1, 10
    2    6 C      2-9, 11-13, 15-18, 20-36
    3   16 S      14
    4    7 N      19
    5    1 H      37-55

          program call               : xtb data2507/gas/AQ-S-CZ/AQ-S-CZ.xyz --gfn 2 --ohess vtight --parallel 40 --molden --ceasefiles --namespace data2507/gas/AQ-S-CZ/AQ-S-CZ_gas_S0_preOpt
          :  Hamiltonian                  GFN2-xTB          :
 * total energy  :   -92.5120212 Eh     change       -0.1908660E-08 Eh
 * total energy  :   -92.5212139 Eh     change       -0.9192747E-02 Eh
 * total energy  :   -92.5230847 Eh     change       -0.1870784E-02 Eh
 * total energy  :   -92.5234418 Eh     change       -0.3570573E-03 Eh
 * total energy  :   -92.5237345 Eh     change       -0.2927156E-03 Eh
 * total energy  :   -92.5238822 Eh     change       -0.1476941E-03 Eh
 * total energy  :   -92.5240422 Eh     change       -0.1600645E-03 Eh
 * total energy  :   -92.5242345 Eh     change       -0.1922426E-03 Eh
 * total energy  :   -92.5244571 Eh     change       -0.2226638E-03 Eh
 * total energy  :   -92.5247073 Eh     change       -0.2501567E-03 Eh
 * total energy  :   -92.5292277 Eh     change       -0.2432493E-05 Eh
 * total energy  :   -92.5292302 Eh     change       -0.2590211E-05 Eh
 * total energy  :   -92.5292323 Eh     change       -0.2016007E-05 Eh
 * total energy  :   -92.5292337 Eh     change       -0.1409105E-05 Eh
 * total energy  :   -92.5292347 Eh     change       -0.1038489E-05 Eh
 * total energy  :   -92.5292356 Eh     change       -0.8543792E-06 Eh
 * total energy  :   -92.5292363 Eh     change       -0.7510470E-06 Eh
 * total energy  :   -92.5292370 Eh     change       -0.6341835E-06 Eh
 * total energy  :   -92.5292370 Eh     change       -0.7958462E-08 Eh
   *** GEOMETRY OPTIMIZATION CONVERGED AFTER 94 ITERATIONS ***

 final structure:
================
55
 xtb: 6.7.1 (edcfbbe)
O            7.05823473051203       -1.39208060824001       -0.46320678642771
C            5.98914641234669       -0.87420073580766       -0.19318324165986
C            5.88320715964426        0.56233695008420        0.15357584141367
C            7.04681520001393        1.32551911504094        0.19557306536073
C            6.99873110770497        2.66967578487654        0.51724926231667
C            5.78116788060233        3.27145608463122        0.79961816388974
C            4.61771616104671        2.52582259125641        0.75808780042011
C            4.65357510745476        1.17054808538625        0.43797071867192
C            3.38444569530726        0.41562656243306        0.40431563037712
O            2.30607948792091        0.94802647501907        0.59310889807091
C            3.49999893185644       -1.03103427136866        0.11279001172770
C            2.33822009103289       -1.79005443418436        0.12492765302171
C            2.37565198723563       -3.14365017120732       -0.17909556092346
S            0.93649373602159       -4.16014387823886       -0.18127904466677
C           -0.37266261077822       -2.94937484519688       -0.18347081441559
C           -1.31648722244362       -2.96349758911399        0.83185635125694
C           -2.32022581356079       -2.01472414749285        0.84824980120261
C           -2.38501834136020       -1.04617587375751       -0.15165178313675
N           -3.37421480453123       -0.06223101789625       -0.12139489394491
C           -4.72926155560006       -0.27333029658951        0.05444807290786
C           -5.42892821683356       -1.46355957604478        0.18765236095224
C           -6.80289717321117       -1.39275466088521        0.31990806739914
C           -7.47254240318979       -0.17163238020476        0.31078022586679
C           -6.78371645554122        1.01433025977970        0.15154729118763
C           -5.40262569270345        0.96868809484973        0.01714272022878
C           -4.39636260423432        1.97489183830178       -0.18180410593251
C           -4.43871793602020        3.35956775595698       -0.27816261837850
C           -3.25277449027907        4.04672711114634       -0.44304755490191
C           -2.03518632202496        3.37205794320620       -0.49265955555179
C           -1.96715666107798        1.99477025420713       -0.39976496714978
C           -3.15904782779469        1.29789089248629       -0.26451301968872
C           -1.44859011449191       -1.06058524842656       -1.18541528288779
C           -0.45112130247234       -2.01257764406823       -1.20572845763741
C            3.59922725135354       -3.75084567060502       -0.46781392913111
C            4.75580162062959       -3.00326364387516       -0.46394578332908
C            4.72905140707331       -1.63609405384710       -0.18165498317255
H            7.98369085908318        0.83741717346802       -0.02907955341128
H            7.90913128408990        3.24946919343792        0.54799171170053
H            5.74083826202851        4.32075916914421        1.05114436211560
H            3.65859762040059        2.97350361627102        0.97307066827559
H            1.41410065707572       -1.29201331854222        0.37774743215797
H           -1.24998895411340       -3.70411044474527        1.61388706723156
H           -3.03876853806974       -1.99996293870434        1.65330527620524
H           -4.92281618121258       -2.41719990546627        0.17584896188213
H           -7.36971151822098       -2.30557410684637        0.42894374449839
H           -8.54668609614962       -0.15817101106586        0.42013299870205
H           -7.30402010400269        1.95983225369161        0.12669120847684
H           -5.38110476971388        3.88278640496352       -0.21848445189213
H           -3.26341760610113        5.12361142749738       -0.52283278877150
H           -1.12111868858030        3.93656109471670       -0.60073953080053
H           -1.01373642024202        1.48890997928839       -0.41385065846884
H           -1.51741542513731       -0.33090572839536       -1.97745409900918
H            0.27266894516397       -2.02627062037217       -2.00695741863067
H            3.62463542650107       -4.80603385399152       -0.69345080669359
H            5.70909382760901       -3.45873243597808       -0.68692367689285

          :  Hamiltonian                  GFN2-xTB          :
         :: gradient norm              0.000088954586 Eh/a0 ::
         :: HOMO-LUMO gap              1.038738078746 eV    ::
         :: SCC energy               -94.128038838148 Eh    ::
         :: -> dispersion             -0.076176741419 Eh    ::
         :: repulsion energy           1.598801878659 Eh    ::

    * Orbital Energies and Occupations

         #    Occupation            Energy/Eh            Energy/eV
      -------------------------------------------------------------
         1        2.0000           -0.7325659             -19.9341
       ...           ...                  ...                  ...
        73        2.0000           -0.4307296             -11.7207
        74        2.0000           -0.4291710             -11.6783
        75        2.0000           -0.4286883             -11.6652
        76        2.0000           -0.4249806             -11.5643
        77        2.0000           -0.4227229             -11.5029
        78        2.0000           -0.4195223             -11.4158
        79        2.0000           -0.4179757             -11.3737
        80        2.0000           -0.4119019             -11.2084
        81        2.0000           -0.4062697             -11.0552
        82        2.0000           -0.3937719             -10.7151
        83        2.0000           -0.3819348             -10.3930
        84        2.0000           -0.3796769             -10.3315
        85        2.0000           -0.3651946              -9.9375 (HOMO)
        86                         -0.3270217              -8.8987 (LUMO)
        87                         -0.2816941              -7.6653
        88                         -0.2599521              -7.0737
        89                         -0.2519514              -6.8559
        90                         -0.2482067              -6.7540
        91                         -0.2463509              -6.7035
        92                         -0.2443770              -6.6498
        93                         -0.2228958              -6.0653
        94                         -0.2068354              -5.6283
        95                         -0.1970281              -5.3614
        96                         -0.1924444              -5.2367
       ...                                ...                  ...
       168                          0.7445506              20.2603
      -------------------------------------------------------------
                  HL-Gap            0.0381729 Eh            1.0387 eV

     #   Z          covCN         q      C6AA      α(0)
     1   8 O        0.858    -0.369    21.074     6.155
     2   6 C        2.830     0.223    23.312     7.912
     3   6 C        2.974    -0.011    28.298     8.726
     4   6 C        2.924    -0.016    28.401     8.740
     5   6 C        2.918    -0.019    28.494     8.754
     6   6 C        2.917    -0.021    28.521     8.758
     7   6 C        2.924    -0.015    28.394     8.738
     8   6 C        2.975    -0.013    28.336     8.732
     9   6 C        2.831     0.226    23.254     7.902
    10   8 O        0.858    -0.369    21.077     6.155
    11   6 C        2.976    -0.014    28.347     8.733
    12   6 C        2.955    -0.029    28.718     8.790
    13   6 C        2.964     0.057    26.719     8.479
    14  16 S        2.111    -0.120   146.078    20.342
    15   6 C        2.969     0.044    27.002     8.523
    16   6 C        2.957    -0.032    28.792     8.801
    17   6 C        2.923    -0.041    29.020     8.834
    18   6 C        2.912     0.069    26.445     8.433
    19   7 N        2.803    -0.042    22.057     6.975
    20   6 C        3.071     0.046    26.897     8.504
    21   6 C        2.910    -0.051    29.270     8.871
    22   6 C        2.924    -0.033    28.823     8.804
    23   6 C        2.920    -0.040    28.996     8.830
    24   6 C        2.913    -0.032    28.806     8.801
    25   6 C        3.067    -0.016    28.330     8.728
    26   6 C        3.067    -0.016    28.341     8.729
    27   6 C        2.913    -0.033    28.814     8.802
    28   6 C        2.920    -0.040    28.989     8.829
    29   6 C        2.925    -0.032    28.787     8.799
    30   6 C        2.909    -0.050    29.236     8.866
    31   6 C        3.072     0.046    26.892     8.503
    32   6 C        2.924    -0.040    28.994     8.830
    33   6 C        2.954    -0.029    28.725     8.791
    34   6 C        2.972    -0.032    28.802     8.803
    35   6 C        2.923    -0.016    28.399     8.739
    36   6 C        2.973    -0.020    28.502     8.757
    37   1 H        0.926     0.069     2.098     2.265
    38   1 H        0.926     0.048     2.340     2.392
    39   1 H        0.926     0.048     2.346     2.395
    40   1 H        0.926     0.067     2.121     2.278
    41   1 H        0.926     0.065     2.142     2.289
    42   1 H        0.926     0.053     2.286     2.364
    43   1 H        0.926     0.052     2.297     2.370
    44   1 H        0.926     0.027     2.636     2.539
    45   1 H        0.926     0.030     2.584     2.514
    46   1 H        0.926     0.029     2.595     2.519
    47   1 H        0.926     0.032     2.553     2.499
    48   1 H        0.926     0.032     2.564     2.504
    49   1 H        0.926     0.029     2.598     2.521
    50   1 H        0.926     0.033     2.541     2.493
    51   1 H        0.926     0.036     2.499     2.472
    52   1 H        0.926     0.052     2.292     2.367
    53   1 H        0.926     0.047     2.353     2.399
    54   1 H        0.926     0.057     2.239     2.340
    55   1 H        0.926     0.072     2.060     2.245

molecular dipole:
                 x           y           z       tot (Debye)
 q only:       -0.352       0.243       0.064
   full:       -0.285       0.438       0.087       1.347

 projected vibrational frequencies (cm⁻¹)
eigval :       -0.00    -0.00     0.00     0.00     0.00     0.00
eigval :        8.44    11.01    15.24    28.79    42.23    47.56
eigval :       73.68    81.20   102.96   103.45   106.04   131.12
eigval :      144.11   159.26   174.48   184.99   203.91   247.32
eigval :      251.83   268.14   271.92   279.35   291.78   328.58
eigval :      364.14   366.27   373.13   381.37   389.41   398.21
eigval :      399.24   403.64   405.33   421.87   436.71   456.92
eigval :      479.59   484.75   504.21   516.94   518.54   533.54
eigval :      541.15   579.26   591.90   607.05   612.77   615.39
eigval :      632.43   656.70   669.60   673.47   676.98   681.85
eigval :      683.56   688.48   708.46   738.97   758.22   770.56
eigval :      772.31   781.88   789.06   803.80   815.27   835.46
eigval :      865.92   874.85   878.68   887.73   896.70   897.88
eigval :      902.74   904.90   906.38   918.13   921.77   925.49
eigval :      925.80   927.01   930.31   932.30   934.34   978.25
eigval :     1006.50  1011.83  1071.12  1074.63  1081.51  1085.18
eigval :     1099.14  1108.12  1119.08  1123.34  1130.02  1153.23
eigval :     1171.46  1174.45  1176.38  1180.50  1181.04  1201.16
eigval :     1208.07  1225.37  1235.65  1236.54  1245.01  1250.94
eigval :     1258.40  1278.34  1299.61  1300.65  1316.61  1333.92
eigval :     1346.69  1356.47  1360.39  1365.62  1395.27  1402.74
eigval :     1421.18  1425.52  1427.81  1445.53  1456.84  1474.44
eigval :     1476.13  1487.49  1546.78  1557.96  1560.61  1575.65
eigval :     1576.01  1576.12  1580.82  1589.48  1599.19  1613.96
eigval :     1670.29  1682.72  3077.23  3078.72  3082.35  3082.75
eigval :     3085.00  3088.08  3089.36  3089.52  3092.17  3092.27
eigval :     3094.19  3095.78  3096.91  3097.61  3098.82  3099.40
eigval :     3101.54  3102.59  3104.50

   temp. (K)  partition function   enthalpy   heat capacity  entropy
                                   cal/mol     cal/K/mol   cal/K/mol   J/K/mol
 298.15  VIB  0.317E+13            15984.468    102.393     98.916
         ROT  0.416E+08              888.752      2.981     37.846
         INT  0.132E+21            16873.221    105.374    136.763
         TR   0.102E+29             1481.254      4.968     44.383
         TOT                       18354.4748   110.3423   181.1458   757.9139

       T/K    H(0)-H(T)+PV         H(T)/Eh          T*S/Eh         G(T)/Eh
   ------------------------------------------------------------------------
    298.15    0.292497E-01    0.433723E+00    0.860682E-01    0.347655E+00
   ------------------------------------------------------------------------

         :::::::::::::::::::::::::::::::::::::::::::::::::::::
         ::                  THERMODYNAMIC                  ::
         :::::::::::::::::::::::::::::::::::::::::::::::::::::
         :: total free energy         -92.181582311396 Eh   ::
         ::.................................................::
         :: total energy              -92.529236959493 Eh   ::
         :: zero point energy           0.404473134989 Eh   ::
         :: G(RRHO) w/o ZPVE           -0.056818486892 Eh   ::
         :: G(RRHO) contrib.            0.347654648097 Eh   ::
         :::::::::::::::::::::::::::::::::::::::::::::::::::::

           -------------------------------------------------
          | TOTAL ENERGY              -92.529236959493 Eh   |
          | TOTAL ENTHALPY            -92.095514107153 Eh   |
          | TOTAL FREE ENERGY         -92.181582311396 Eh   |
          | GRADIENT NORM               0.000088906212 Eh/α |
          | HOMO-LUMO GAP               1.038736890028 eV   |
           -------------------------------------------------

 * finished run on 2025/07/19 at 19:13:55.941
