   * xtb version 6.7.1 (edcfbbe) compiled by 'albert@albert-system' on 2024-07-22

   ID    Z sym.   atoms
    1    8 O      1, 10
    2    6 C      2-9, 11-13, 15-18, 20-36
    3   16 S      14
    4    7 N      19
    5    1 H      37-55

          program call               : xtb data2507/gas/AQ-S-CZ/AQ-S-CZ_gas_S0_crest.xyz --gfn 2 --ohess vtight --parallel 40 --molden --ceasefiles --namespace data2507/gas/AQ-S-CZ/AQ-S-CZ_gas_S0_finalOpt
          :  Hamiltonian                  GFN2-xTB          :
 * total energy  :   -92.5292317 Eh     change       -0.3092936E-08 Eh
 * total energy  :   -92.5292322 Eh     change       -0.4333111E-06 Eh
 * total energy  :   -92.5292327 Eh     change       -0.5012157E-06 Eh
 * total energy  :   -92.5292336 Eh     change       -0.9148048E-06 Eh
 * total energy  :   -92.5292348 Eh     change       -0.1189645E-05 Eh
 * total energy  :   -92.5292354 Eh     change       -0.6191108E-06 Eh
 * total energy  :   -92.5292357 Eh     change       -0.2936139E-06 Eh
 * total energy  :   -92.5292357 Eh     change       -0.4296379E-07 Eh
 * total energy  :   -92.5292360 Eh     change       -0.2523893E-06 Eh
 * total energy  :   -92.5292363 Eh     change       -0.3221262E-06 Eh
 * total energy  :   -92.5292363 Eh     change       -0.2335506E-07 Eh
 * total energy  :   -92.5292365 Eh     change       -0.1430300E-06 Eh
 * total energy  :   -92.5292365 Eh     change       -0.7753584E-09 Eh
   *** GEOMETRY OPTIMIZATION CONVERGED AFTER 13 ITERATIONS ***

 final structure:
================
55
 xtb: 6.7.1 (edcfbbe)
O            6.83473165549181       -0.77246856025932       -0.46717965688576
C            5.74403407268963       -0.28970667320078       -0.21943436756110
C            5.57381186963426        1.15715828292798        0.04981728407370
C            6.70074879001374        1.97449212340953        0.03750410071811
C            6.59217840053371        3.33098850573357        0.28377222521300
C            5.34992876147252        3.89056539573524        0.54450201550524
C            4.22257159674766        3.09045393644898        0.55785914488953
C            4.31932954258794        1.72243297452562        0.31343737497176
C            3.08676330532600        0.90865450906131        0.33640814690219
O            1.98718297195228        1.39935921124695        0.51539615884375
C            3.26621233414988       -0.54380858536779        0.11393342668622
C            2.14030016649274       -1.35333699401899        0.17220138083031
C            2.23774212450865       -2.71658732749709       -0.06845083273604
S            0.84917973215855       -3.79936167701757       -0.01099095812956
C           -0.52293024319823       -2.66140443787223       -0.04323687159335
C           -1.46382760529915       -2.70363319649616        0.97423878666470
C           -2.52447739526955       -1.81896904657536        0.96503052409298
C           -2.64944875985126       -0.88606745684184       -0.06263092016087
N           -3.70099097280941        0.03168155494265       -0.06143752677484
C           -5.04010351549168       -0.26408319554659        0.11470204365275
C           -5.65984777337119       -1.49393170249057        0.27992500980451
C           -7.03638575903927       -1.51119443314268        0.40295615115036
C           -7.78578332390973       -0.33830099394433        0.35412870589835
C           -7.17631665772122        0.88589394997787        0.16384633136634
C           -5.79431527215654        0.92868551474195        0.03795561707848
C           -4.85590652949970        1.99353804789942       -0.18573051983601
C           -4.98938662384444        3.36901094398975       -0.32222471688060
C           -3.85067150898553        4.12842875085072       -0.50238516872596
C           -2.59080146092464        3.53495369617862       -0.52857454852281
C           -2.43217045371435        2.16844262484387       -0.39571726913746
C           -3.57592877934518        1.39819529615138       -0.24394782064886
C           -1.71265942834614       -0.87099248645282       -1.09598889296848
C           -0.65848780782086       -1.76016268401224       -1.09117701458594
C            3.48599883521144       -3.28068108842655       -0.33894690775687
C            4.60730570726297       -2.48240063494133       -0.37929373910723
C            4.51977897572804       -1.10596918276132       -0.16166585124246
H            7.65764168838200        1.51849223660509       -0.16958910550223
H            7.47452695379346        3.95329445705577        0.27186402091069
H            5.26222165044126        4.94955450367695        0.73628188405643
H            3.24528073781638        3.50461742287778        0.75756557679402
H            1.19593944942910       -0.88644339846856        0.40927323530808
H           -1.35196432240764       -3.41635078808645        1.77674616163089
H           -3.24328129934764       -1.82623137274858        1.76996522323232
H           -5.09124030011792       -2.41155563926689        0.29918965228868
H           -7.54189434783430       -2.45622022556889        0.53637749405459
H           -8.85921223748834       -0.39343508859171        0.45727553705747
H           -7.75823253592001        1.79342248389062        0.10847477194014
H           -5.96471113346139        3.82997034868451       -0.28152581127340
H           -3.93221434997153        5.19952442300248       -0.61304581297266
H           -1.71565069766681        4.15564639796261       -0.64981780848381
H           -1.44742791305788        1.72638659425805       -0.39302088581816
H           -1.82605806203127       -0.16959050752365       -1.90821628212195
H            0.06375203607547       -1.75264185626344       -1.89389942824754
H            3.55792088781376       -4.34308800021765       -0.51533343227771
H            5.57915253818817       -2.90434763507713       -0.58763991446355

          :  Hamiltonian                  GFN2-xTB          :
         :: gradient norm              0.000132645337 Eh/a0 ::
         :: HOMO-LUMO gap              1.038380106985 eV    ::
         :: SCC energy               -94.128027892545 Eh    ::
         :: -> dispersion             -0.076099326541 Eh    ::
         :: repulsion energy           1.598791419005 Eh    ::

    * Orbital Energies and Occupations

         #    Occupation            Energy/Eh            Energy/eV
      -------------------------------------------------------------
         1        2.0000           -0.7326999             -19.9378
       ...           ...                  ...                  ...
        73        2.0000           -0.4307356             -11.7209
        74        2.0000           -0.4291649             -11.6782
        75        2.0000           -0.4286733             -11.6648
        76        2.0000           -0.4250888             -11.5673
        77        2.0000           -0.4227914             -11.5047
        78        2.0000           -0.4195541             -11.4166
        79        2.0000           -0.4180530             -11.3758
        80        2.0000           -0.4119055             -11.2085
        81        2.0000           -0.4063154             -11.0564
        82        2.0000           -0.3937692             -10.7150
        83        2.0000           -0.3819832             -10.3943
        84        2.0000           -0.3797157             -10.3326
        85        2.0000           -0.3651960              -9.9375 (HOMO)
        86                         -0.3270362              -8.8991 (LUMO)
        87                         -0.2816917              -7.6652
        88                         -0.2599386              -7.0733
        89                         -0.2519292              -6.8553
        90                         -0.2481715              -6.7531
        91                         -0.2463934              -6.7047
        92                         -0.2444077              -6.6507
        93                         -0.2229308              -6.0663
        94                         -0.2065768              -5.6212
        95                         -0.1970290              -5.3614
        96                         -0.1923999              -5.2355
       ...                                ...                  ...
       168                          0.7445266              20.2596
      -------------------------------------------------------------
                  HL-Gap            0.0381598 Eh            1.0384 eV

     #   Z          covCN         q      C6AA      α(0)
     1   8 O        0.858    -0.369    21.074     6.155
     2   6 C        2.830     0.223    23.312     7.912
     3   6 C        2.974    -0.011    28.298     8.726
     4   6 C        2.924    -0.016    28.401     8.740
     5   6 C        2.918    -0.019    28.494     8.753
     6   6 C        2.917    -0.021    28.521     8.758
     7   6 C        2.924    -0.015    28.394     8.738
     8   6 C        2.975    -0.013    28.336     8.732
     9   6 C        2.831     0.226    23.254     7.902
    10   8 O        0.858    -0.369    21.075     6.155
    11   6 C        2.976    -0.014    28.346     8.733
    12   6 C        2.954    -0.029    28.719     8.790
    13   6 C        2.964     0.057    26.718     8.478
    14  16 S        2.112    -0.119   146.059    20.341
    15   6 C        2.968     0.044    27.001     8.523
    16   6 C        2.958    -0.032    28.794     8.801
    17   6 C        2.923    -0.041    29.020     8.834
    18   6 C        2.912     0.069    26.448     8.433
    19   7 N        2.803    -0.042    22.059     6.976
    20   6 C        3.071     0.046    26.897     8.504
    21   6 C        2.910    -0.051    29.270     8.871
    22   6 C        2.924    -0.033    28.823     8.804
    23   6 C        2.920    -0.040    28.996     8.830
    24   6 C        2.913    -0.032    28.806     8.801
    25   6 C        3.067    -0.016    28.330     8.728
    26   6 C        3.067    -0.016    28.341     8.729
    27   6 C        2.913    -0.033    28.814     8.802
    28   6 C        2.920    -0.040    28.989     8.829
    29   6 C        2.925    -0.032    28.788     8.799
    30   6 C        2.910    -0.050    29.239     8.867
    31   6 C        3.072     0.046    26.892     8.503
    32   6 C        2.924    -0.040    28.994     8.830
    33   6 C        2.953    -0.029    28.727     8.791
    34   6 C        2.973    -0.032    28.802     8.803
    35   6 C        2.923    -0.016    28.399     8.739
    36   6 C        2.973    -0.020    28.502     8.757
    37   1 H        0.926     0.069     2.098     2.265
    38   1 H        0.926     0.048     2.340     2.392
    39   1 H        0.926     0.048     2.346     2.395
    40   1 H        0.926     0.067     2.121     2.278
    41   1 H        0.926     0.065     2.139     2.287
    42   1 H        0.926     0.053     2.286     2.365
    43   1 H        0.926     0.052     2.298     2.371
    44   1 H        0.926     0.026     2.637     2.539
    45   1 H        0.926     0.030     2.584     2.514
    46   1 H        0.926     0.029     2.595     2.519
    47   1 H        0.926     0.032     2.553     2.499
    48   1 H        0.926     0.032     2.563     2.504
    49   1 H        0.926     0.029     2.598     2.521
    50   1 H        0.926     0.033     2.541     2.493
    51   1 H        0.926     0.036     2.503     2.474
    52   1 H        0.926     0.052     2.292     2.367
    53   1 H        0.926     0.047     2.352     2.398
    54   1 H        0.926     0.057     2.239     2.340
    55   1 H        0.926     0.072     2.060     2.244

molecular dipole:
                 x           y           z       tot (Debye)
 q only:       -0.363       0.226       0.045
   full:       -0.305       0.426       0.056       1.339

 projected vibrational frequencies (cm⁻¹)
eigval :       -0.00    -0.00    -0.00     0.00     0.00     0.00
eigval :        8.53    11.23    15.25    28.94    42.12    47.49
eigval :       73.58    81.50   102.89   103.43   106.30   131.27
eigval :      144.01   158.73   174.71   184.56   203.65   247.40
eigval :      251.76   267.55   271.83   279.41   292.31   328.34
eigval :      364.35   366.17   373.15   381.54   389.40   398.46
eigval :      399.19   403.59   405.11   421.88   436.62   456.89
eigval :      479.36   484.67   504.38   517.06   518.55   533.51
eigval :      541.15   579.25   591.92   607.10   612.77   615.27
eigval :      632.44   656.70   669.71   673.46   676.91   681.93
eigval :      683.37   688.46   708.45   738.98   758.22   770.55
eigval :      772.31   781.87   789.08   803.80   815.35   835.57
eigval :      866.05   874.83   878.62   888.18   896.69   897.89
eigval :      902.74   904.96   906.42   918.25   921.91   925.51
eigval :      925.86   926.96   930.30   932.40   934.35   978.19
eigval :     1006.53  1011.83  1071.07  1074.58  1081.44  1085.19
eigval :     1098.98  1108.02  1119.04  1123.26  1130.06  1153.17
eigval :     1171.49  1174.46  1176.36  1180.53  1181.05  1201.14
eigval :     1208.04  1225.21  1235.60  1236.34  1244.98  1250.86
eigval :     1258.45  1278.31  1299.62  1300.70  1316.59  1333.97
eigval :     1346.74  1356.47  1360.45  1365.56  1395.20  1402.74
eigval :     1421.16  1425.58  1427.78  1445.33  1456.88  1474.51
eigval :     1475.98  1487.50  1546.75  1557.95  1560.54  1575.69
eigval :     1576.01  1576.12  1580.82  1589.51  1599.22  1613.99
eigval :     1670.30  1682.78  3077.22  3078.80  3082.35  3082.73
eigval :     3085.00  3087.96  3089.34  3089.53  3092.15  3092.23
eigval :     3094.14  3095.80  3096.90  3097.21  3098.81  3099.38
eigval :     3101.51  3102.44  3104.44

   temp. (K)  partition function   enthalpy   heat capacity  entropy
                                   cal/mol     cal/K/mol   cal/K/mol   J/K/mol
 298.15  VIB  0.307E+13            15984.666    102.393     98.887
         ROT  0.419E+08              888.752      2.981     37.860
         INT  0.129E+21            16873.418    105.374    136.747
         TR   0.102E+29             1481.254      4.968     44.383
         TOT                       18354.6721   110.3425   181.1307   757.8509

       T/K    H(0)-H(T)+PV         H(T)/Eh          T*S/Eh         G(T)/Eh
   ------------------------------------------------------------------------
    298.15    0.292500E-01    0.433720E+00    0.860610E-01    0.347659E+00
   ------------------------------------------------------------------------

         :::::::::::::::::::::::::::::::::::::::::::::::::::::
         ::                  THERMODYNAMIC                  ::
         :::::::::::::::::::::::::::::::::::::::::::::::::::::
         :: total free energy         -92.181577538445 Eh   ::
         ::.................................................::
         :: total energy              -92.529236473540 Eh   ::
         :: zero point energy           0.404469945497 Eh   ::
         :: G(RRHO) w/o ZPVE           -0.056811010402 Eh   ::
         :: G(RRHO) contrib.            0.347658935095 Eh   ::
         :::::::::::::::::::::::::::::::::::::::::::::::::::::

           -------------------------------------------------
          | TOTAL ENERGY              -92.529236473540 Eh   |
          | TOTAL ENTHALPY            -92.095516496137 Eh   |
          | TOTAL FREE ENERGY         -92.181577538445 Eh   |
          | GRADIENT NORM               0.000132677690 Eh/α |
          | HOMO-LUMO GAP               1.038380686157 eV   |
           -------------------------------------------------

 * finished run on 2025/07/19 at 19:16:49.848
