   * xtb version 6.7.1 (edcfbbe) compiled by 'albert@albert-system' on 2024-07-22

   ID    Z sym.   atoms
    1    8 O      1, 10
    2    6 C      2-9, 11-13, 15-18, 20-36
    3   16 S      14
    4    7 N      19
    5    1 H      37-55

          program call               : xtb data2507/gas/AQ-S-CZ/AQ-S-CZ_gas_S0_finalOpt.xtbopt.xyz --gfn 2 --spinpol --tblite --uhf 2 --ohess vtight --parallel 40 --molden --ceasefiles --namespace data2507/gas/AQ-S-CZ/AQ-S-CZ_gas_T1_preOpt
 * total energy  :   -92.4712228 Eh     change       -0.1393532E-07 Eh
 * total energy  :   -92.4741168 Eh     change       -0.2893987E-02 Eh
 * total energy  :   -92.4747416 Eh     change       -0.6248603E-03 Eh
 * total energy  :   -92.4747885 Eh     change       -0.4688853E-04 Eh
 * total energy  :   -92.4748276 Eh     change       -0.3908427E-04 Eh
 * total energy  :   -92.4748460 Eh     change       -0.1842469E-04 Eh
 * total energy  :   -92.4748765 Eh     change       -0.3044483E-04 Eh
 * total energy  :   -92.4749088 Eh     change       -0.3235545E-04 Eh
 * total energy  :   -92.4749288 Eh     change       -0.1991156E-04 Eh
 * total energy  :   -92.4749497 Eh     change       -0.2089457E-04 Eh
 * total energy  :   -92.4754181 Eh     change       -0.2420034E-06 Eh
 * total energy  :   -92.4754183 Eh     change       -0.2089805E-06 Eh
 * total energy  :   -92.4754185 Eh     change       -0.2527761E-06 Eh
 * total energy  :   -92.4754188 Eh     change       -0.2250181E-06 Eh
 * total energy  :   -92.4754190 Eh     change       -0.2676431E-06 Eh
 * total energy  :   -92.4754192 Eh     change       -0.2065658E-06 Eh
 * total energy  :   -92.4754194 Eh     change       -0.1827016E-06 Eh
 * total energy  :   -92.4754196 Eh     change       -0.1656319E-06 Eh
 * total energy  :   -92.4754197 Eh     change       -0.8166147E-07 Eh
   *** GEOMETRY OPTIMIZATION CONVERGED AFTER 62 ITERATIONS ***

 final structure:
================
55
 xtb: 6.7.1 (edcfbbe)
O            6.66079166175060       -0.73850847805029       -1.04875089493466
C            5.63310048155668       -0.25990524584804       -0.54787926388853
C            5.51519356506573        1.14749127843683       -0.19118698705161
C            6.62139205948773        1.98159061382034       -0.41549752858586
C            6.56324516285991        3.31788671916556       -0.10825885951595
C            5.39584218002429        3.86330217023636        0.43183807670684
C            4.30323918456495        3.06470344043239        0.65753466585274
C            4.34363416728241        1.69427076187148        0.35493847520980
C            3.15770036862594        0.89704374089132        0.62207596911588
O            2.10630474783785        1.37871007320156        1.07085307589992
C            3.29255621787684       -0.51565878982337        0.30464216716065
C            2.19891474213031       -1.34922597023560        0.56438025868702
C            2.24180298540122       -2.68032434837425        0.22280771929972
S            0.85936710429169       -3.74692380049689        0.54598612273773
C           -0.50821660560948       -2.64657523106357        0.32333515411338
C           -1.60220082782165       -2.76155786554201        1.17430515797438
C           -2.66781077405898       -1.89470259627108        1.05053412481595
C           -2.65124535108948       -0.90036667690685        0.07254041113656
N           -3.69683929558341        0.01692910459073       -0.02545885763300
C           -5.04610804759312       -0.28056876862840       -0.04068406498484
C           -5.67946391032486       -1.51526324630585       -0.02474343151641
C           -7.06092406508827       -1.53167975588701       -0.08259987704981
C           -7.79850633525563       -0.35394705996371       -0.16585631446696
C           -7.17102554735835        0.87762220033786       -0.21105880507705
C           -5.78624784632671        0.91903894171068       -0.15301474954122
C           -4.82612089735742        1.99012825140769       -0.19685792912505
C           -4.94142580285479        3.36997298095605       -0.27578052702190
C           -3.78666721526966        4.13090491896926       -0.26449337876668
C           -2.53435447322293        3.53232615445296       -0.15600552238280
C           -2.39413416625632        2.15901421130824       -0.07572737577647
C           -3.54887949056948        1.38980387912317       -0.11841437741119
C           -1.57049071635037       -0.82038336540914       -0.80748845434160
C           -0.51125035968042       -1.69223714837759       -0.68964022406366
C            3.40566670906280       -3.23621786456817       -0.33190097721271
C            4.49514773749989       -2.43704915720793       -0.55287600974847
C            4.45845872696832       -1.06187205945728       -0.26206075762690
H            7.50942239774918        1.53362586300307       -0.83639604501714
H            7.42156520797125        3.94900413350542       -0.28511385301685
H            5.35358812486642        4.91520461785616        0.67314367950887
H            3.38793099024570        3.45796680009088        1.07493000914409
H            1.33024783396711       -0.90441887885306        1.02750821852450
H           -1.59678181697781       -3.51383829335953        1.94773473743614
H           -3.49684584033150       -1.95380636562265        1.73888736635509
H           -5.11649828013021       -2.43517832485012        0.01688766824526
H           -7.57779287339950       -2.47943013507309       -0.06746628668809
H           -8.87590197109218       -0.40771564269418       -0.20657719995410
H           -7.74310835376911        1.78888033610895       -0.29486910874698
H           -5.91301770981663        3.83581478501843       -0.33764905528982
H           -3.85439383519404        5.20649867654098       -0.32741845715188
H           -1.65108424679547        4.15183873592689       -0.12713919125214
H           -1.41839114837161        1.71180588044964        0.03502389273037
H           -1.57799013131234       -0.08306031765732       -1.59536007803864
H            0.31730459084829       -1.63047650508052       -1.37866290702189
H            3.42762367380763       -4.28582151329490       -0.58049110077815
H            5.40566582161213       -2.83369623677099       -0.97694930354763

 projected vibrational frequencies (cm⁻¹)
eigval :       -0.00    -0.00    -0.00     0.00     0.00     0.00
eigval :        7.88    13.81    15.74    37.31    41.33    50.24
eigval :       80.55    88.71   103.49   108.40   121.32   142.96
eigval :      145.28   162.02   178.30   184.51   205.74   250.11
eigval :      256.89   267.80   270.66   281.00   298.93   327.75
eigval :      357.43   359.39   372.19   382.71   387.87   395.92
eigval :      402.67   403.75   420.13   424.56   435.54   456.74
eigval :      478.26   480.93   501.57   510.74   516.09   538.16
eigval :      538.47   567.29   578.76   590.35   595.32   611.15
eigval :      615.91   630.73   649.05   656.94   666.96   673.85
eigval :      676.20   683.14   709.43   718.76   738.67   757.21
eigval :      770.66   777.20   780.62   804.23   812.97   816.94
eigval :      863.75   873.52   876.56   877.70   884.16   896.26
eigval :      897.40   903.69   906.41   911.87   914.74   917.80
eigval :      918.04   921.67   925.04   927.02   932.29   956.91
eigval :     1005.01  1011.30  1069.83  1073.04  1076.93  1081.89
eigval :     1092.45  1104.79  1116.42  1123.99  1133.07  1147.80
eigval :     1158.54  1168.86  1175.44  1178.94  1180.19  1182.49
eigval :     1202.66  1205.26  1216.48  1224.43  1231.47  1241.72
eigval :     1246.92  1258.48  1288.60  1294.41  1318.91  1347.63
eigval :     1354.87  1355.85  1361.33  1365.68  1375.90  1389.61
eigval :     1405.12  1405.32  1417.41  1419.75  1433.74  1464.44
eigval :     1466.13  1473.84  1482.83  1514.98  1540.68  1546.06
eigval :     1548.78  1549.12  1570.30  1571.77  1571.96  1584.33
eigval :     1586.11  1606.19  3076.53  3083.03  3084.18  3084.94
eigval :     3087.78  3088.56  3089.74  3091.33  3092.03  3092.61
eigval :     3094.42  3095.35  3095.55  3097.45  3101.28  3101.43
eigval :     3103.55  3104.52  3105.52

   temp. (K)  partition function   enthalpy   heat capacity  entropy
                                   cal/mol     cal/K/mol   cal/K/mol   J/K/mol
 298.15  VIB  0.145E+13            15995.211    103.538     98.203
         ROT  0.417E+08              888.752      2.981     37.848
         INT  0.602E+20            16883.963    106.519    136.052
         TR   0.102E+29             1481.254      4.968     44.383
         TOT                       18365.2170   111.4868   180.4350   754.9398

       T/K    H(0)-H(T)+PV         H(T)/Eh          T*S/Eh         G(T)/Eh
   ------------------------------------------------------------------------
    298.15    0.292668E-01    0.431320E+00    0.857305E-01    0.345589E+00
   ------------------------------------------------------------------------

         :::::::::::::::::::::::::::::::::::::::::::::::::::::
         ::                  THERMODYNAMIC                  ::
         :::::::::::::::::::::::::::::::::::::::::::::::::::::
         :: total free energy         -92.129830202876 Eh   ::
         ::.................................................::
         :: total energy              -92.475419664601 Eh   ::
         :: zero point energy           0.402053092798 Eh   ::
         :: G(RRHO) w/o ZPVE           -0.056463631074 Eh   ::
         :: G(RRHO) contrib.            0.345589461725 Eh   ::
         :::::::::::::::::::::::::::::::::::::::::::::::::::::

           -------------------------------------------------
          | TOTAL ENERGY              -92.475419664601 Eh   |
          | TOTAL ENTHALPY            -92.044099735627 Eh   |
          | TOTAL FREE ENERGY         -92.129830202876 Eh   |
          | GRADIENT NORM               0.000056052143 Eh/α |
           -------------------------------------------------

 * finished run on 2025/07/19 at 19:16:57.286
