   * xtb version 6.7.1 (edcfbbe) compiled by 'albert@albert-system' on 2024-07-22

   ID    Z sym.   atoms
    1    8 O      1
    2   15 P      2
    3    6 C      3-15, 17-23, 25, 27-38
    4    7 N      16, 24, 26, 39
    5    1 H      40-62

          program call               : xtb data2507/toluene/PhCzSPOTz/PhCzSPOTz_toluene_T1_crest.xyz --gfn 2 --uhf 2 --gbsa toluene --ohess vtight --parallel 40 --molden --ceasefiles --namespace data2507/toluene/PhCzSPOTz/PhCzSPOTz_toluene_T1_finalOpt
      * Solvation model:               GBSA
        Solvent                        toluene
        Solvent mass                       9.2140E+01 g/mol
          :  Hamiltonian                  GFN2-xTB          :
 * total energy  :  -100.7229760 Eh     change       -0.2011021E-08 Eh
 * total energy  :  -100.7231217 Eh     change       -0.1456543E-03 Eh
 * total energy  :  -100.7232181 Eh     change       -0.9643434E-04 Eh
 * total energy  :  -100.7232442 Eh     change       -0.2604081E-04 Eh
 * total energy  :  -100.7232923 Eh     change       -0.4815640E-04 Eh
 * total energy  :  -100.7233228 Eh     change       -0.3048680E-04 Eh
 * total energy  :  -100.7233470 Eh     change       -0.2414572E-04 Eh
 * total energy  :  -100.7233748 Eh     change       -0.2788049E-04 Eh
 * total energy  :  -100.7233903 Eh     change       -0.1550586E-04 Eh
 * total energy  :  -100.7234173 Eh     change       -0.2694739E-04 Eh
 * total energy  :  -100.7235586 Eh     change       -0.3827471E-06 Eh
 * total energy  :  -100.7235590 Eh     change       -0.4570323E-06 Eh
 * total energy  :  -100.7235596 Eh     change       -0.5509767E-06 Eh
 * total energy  :  -100.7235602 Eh     change       -0.6467206E-06 Eh
 * total energy  :  -100.7235608 Eh     change       -0.5154631E-06 Eh
 * total energy  :  -100.7235610 Eh     change       -0.2440944E-06 Eh
 * total energy  :  -100.7235611 Eh     change       -0.1227415E-06 Eh
 * total energy  :  -100.7235612 Eh     change       -0.1090590E-06 Eh
 * total energy  :  -100.7235613 Eh     change       -0.8717060E-07 Eh
   *** GEOMETRY OPTIMIZATION CONVERGED AFTER 64 ITERATIONS ***

 final structure:
================
62
 xtb: 6.7.1 (edcfbbe)
O            2.01310688464252       -1.63872879833053        2.37787454937665
P            2.05635056536887       -1.48047955990720        0.91173342548900
C            3.68450685335726       -0.96633308225380        0.28755560827413
C            4.30643396765430       -1.55012299471648       -0.80656277984152
C            5.56059051904929       -1.10584548538538       -1.19171684008077
C            6.18323715680602       -0.08332842780564       -0.49478661604396
C            5.56074966683267        0.49532269619040        0.60139295837125
C            4.31113022590486        0.05300198845384        0.99404203758621
C            1.46256554106190       -2.91397456040110       -0.02170806680718
C            1.28334651382836       -4.11122607871102        0.65800645247996
C            0.83939583834640       -5.22887258508161       -0.02768239550891
C            0.57092089562423       -5.14527277215813       -1.38481151196072
C            0.73991195545081       -3.94549326614513       -2.06102783212194
C            1.18576620792942       -2.82606885137590       -1.38231931164817
C            0.92024964578879       -0.10748160057073        0.42224914769064
N            1.45721755339807        1.03057345840003        0.20010084918344
C            0.57374706564262        2.07711511488841       -0.03605586921222
C            1.07387150583827        3.37609208491825       -0.26223759286438
C            2.45929768869938        3.63370804249466       -0.18394116267721
C            2.95061935607641        4.89932006778437       -0.39679298891969
C            2.08979180453477        5.95128721236852       -0.69448898665079
C            0.72289329524840        5.71216910230194       -0.78245646922794
C            0.21402868394425        4.45237204494329       -0.57371722141105
N           -0.74596883933498        1.76978751344915       -0.08163488108812
C           -1.18752394462999        0.57364109738346        0.14463320661375
N           -2.52428887759832        0.30587202815275        0.09724496518463
C           -3.12698736798807       -0.94632337525253       -0.02780934151094
C           -2.55718017395024       -2.20013667643141       -0.18482393486279
C           -3.40755815660501       -3.28693854021169       -0.30430917691147
C           -4.79009483718900       -3.13504505906752       -0.28272793665834
C           -5.36453069361741       -1.88426096723013       -0.13822654844473
C           -4.53059834837114       -0.78372664004599       -0.01166217514216
C           -4.78818674271379        0.62525698882899        0.14715187723395
C           -5.95126193610877        1.37601507084227        0.22699334192870
C           -5.84560016287466        2.74584436026728        0.39656727204072
C           -4.60167578120804        3.36238892156854        0.49154673113098
C           -3.42925758256060        2.62915488907168        0.41621140962830
C           -3.53022482341705        1.26190429205951        0.22204989852023
N           -0.34784908948468       -0.47243912353095        0.44401805868043
H            3.82011175406050       -2.34955133730103       -1.34658845937732
H            6.05005475382139       -1.56047717732212       -2.03999210181988
H            7.15756118402281        0.26366124781784       -0.80431345517222
H            6.04722329856151        1.28954572574963        1.14786928598362
H            3.80636493877348        0.48295104014773        1.84901434710809
H            1.49458757244910       -4.14395606421030        1.71753222635341
H            0.70204691402683       -6.16183038871682        0.49779088564391
H            0.22254003355385       -6.01611542951542       -1.91927645307526
H            0.52219802606820       -3.88195634235399       -3.11669297187178
H            1.31514320701132       -1.88172199550694       -1.89500605257963
H            3.11808677606523        2.80919032654933        0.04545749622755
H            4.01440048681868        5.07909734289789       -0.33222652088035
H            2.48041891727271        6.94385295678457       -0.85923271670752
H            0.05085807840044        6.52509256160833       -1.01962165231683
H           -0.84545517092958        4.26277712759698       -0.65725806548544
H           -1.48705316657379       -2.32475689188860       -0.19909917953629
H           -2.98415658112386       -4.27268393653826       -0.41981260341209
H           -5.42047631792629       -4.00537490382851       -0.38330806601239
H           -6.43628905992194       -1.76279893744564       -0.12409036560142
H           -6.91607990168803        0.89830223839422        0.15915838300839
H           -6.73931040119562        3.34685330666708        0.46683520468472
H           -4.54650713306406        4.43023550383610        0.63872396945727
H           -2.46316781475461        3.09927001512645        0.51420725516689

          :  Hamiltonian                  GFN2-xTB          :
         :: gradient norm              0.000047542169 Eh/a0 ::
         :: HOMO-LUMO gap              0.481247107618 eV    ::
         :: SCC energy              -102.490974996978 Eh    ::
         :: -> dispersion             -0.089278836227 Eh    ::
         :: -> Gsolv                  -0.052237546538 Eh    ::
         :: repulsion energy           1.767413680057 Eh    ::

    * Orbital Energies and Occupations

         #    Occupation            Energy/Eh            Energy/eV
      -------------------------------------------------------------
         1        2.0000           -0.7212316             -19.6257
       ...           ...                  ...                  ...
        82        2.0000           -0.4304681             -11.7136
        83        2.0000           -0.4295074             -11.6875
        84        2.0000           -0.4279348             -11.6447
        85        2.0000           -0.4250210             -11.5654
        86        2.0000           -0.4240190             -11.5381
        87        2.0000           -0.4215854             -11.4719
        88        2.0000           -0.4051057             -11.0235
        89        2.0000           -0.4050408             -11.0217
        90        2.0000           -0.4027319             -10.9589
        91        1.9997           -0.3990622             -10.8590
        92        1.9906           -0.3956430             -10.7660
        93        1.0097           -0.3868177             -10.5258
        94        0.9999           -0.2981897              -8.1142 (HOMO)
        95        0.0001           -0.2805042              -7.6329 (LUMO)
        96                         -0.2675528              -7.2805
        97                         -0.2617506              -7.1226
        98                         -0.2583788              -7.0308
        99                         -0.2501851              -6.8079
       100                         -0.2467309              -6.7139
       101                         -0.2416999              -6.5770
       102                         -0.2245862              -6.1113
       103                         -0.2198324              -5.9819
       104                         -0.2055543              -5.5934
       105                         -0.1992161              -5.4209
       ...                                ...                  ...
       184                          1.1504137              31.3044
      -------------------------------------------------------------
                  HL-Gap            0.0176855 Eh            0.4812 eV

     #   Z          covCN         q      C6AA      α(0)
     1   8 O        0.808    -0.374    21.187     6.170
     2  15 P        4.169     0.089   156.328    22.460
     3   6 C        2.922     0.015    27.684     8.628
     4   6 C        2.971    -0.025    28.632     8.777
     5   6 C        2.920    -0.024    28.601     8.770
     6   6 C        2.920    -0.020    28.517     8.757
     7   6 C        2.919    -0.023    28.569     8.765
     8   6 C        3.039    -0.012    28.281     8.722
     9   6 C        2.922     0.014    27.690     8.629
    10   6 C        3.018    -0.016    28.385     8.739
    11   6 C        2.919    -0.022    28.563     8.764
    12   6 C        2.920    -0.019    28.485     8.752
    13   6 C        2.919    -0.024    28.592     8.769
    14   6 C        2.988    -0.021    28.516     8.760
    15   6 C        2.936     0.241    22.989     7.864
    16   7 N        1.940    -0.285    28.237     7.880
    17   6 C        2.941     0.150    24.751     8.159
    18   6 C        2.973    -0.012    28.319     8.729
    19   6 C        2.923    -0.042    29.037     8.837
    20   6 C        2.915    -0.032    28.794     8.799
    21   6 C        2.918    -0.043    29.071     8.842
    22   6 C        2.915    -0.032    28.808     8.801
    23   6 C        2.921    -0.043    29.078     8.843
    24   7 N        1.846    -0.253    27.450     7.765
    25   6 C        2.895     0.274    22.382     7.757
    26   7 N        2.805    -0.040    22.005     6.967
    27   6 C        3.053     0.054    26.732     8.479
    28   6 C        2.910    -0.041    29.016     8.833
    29   6 C        2.924    -0.031    28.763     8.795
    30   6 C        2.920    -0.032    28.806     8.801
    31   6 C        2.912    -0.030    28.747     8.792
    32   6 C        3.063    -0.011    28.232     8.713
    33   6 C        3.059    -0.009    28.194     8.708
    34   6 C        2.913    -0.030    28.737     8.790
    35   6 C        2.920    -0.032    28.793     8.799
    36   6 C        2.923    -0.030    28.738     8.791
    37   6 C        2.910    -0.043    29.076     8.842
    38   6 C        3.059     0.052    26.784     8.487
    39   7 N        1.966    -0.336    29.529     8.059
    40   1 H        0.926     0.048     2.346     2.395
    41   1 H        0.926     0.059     2.211     2.325
    42   1 H        0.926     0.061     2.190     2.314
    43   1 H        0.926     0.055     2.255     2.348
    44   1 H        0.925     0.047     2.363     2.404
    45   1 H        0.926     0.056     2.244     2.343
    46   1 H        0.926     0.060     2.202     2.321
    47   1 H        0.926     0.062     2.171     2.304
    48   1 H        0.926     0.056     2.246     2.343
    49   1 H        0.925     0.034     2.528     2.486
    50   1 H        0.926     0.030     2.587     2.515
    51   1 H        0.926     0.031     2.565     2.505
    52   1 H        0.926     0.032     2.559     2.502
    53   1 H        0.926     0.034     2.533     2.489
    54   1 H        0.926     0.026     2.648     2.545
    55   1 H        0.926     0.044     2.394     2.420
    56   1 H        0.926     0.048     2.345     2.395
    57   1 H        0.926     0.053     2.285     2.364
    58   1 H        0.926     0.054     2.265     2.353
    59   1 H        0.926     0.056     2.243     2.342
    60   1 H        0.926     0.054     2.268     2.355
    61   1 H        0.926     0.050     2.318     2.381
    62   1 H        0.926     0.048     2.346     2.395

molecular dipole:
                 x           y           z       tot (Debye)
 q only:       -1.033      -1.459      -1.907
   full:       -0.817      -1.427      -1.888       6.364

 projected vibrational frequencies (cm⁻¹)
eigval :       -0.00    -0.00     0.00     0.00     0.00     0.00
eigval :        2.05     8.68    14.07    22.96    32.81    33.35
eigval :       45.13    52.70    59.52    67.79    71.87    79.68
eigval :       90.95   111.04   130.76   134.13   156.62   171.45
eigval :      177.10   196.74   197.68   200.76   229.18   242.78
eigval :      256.56   268.29   278.26   307.73   328.60   340.57
eigval :      359.04   362.89   367.69   372.93   387.96   410.27
eigval :      416.16   420.06   429.46   444.24   452.32   498.02
eigval :      507.87   511.43   515.31   522.23   533.26   559.73
eigval :      565.82   582.78   583.50   583.71   585.10   609.64
eigval :      635.18   641.42   645.98   653.85   654.74   671.32
eigval :      681.79   706.63   719.99   735.36   738.72   742.06
eigval :      747.71   763.57   768.48   776.27   786.71   813.01
eigval :      839.68   856.64   865.61   868.13   869.34   878.36
eigval :      900.07   900.66   901.30   902.95   906.50   909.03
eigval :      915.94   918.48   919.75   923.57   929.69   932.63
eigval :      932.89   954.87   967.60   971.07   973.06   993.97
eigval :     1012.70  1063.14  1068.81  1069.64  1072.98  1074.26
eigval :     1075.84  1108.58  1109.35  1112.93  1113.24  1116.55
eigval :     1119.97  1135.94  1167.19  1172.01  1173.80  1175.06
eigval :     1175.39  1178.99  1184.72  1187.17  1189.26  1209.76
eigval :     1215.77  1221.74  1233.15  1263.74  1267.62  1272.73
eigval :     1277.76  1285.69  1319.13  1320.08  1322.19  1333.53
eigval :     1337.07  1357.08  1388.08  1403.52  1408.23  1417.41
eigval :     1419.78  1424.98  1444.80  1446.38  1456.81  1457.81
eigval :     1474.92  1495.51  1528.77  1558.98  1570.74  1574.25
eigval :     1575.59  1576.58  1577.47  1578.49  1580.36  1594.88
eigval :     1629.40  3052.91  3058.97  3065.42  3068.29  3075.90
eigval :     3076.03  3082.26  3084.00  3085.32  3086.19  3086.80
eigval :     3088.28  3088.78  3091.09  3091.57  3093.49  3096.42
eigval :     3097.88  3098.96  3100.20  3103.26  3104.58  3115.67

   temp. (K)  partition function   enthalpy   heat capacity  entropy
                                   cal/mol     cal/K/mol   cal/K/mol   J/K/mol
 298.15  VIB  0.212E+17            18867.178    115.774    120.912
         ROT  0.403E+08              888.752      2.981     37.779
         INT  0.855E+24            19755.931    118.755    158.691
         TR   0.116E+29             1481.254      4.968     44.627
         TOT                       21237.1847   123.7230   203.3176   850.6808

       T/K    H(0)-H(T)+PV         H(T)/Eh          T*S/Eh         G(T)/Eh
   ------------------------------------------------------------------------
    298.15    0.338436E-01    0.492613E+00    0.966028E-01    0.396010E+00
   ------------------------------------------------------------------------

         :::::::::::::::::::::::::::::::::::::::::::::::::::::
         ::                  THERMODYNAMIC                  ::
         :::::::::::::::::::::::::::::::::::::::::::::::::::::
         :: total free energy        -100.327551423151 Eh   ::
         ::.................................................::
         :: total energy             -100.723561319739 Eh   ::
         :: zero point energy           0.458769040984 Eh   ::
         :: G(RRHO) w/o ZPVE           -0.062759144395 Eh   ::
         :: G(RRHO) contrib.            0.396009896589 Eh   ::
         :::::::::::::::::::::::::::::::::::::::::::::::::::::

           -------------------------------------------------
          | TOTAL ENERGY             -100.723561319739 Eh   |
          | TOTAL ENTHALPY           -100.230948670664 Eh   |
          | TOTAL FREE ENERGY        -100.327551423151 Eh   |
          | GRADIENT NORM               0.000046787598 Eh/α |
          | HOMO-LUMO GAP               0.481245916481 eV   |
           -------------------------------------------------

 * finished run on 2025/09/13 at 00:52:00.954
