   * xtb version 6.7.1 (edcfbbe) compiled by 'albert@albert-system' on 2024-07-22

   ID    Z sym.   atoms
    1    8 O      1
    2   15 P      2
    3    6 C      3-15, 17-23, 25, 27-38
    4    7 N      16, 24, 26, 39
    5    1 H      40-62

          program call               : xtb data2507/toluene/PhCzSPOTz/PhCzSPOTz_toluene_S0_crest.xyz --gfn 2 --gbsa toluene --ohess vtight --parallel 40 --molden --ceasefiles --namespace data2507/toluene/PhCzSPOTz/PhCzSPOTz_toluene_S0_finalOpt
      * Solvation model:               GBSA
        Solvent                        toluene
        Solvent mass                       9.2140E+01 g/mol
          :  Hamiltonian                  GFN2-xTB          :
 * total energy  :  -100.8095697 Eh     change       -0.1805773E-09 Eh
 * total energy  :  -100.8097233 Eh     change       -0.1536508E-03 Eh
 * total energy  :  -100.8098024 Eh     change       -0.7902701E-04 Eh
 * total energy  :  -100.8098348 Eh     change       -0.3249650E-04 Eh
 * total energy  :  -100.8098787 Eh     change       -0.4388598E-04 Eh
 * total energy  :  -100.8099526 Eh     change       -0.7390381E-04 Eh
 * total energy  :  -100.8099993 Eh     change       -0.4661477E-04 Eh
 * total energy  :  -100.8100343 Eh     change       -0.3508522E-04 Eh
 * total energy  :  -100.8100692 Eh     change       -0.3490403E-04 Eh
 * total energy  :  -100.8100824 Eh     change       -0.1315299E-04 Eh
 * total energy  :  -100.8103659 Eh     change       -0.7286023E-06 Eh
 * total energy  :  -100.8103665 Eh     change       -0.6136003E-06 Eh
 * total energy  :  -100.8103671 Eh     change       -0.5276511E-06 Eh
 * total energy  :  -100.8103674 Eh     change       -0.3735085E-06 Eh
 * total energy  :  -100.8103678 Eh     change       -0.3125564E-06 Eh
 * total energy  :  -100.8103680 Eh     change       -0.2550646E-06 Eh
 * total energy  :  -100.8103682 Eh     change       -0.2109690E-06 Eh
 * total energy  :  -100.8103683 Eh     change       -0.1136542E-06 Eh
 * total energy  :  -100.8103684 Eh     change       -0.1451180E-07 Eh
   *** GEOMETRY OPTIMIZATION CONVERGED AFTER 42 ITERATIONS ***

 final structure:
================
62
 xtb: 6.7.1 (edcfbbe)
O            2.27349534297626       -1.51318750749055        2.26880720538512
P            2.14827642384277       -1.44109736017079        0.79662915430770
C            3.69888959015172       -0.98730071182845       -0.03667619390902
C            4.15275959205268       -1.58656515969403       -1.20325372123089
C            5.34570518391165       -1.16649928289184       -1.76747671339437
C            6.07794396806437       -0.15067048234836       -1.17445345166841
C            5.62525016186376        0.44527278262682       -0.00707164208579
C            4.43823951441830        0.02475755166562        0.56422203324220
C            1.46691756455386       -2.93511940002195        0.03137538719169
C            1.44117504358610       -4.10293248278785        0.78121568295769
C            0.91515159795523       -5.26129354378129        0.23572850159102
C            0.41302918895477       -5.24877337822932       -1.05577855692770
C            0.43577803253495       -4.08134516806300       -1.80460451465642
C            0.96374760188070       -2.92293190690840       -1.26479723947775
C            0.97110128409077       -0.10402931744404        0.38361603784676
N            1.46957760549570        1.11192713238975        0.30485156717149
C            0.55182676448374        2.08304869832874        0.20530448397347
C            1.02741601411613        3.46397541110131        0.17446158956187
C            2.37746799522653        3.72414793016386       -0.06258838490023
C            2.83569408498366        5.02719658988708       -0.09230626169666
C            1.95638659218589        6.07868853885929        0.11938855071799
C            0.61487087023936        5.82554045067436        0.36354430025872
C            0.14851147203473        4.52514605141303        0.39029018724271
N           -0.75218632691794        1.86034499621447        0.13235186233537
C           -1.14496558999498        0.58631821793541        0.18153431096735
N           -2.46823792765676        0.31059708969255        0.07039312055507
C           -3.07219171986769       -0.93940543009007        0.28475208054347
C           -2.51619965834131       -2.15507991730286        0.64648160099712
C           -3.36681506200625       -3.23814873959033        0.80363876410896
C           -4.73815264777784       -3.12275317152935        0.61012204536151
C           -5.29978602283075       -1.90948932064991        0.25784901451776
C           -4.46355949487318       -0.81490074071923        0.09578350235278
C           -4.72252250366422        0.55907069674342       -0.25579943488410
C           -5.89026184231346        1.24070482964098       -0.56546141430628
C           -5.80584396036051        2.58241944648290       -0.88865993275506
C           -4.57564827113778        3.22850141144291       -0.91438236787465
C           -3.39941855868374        2.56259714840052       -0.60770924962701
C           -3.48016087328965        1.22383215437652       -0.26498393786627
N           -0.29678068987239       -0.44082733408826        0.33414761832943
H            3.58095595581581       -2.38134055918392       -1.66090575570433
H            5.70369897938747       -1.63553291348694       -2.67199237278806
H            7.00613783034231        0.17455951025759       -1.61994345964239
H            6.19734113919891        1.23456465341803        0.45794033227673
H            4.06658419739849        0.46523467107585        1.47933489140513
H            1.83175731463978       -4.07890344639078        1.78936411661196
H            0.89467318896197       -6.17007275110273        0.81847078138748
H           -0.00102421943222       -6.15053106491471       -1.48124937360685
H            0.03922679617903       -4.07381333148670       -2.80908641857226
H            0.98125973269946       -2.00403666539711       -1.83602184714779
H            3.04492421861488        2.89151218229560       -0.22490575389906
H            3.88040542054183        5.22434564777470       -0.28019150502560
H            2.31732811846423        7.09600121518945        0.09733864863909
H           -0.06802721105884        6.64395612973646        0.53534958298340
H           -0.88989324190974        4.31300196896126        0.59327906650523
H           -1.45584106072489       -2.25995202680588        0.80184332655025
H           -2.94697287739065       -4.19205144131630        1.08497190565560
H           -5.36847840250199       -3.98925771497288        0.74064607475601
H           -6.36406545613341       -1.80955173967540        0.11238299414281
H           -6.83986445064235        0.72895871266838       -0.55583457766899
H           -6.70147380688536        3.13410845997850       -1.13083660332051
H           -4.52931306071365        4.27358082566899       -1.18129621133191
H           -2.45024635626646        3.06830179230138       -0.64077026845523

          :  Hamiltonian                  GFN2-xTB          :
         :: gradient norm              0.000096239098 Eh/a0 ::
         :: HOMO-LUMO gap              2.326478662814 eV    ::
         :: SCC energy              -102.579189730737 Eh    ::
         :: -> dispersion             -0.088973323339 Eh    ::
         :: -> Gsolv                  -0.054383794071 Eh    ::
         :: repulsion energy           1.768821376106 Eh    ::

    * Orbital Energies and Occupations

         #    Occupation            Energy/Eh            Energy/eV
      -------------------------------------------------------------
         1        2.0000           -0.7133787             -19.4120
       ...           ...                  ...                  ...
        81        2.0000           -0.4322393             -11.7618
        82        2.0000           -0.4275353             -11.6338
        83        2.0000           -0.4266042             -11.6085
        84        2.0000           -0.4248119             -11.5597
        85        2.0000           -0.4245913             -11.5537
        86        2.0000           -0.4236373             -11.5278
        87        2.0000           -0.4226579             -11.5011
        88        2.0000           -0.4214032             -11.4670
        89        2.0000           -0.4169578             -11.3460
        90        2.0000           -0.4017737             -10.9328
        91        2.0000           -0.3958609             -10.7719
        92        2.0000           -0.3936914             -10.7129
        93        2.0000           -0.3877280             -10.5506 (HOMO)
        94                         -0.3022315              -8.2241 (LUMO)
        95                         -0.2875009              -7.8233
        96                         -0.2617631              -7.1229
        97                         -0.2597380              -7.0678
        98                         -0.2537457              -6.9048
        99                         -0.2447295              -6.6594
       100                         -0.2425711              -6.6007
       101                         -0.2417274              -6.5777
       102                         -0.2378042              -6.4710
       103                         -0.2330063              -6.3404
       104                         -0.2047760              -5.5722
       ...                                ...                  ...
       184                          1.1469127              31.2091
      -------------------------------------------------------------
                  HL-Gap            0.0854965 Eh            2.3265 eV

     #   Z          covCN         q      C6AA      α(0)
     1   8 O        0.808    -0.389    21.491     6.214
     2  15 P        4.131     0.029   158.933    22.646
     3   6 C        2.921     0.017    27.634     8.621
     4   6 C        2.970    -0.028    28.689     8.786
     5   6 C        2.920    -0.026    28.660     8.779
     6   6 C        2.920    -0.023    28.586     8.768
     7   6 C        2.919    -0.026    28.651     8.778
     8   6 C        3.039    -0.014    28.324     8.729
     9   6 C        2.921     0.018    27.603     8.616
    10   6 C        3.019    -0.018    28.434     8.747
    11   6 C        2.919    -0.025    28.618     8.772
    12   6 C        2.920    -0.021    28.539     8.760
    13   6 C        2.919    -0.025    28.632     8.775
    14   6 C        2.987    -0.020    28.495     8.756
    15   6 C        2.956     0.251    22.793     7.831
    16   7 N        1.935    -0.325    29.264     8.021
    17   6 C        2.996     0.224    23.296     7.917
    18   6 C        2.983    -0.009    28.244     8.718
    19   6 C        2.924    -0.023    28.589     8.768
    20   6 C        2.918    -0.025    28.639     8.776
    21   6 C        2.920    -0.020    28.507     8.756
    22   6 C        2.918    -0.026    28.649     8.777
    23   6 C        2.923    -0.025    28.623     8.773
    24   7 N        1.846    -0.328    29.348     8.029
    25   6 C        2.929     0.291    22.083     7.707
    26   7 N        2.803    -0.053    22.266     7.008
    27   6 C        3.045     0.053    26.765     8.485
    28   6 C        2.911    -0.046    29.139     8.852
    29   6 C        2.924    -0.031    28.779     8.797
    30   6 C        2.920    -0.034    28.854     8.809
    31   6 C        2.913    -0.033    28.818     8.803
    32   6 C        3.061    -0.011    28.235     8.714
    33   6 C        3.060    -0.011    28.228     8.713
    34   6 C        2.913    -0.033    28.810     8.802
    35   6 C        2.920    -0.035    28.860     8.810
    36   6 C        2.924    -0.032    28.788     8.799
    37   6 C        2.911    -0.048    29.201     8.861
    38   6 C        3.046     0.052    26.787     8.489
    39   7 N        1.942    -0.320    29.139     8.004
    40   1 H        0.926     0.042     2.423     2.434
    41   1 H        0.926     0.053     2.280     2.361
    42   1 H        0.926     0.056     2.243     2.342
    43   1 H        0.926     0.052     2.294     2.369
    44   1 H        0.925     0.047     2.357     2.401
    45   1 H        0.925     0.051     2.302     2.372
    46   1 H        0.926     0.055     2.260     2.351
    47   1 H        0.926     0.058     2.221     2.330
    48   1 H        0.926     0.051     2.305     2.374
    49   1 H        0.925     0.029     2.602     2.522
    50   1 H        0.926     0.048     2.341     2.393
    51   1 H        0.926     0.053     2.278     2.360
    52   1 H        0.926     0.057     2.230     2.335
    53   1 H        0.926     0.054     2.267     2.355
    54   1 H        0.926     0.049     2.327     2.385
    55   1 H        0.926     0.045     2.380     2.413
    56   1 H        0.926     0.044     2.391     2.418
    57   1 H        0.926     0.050     2.324     2.384
    58   1 H        0.926     0.052     2.300     2.372
    59   1 H        0.926     0.050     2.314     2.379
    60   1 H        0.926     0.049     2.330     2.387
    61   1 H        0.926     0.048     2.349     2.397
    62   1 H        0.926     0.052     2.291     2.367

molecular dipole:
                 x           y           z       tot (Debye)
 q only:       -0.782       0.556      -2.083
   full:       -0.622       0.550      -2.108       5.759

 projected vibrational frequencies (cm⁻¹)
eigval :       -0.00    -0.00    -0.00     0.00     0.00     0.00
eigval :        8.81    15.17    23.34    27.15    27.98    34.25
eigval :       43.04    48.49    58.31    63.20    72.52    82.05
eigval :       94.86   118.36   135.17   136.93   150.69   158.57
eigval :      177.10   195.31   202.06   211.28   229.11   239.45
eigval :      260.72   275.02   279.29   323.38   341.11   351.52
eigval :      360.37   364.10   366.50   366.57   390.88   411.65
eigval :      419.52   427.12   432.70   443.49   473.13   510.62
eigval :      514.30   521.01   537.74   539.98   585.00   585.30
eigval :      586.47   586.66   597.07   614.06   620.98   639.82
eigval :      651.84   657.12   657.83   672.26   677.63   686.10
eigval :      713.18   723.64   741.02   744.09   752.46   754.14
eigval :      774.81   784.01   784.68   793.40   841.22   874.21
eigval :      875.88   877.25   879.57   880.91   901.41   903.48
eigval :      907.55   908.08   909.24   913.77   923.52   926.16
eigval :      927.86   929.24   930.11   931.77   933.17   935.00
eigval :      970.53   975.53   976.62  1013.78  1014.91  1047.28
eigval :     1069.62  1074.84  1075.94  1076.60  1078.36  1109.83
eigval :     1111.98  1113.39  1115.58  1119.63  1126.84  1144.98
eigval :     1157.08  1173.53  1176.77  1176.85  1177.61  1178.50
eigval :     1186.19  1187.06  1189.80  1207.23  1210.65  1220.41
eigval :     1231.97  1255.00  1266.63  1267.22  1270.00  1273.69
eigval :     1292.70  1317.88  1318.62  1321.22  1332.43  1345.90
eigval :     1355.63  1377.09  1410.21  1418.60  1419.23  1421.68
eigval :     1428.05  1448.93  1449.67  1450.48  1464.33  1474.38
eigval :     1478.74  1494.92  1549.81  1580.31  1580.53  1580.83
eigval :     1581.39  1582.49  1583.42  1588.96  1591.94  1596.07
eigval :     1606.80  3051.91  3066.26  3069.46  3071.59  3080.57
eigval :     3082.17  3082.39  3084.38  3085.06  3086.76  3086.98
eigval :     3087.08  3091.93  3093.20  3093.96  3095.99  3097.19
eigval :     3099.82  3100.87  3102.58  3102.98  3126.26  3136.12

   temp. (K)  partition function   enthalpy   heat capacity  entropy
                                   cal/mol     cal/K/mol   cal/K/mol   J/K/mol
 298.15  VIB  0.144E+16            18500.856    113.092    116.659
         ROT  0.403E+08              888.752      2.981     37.782
         INT  0.580E+23            19389.608    116.073    154.441
         TR   0.116E+29             1481.254      4.968     44.627
         TOT                       20870.8622   121.0410   199.0679   832.9001

       T/K    H(0)-H(T)+PV         H(T)/Eh          T*S/Eh         G(T)/Eh
   ------------------------------------------------------------------------
    298.15    0.332598E-01    0.496863E+00    0.945836E-01    0.402279E+00
   ------------------------------------------------------------------------

         :::::::::::::::::::::::::::::::::::::::::::::::::::::
         ::                  THERMODYNAMIC                  ::
         :::::::::::::::::::::::::::::::::::::::::::::::::::::
         :: total free energy        -100.408089405963 Eh   ::
         ::.................................................::
         :: total energy             -100.810368355413 Eh   ::
         :: zero point energy           0.463602696366 Eh   ::
         :: G(RRHO) w/o ZPVE           -0.061323746916 Eh   ::
         :: G(RRHO) contrib.            0.402278949450 Eh   ::
         :::::::::::::::::::::::::::::::::::::::::::::::::::::

           -------------------------------------------------
          | TOTAL ENERGY             -100.810368355413 Eh   |
          | TOTAL ENTHALPY           -100.313505823032 Eh   |
          | TOTAL FREE ENERGY        -100.408089405963 Eh   |
          | GRADIENT NORM               0.000096254482 Eh/α |
          | HOMO-LUMO GAP               2.326478758827 eV   |
           -------------------------------------------------

 * finished run on 2025/09/13 at 00:45:03.666
