   * xtb version 6.7.1 (edcfbbe) compiled by 'albert@albert-system' on 2024-07-22

   ID    Z sym.   atoms
    1    8 O      1
    2   15 P      2
    3    6 C      3-15, 17-23, 25, 27-38
    4    7 N      16, 24, 26, 39
    5    1 H      40-62

          program call               : xtb data2507/toluene/PhCzSPOTz/PhCzSPOTz.xyz --gfn 2 --gbsa toluene --ohess vtight --parallel 40 --molden --ceasefiles --namespace data2507/toluene/PhCzSPOTz/PhCzSPOTz_toluene_S0_preOpt
      * Solvation model:               GBSA
        Solvent                        toluene
        Solvent mass                       9.2140E+01 g/mol
          :  Hamiltonian                  GFN2-xTB          :
 * total energy  :  -100.7872144 Eh     change       -0.3185079E-09 Eh
 * total energy  :  -100.8018740 Eh     change       -0.1465965E-01 Eh
 * total energy  :  -100.8069338 Eh     change       -0.5059743E-02 Eh
 * total energy  :  -100.8078813 Eh     change       -0.9475614E-03 Eh
 * total energy  :  -100.8084282 Eh     change       -0.5468597E-03 Eh
 * total energy  :  -100.8085497 Eh     change       -0.1214816E-03 Eh
 * total energy  :  -100.8086448 Eh     change       -0.9514059E-04 Eh
 * total energy  :  -100.8087016 Eh     change       -0.5675736E-04 Eh
 * total energy  :  -100.8087488 Eh     change       -0.4725687E-04 Eh
 * total energy  :  -100.8087871 Eh     change       -0.3822087E-04 Eh
 * total energy  :  -100.8091950 Eh     change       -0.7594337E-06 Eh
 * total energy  :  -100.8091957 Eh     change       -0.7284381E-06 Eh
 * total energy  :  -100.8091964 Eh     change       -0.6771456E-06 Eh
 * total energy  :  -100.8091971 Eh     change       -0.6356233E-06 Eh
 * total energy  :  -100.8091977 Eh     change       -0.6002837E-06 Eh
 * total energy  :  -100.8091982 Eh     change       -0.5696020E-06 Eh
 * total energy  :  -100.8091988 Eh     change       -0.5524696E-06 Eh
 * total energy  :  -100.8091993 Eh     change       -0.5586834E-06 Eh
 * total energy  :  -100.8091993 Eh     change       -0.3322270E-08 Eh
   *** GEOMETRY OPTIMIZATION CONVERGED AFTER 94 ITERATIONS ***

 final structure:
================
62
 xtb: 6.7.1 (edcfbbe)
O            1.53872590392402       -2.85927097290519        1.35386072355277
P            2.03508798840428       -1.68987726380393        0.61000683066847
C            3.40010839858818       -0.81868983340824        1.43725861291479
C            4.08788816349631        0.23549165525090        0.84934218745288
C            5.11098388095909        0.85406062323514        1.54493355473605
C            5.45039358058605        0.42327998488964        2.81874684795782
C            4.76720492520386       -0.63130021191852        3.40244071092045
C            3.74129217799307       -1.25243246024321        2.71157673840792
C            2.58676741658235       -2.07668912292074       -1.08141960751094
C            2.91944014328655       -3.40041155819852       -1.33951048864453
C            3.35031806044964       -3.77242293917816       -2.60060029575361
C            3.44703916057698       -2.82130521948800       -3.60393123625004
C            3.10847493342665       -1.50123860190535       -3.34880523942893
C            2.67691803866560       -1.12428661567707       -2.08923282679080
C            0.74730260972633       -0.41326327059213        0.35556087033441
N            1.10126178175843        0.82550876071132        0.06967544576674
C            0.07574409172196        1.66619515497926       -0.12111684873675
C            0.39416600900952        3.05121458779743       -0.46278019911832
C            1.67280233164251        3.54884327507022       -0.21149565175844
C            1.98029147190362        4.85829006968476       -0.52764215471149
C            1.02021197597720        5.67902410798848       -1.10028636608130
C           -0.25053992586445        5.18744818156276       -1.35881195346423
C           -0.56647891338854        3.88027213958524       -1.04101532158497
N           -1.19805651635270        1.31761841319382       -0.02416555818711
C           -1.44551332586822        0.04035559834428        0.27523618746345
N           -2.73462716550902       -0.36444170300964        0.37960036375365
C           -3.17442092449082       -1.69271944751456        0.51565247132711
C           -2.45398789117043       -2.86979189976176        0.63297915108509
C           -3.16364285046854       -4.05640070782119        0.73534135279476
C           -4.55303759085127       -4.08093998582417        0.72300032700718
C           -5.27650480648040       -2.90809721351879        0.61010673560175
C           -4.58379808602252       -1.71105477104297        0.50639292146883
C           -5.02583283421394       -0.34421339925715        0.38252188098415
C           -6.28774563255099        0.22983486155185        0.34108080843560
C           -6.38461682970025        1.60553885404735        0.23965058221185
C           -5.24132968449655        2.39396858404544        0.19133941948923
C           -3.97284271550485        1.83656583358761        0.23003680585043
C           -3.86994175402823        0.45859115321348        0.31308968358990
N           -0.47864880852439       -0.86676562401790        0.46586767544105
H            3.81810083205564        0.56492374847783       -0.14162934769486
H            5.64804351589679        1.67395020086129        1.09116931528278
H            6.25088979434987        0.90954317314909        3.35605582996353
H            5.03162454604453       -0.97052732247762        4.39303382410927
H            3.19373283339692       -2.07968325536432        3.14263473718907
H            2.82432987796244       -4.12361182618572       -0.54127971866217
H            3.60820563939510       -4.80185791054838       -2.79959949094015
H            3.78126864258240       -3.10922044610516       -4.58934340107961
H            3.17749074739199       -0.76269012254554       -4.13391293317863
H            2.39807312173268       -0.09892602551709       -1.88888319515542
H            2.40399898743273        2.89698261964234        0.24146466645753
H            2.96951771019600        5.24105537383375       -0.32623698021123
H            1.26293144304287        6.70169070804770       -1.34721211755618
H           -0.99639266715686        5.82481286623512       -1.80956911551266
H           -1.54730223066612        3.48096052382279       -1.24868659743605
H           -1.37760279202500       -2.86917898221673        0.65386618781639
H           -2.61492079225250       -4.98147854309288        0.82955263293012
H           -5.06931206259991       -5.02540974592689        0.80555412784123
H           -6.35529513747107       -2.91732947474742        0.60244185935978
H           -7.17039617866593       -0.38831801549829        0.39160942495597
H           -7.35618201382740        2.07458329645959        0.20463503766356
H           -5.33819460246068        3.46723122731402        0.12547746111609
H           -3.09346700275394        2.45600991565887        0.20436965154410

          :  Hamiltonian                  GFN2-xTB          :
         :: gradient norm              0.000046011857 Eh/a0 ::
         :: HOMO-LUMO gap              2.321297276879 eV    ::
         :: SCC energy              -102.578738778883 Eh    ::
         :: -> dispersion             -0.087046051065 Eh    ::
         :: -> Gsolv                  -0.053308270491 Eh    ::
         :: repulsion energy           1.769539443003 Eh    ::

    * Orbital Energies and Occupations

         #    Occupation            Energy/Eh            Energy/eV
      -------------------------------------------------------------
         1        2.0000           -0.7123513             -19.3841
       ...           ...                  ...                  ...
        81        2.0000           -0.4302841             -11.7086
        82        2.0000           -0.4266074             -11.6086
        83        2.0000           -0.4263461             -11.6015
        84        2.0000           -0.4251349             -11.5685
        85        2.0000           -0.4249064             -11.5623
        86        2.0000           -0.4231651             -11.5149
        87        2.0000           -0.4229622             -11.5094
        88        2.0000           -0.4199685             -11.4279
        89        2.0000           -0.4151145             -11.2958
        90        2.0000           -0.4000208             -10.8851
        91        2.0000           -0.3943511             -10.7308
        92        2.0000           -0.3925888             -10.6829
        93        2.0000           -0.3873871             -10.5413 (HOMO)
        94                         -0.3020810              -8.2200 (LUMO)
        95                         -0.2897809              -7.8853
        96                         -0.2637459              -7.1769
        97                         -0.2590596              -7.0494
        98                         -0.2489136              -6.7733
        99                         -0.2448555              -6.6629
       100                         -0.2421304              -6.5887
       101                         -0.2415392              -6.5726
       102                         -0.2363474              -6.4313
       103                         -0.2326558              -6.3309
       104                         -0.2043712              -5.5612
       ...                                ...                  ...
       184                          1.1703187              31.8460
      -------------------------------------------------------------
                  HL-Gap            0.0853061 Eh            2.3213 eV

     #   Z          covCN         q      C6AA      α(0)
     1   8 O        0.808    -0.375    21.211     6.174
     2  15 P        4.115     0.019   159.358    22.677
     3   6 C        2.921     0.016    27.664     8.625
     4   6 C        2.975    -0.024    28.609     8.774
     5   6 C        2.920    -0.027    28.668     8.780
     6   6 C        2.920    -0.024    28.596     8.769
     7   6 C        2.919    -0.027    28.675     8.781
     8   6 C        3.028    -0.022    28.518     8.759
     9   6 C        2.921     0.014    27.701     8.631
    10   6 C        3.030    -0.019    28.455     8.750
    11   6 C        2.919    -0.025    28.636     8.775
    12   6 C        2.920    -0.023    28.577     8.766
    13   6 C        2.919    -0.027    28.669     8.780
    14   6 C        2.971    -0.027    28.666     8.782
    15   6 C        2.948     0.246    22.891     7.847
    16   7 N        1.904    -0.328    29.356     8.033
    17   6 C        2.994     0.221    23.358     7.928
    18   6 C        2.984    -0.009    28.231     8.716
    19   6 C        2.924    -0.024    28.607     8.771
    20   6 C        2.918    -0.026    28.643     8.776
    21   6 C        2.920    -0.020    28.514     8.757
    22   6 C        2.918    -0.026    28.646     8.777
    23   6 C        2.923    -0.025    28.623     8.774
    24   7 N        1.846    -0.329    29.381     8.033
    25   6 C        2.925     0.291    22.088     7.707
    26   7 N        2.803    -0.053    22.271     7.009
    27   6 C        3.044     0.053    26.761     8.485
    28   6 C        2.910    -0.047    29.173     8.857
    29   6 C        2.924    -0.031    28.767     8.796
    30   6 C        2.920    -0.035    28.863     8.810
    31   6 C        2.913    -0.034    28.835     8.805
    32   6 C        3.061    -0.012    28.257     8.717
    33   6 C        3.059    -0.011    28.230     8.713
    34   6 C        2.913    -0.033    28.817     8.803
    35   6 C        2.920    -0.035    28.864     8.810
    36   6 C        2.924    -0.032    28.799     8.800
    37   6 C        2.911    -0.049    29.207     8.862
    38   6 C        3.045     0.052    26.788     8.489
    39   7 N        1.969    -0.307    28.780     7.956
    40   1 H        0.926     0.052     2.290     2.366
    41   1 H        0.926     0.053     2.282     2.362
    42   1 H        0.926     0.055     2.261     2.351
    43   1 H        0.926     0.050     2.316     2.380
    44   1 H        0.925     0.050     2.324     2.384
    45   1 H        0.925     0.053     2.277     2.360
    46   1 H        0.926     0.055     2.264     2.353
    47   1 H        0.926     0.057     2.238     2.339
    48   1 H        0.926     0.051     2.312     2.378
    49   1 H        0.925     0.037     2.488     2.467
    50   1 H        0.926     0.050     2.325     2.384
    51   1 H        0.926     0.053     2.282     2.362
    52   1 H        0.926     0.056     2.244     2.343
    53   1 H        0.926     0.053     2.282     2.362
    54   1 H        0.926     0.048     2.341     2.393
    55   1 H        0.926     0.058     2.224     2.332
    56   1 H        0.926     0.044     2.393     2.419
    57   1 H        0.926     0.048     2.345     2.395
    58   1 H        0.926     0.050     2.317     2.380
    59   1 H        0.926     0.050     2.323     2.383
    60   1 H        0.926     0.049     2.335     2.390
    61   1 H        0.926     0.047     2.351     2.398
    62   1 H        0.926     0.053     2.284     2.363

molecular dipole:
                 x           y           z       tot (Debye)
 q only:        0.160       1.884      -1.207
   full:        0.325       1.960      -1.213       5.917

 projected vibrational frequencies (cm⁻¹)
eigval :       -0.00    -0.00    -0.00    -0.00     0.00     0.00
eigval :        6.37    18.11    24.97    30.18    35.26    42.54
eigval :       47.92    55.25    59.90    62.97    82.16    91.37
eigval :       96.61   133.47   139.49   144.78   149.35   157.99
eigval :      177.26   195.62   202.31   217.15   224.42   239.26
eigval :      262.34   278.39   285.01   327.01   344.22   352.40
eigval :      365.71   368.40   370.39   385.41   393.71   412.05
eigval :      426.75   430.17   433.77   438.98   470.58   495.61
eigval :      513.66   520.81   539.03   540.95   584.05   585.22
eigval :      586.46   586.73   590.59   614.59   621.27   640.84
eigval :      651.73   656.01   658.25   674.38   679.45   684.96
eigval :      715.91   716.54   738.83   745.13   752.85   754.55
eigval :      775.19   784.58   785.30   793.23   837.37   874.92
eigval :      876.92   879.07   879.64   881.41   903.15   903.42
eigval :      906.36   908.34   910.50   916.28   924.54   926.04
eigval :      927.19   930.21   932.33   933.77   934.36   935.98
eigval :      970.05   973.35   975.77  1013.67  1015.06  1046.98
eigval :     1069.99  1075.18  1076.45  1078.28  1079.55  1108.97
eigval :     1112.48  1115.27  1115.80  1119.91  1121.08  1145.24
eigval :     1158.30  1173.60  1174.90  1176.21  1177.40  1178.06
eigval :     1186.45  1187.77  1193.92  1209.40  1220.21  1229.76
eigval :     1236.33  1254.55  1264.48  1266.38  1272.12  1272.97
eigval :     1292.88  1316.44  1318.78  1320.22  1330.66  1344.95
eigval :     1356.03  1377.33  1410.21  1418.05  1418.87  1420.98
eigval :     1428.18  1447.92  1449.39  1451.26  1463.73  1474.46
eigval :     1478.56  1492.52  1548.04  1579.25  1580.65  1580.73
eigval :     1581.07  1581.23  1582.38  1588.47  1591.78  1595.67
eigval :     1606.97  3065.23  3066.80  3070.28  3079.50  3081.22
eigval :     3082.70  3084.20  3084.36  3084.44  3086.46  3086.95
eigval :     3091.60  3092.64  3094.73  3095.03  3097.13  3100.40
eigval :     3100.70  3102.67  3102.83  3104.46  3133.46  3136.36

   temp. (K)  partition function   enthalpy   heat capacity  entropy
                                   cal/mol     cal/K/mol   cal/K/mol   J/K/mol
 298.15  VIB  0.496E+15            18365.971    113.649    115.589
         ROT  0.419E+08              888.752      2.981     37.858
         INT  0.208E+23            19254.724    116.630    153.447
         TR   0.116E+29             1481.254      4.968     44.627
         TOT                       20735.9777   121.5980   198.0737   828.7405

       T/K    H(0)-H(T)+PV         H(T)/Eh          T*S/Eh         G(T)/Eh
   ------------------------------------------------------------------------
    298.15    0.330449E-01    0.497076E+00    0.941112E-01    0.402965E+00
   ------------------------------------------------------------------------

         :::::::::::::::::::::::::::::::::::::::::::::::::::::
         ::                  THERMODYNAMIC                  ::
         :::::::::::::::::::::::::::::::::::::::::::::::::::::
         :: total free energy        -100.406234453155 Eh   ::
         ::.................................................::
         :: total energy             -100.809199338688 Eh   ::
         :: zero point energy           0.464031221624 Eh   ::
         :: G(RRHO) w/o ZPVE           -0.061066336091 Eh   ::
         :: G(RRHO) contrib.            0.402964885533 Eh   ::
         :::::::::::::::::::::::::::::::::::::::::::::::::::::

           -------------------------------------------------
          | TOTAL ENERGY             -100.809199338688 Eh   |
          | TOTAL ENTHALPY           -100.312123233150 Eh   |
          | TOTAL FREE ENERGY        -100.406234453155 Eh   |
          | GRADIENT NORM               0.000046011909 Eh/α |
          | HOMO-LUMO GAP               2.321297451961 eV   |
           -------------------------------------------------

 * finished run on 2025/09/13 at 00:39:00.127
