   * xtb version 6.7.1 (edcfbbe) compiled by 'albert@albert-system' on 2024-07-22

   ID    Z sym.   atoms
    1    8 O      1
    2   15 P      2
    3    6 C      3-15, 17-23, 25, 27-38
    4    7 N      16, 24, 26, 39
    5    1 H      40-62

          program call               : xtb data2507/toluene/PhCzSPOTz/PhCzSPOTz_toluene_S0_finalOpt.xtbopt.xyz --gfn 2 --uhf 2 --gbsa toluene --ohess vtight --parallel 40 --molden --ceasefiles --namespace data2507/toluene/PhCzSPOTz/PhCzSPOTz_toluene_T1_preOpt
      * Solvation model:               GBSA
        Solvent                        toluene
        Solvent mass                       9.2140E+01 g/mol
          :  Hamiltonian                  GFN2-xTB          :
 * total energy  :  -100.7148534 Eh     change       -0.1908120E-08 Eh
 * total energy  :  -100.7190418 Eh     change       -0.4188376E-02 Eh
 * total energy  :  -100.7215693 Eh     change       -0.2527476E-02 Eh
 * total energy  :  -100.7223119 Eh     change       -0.7426611E-03 Eh
 * total energy  :  -100.7226531 Eh     change       -0.3411486E-03 Eh
 * total energy  :  -100.7230641 Eh     change       -0.4110553E-03 Eh
 * total energy  :  -100.7231766 Eh     change       -0.1125155E-03 Eh
 * total energy  :  -100.7233147 Eh     change       -0.1380599E-03 Eh
 * total energy  :  -100.7233863 Eh     change       -0.7159997E-04 Eh
 * total energy  :  -100.7234312 Eh     change       -0.4492467E-04 Eh
 * total energy  :  -100.7237234 Eh     change       -0.5600664E-06 Eh
 * total energy  :  -100.7237239 Eh     change       -0.4982079E-06 Eh
 * total energy  :  -100.7237244 Eh     change       -0.4620009E-06 Eh
 * total energy  :  -100.7237248 Eh     change       -0.4165145E-06 Eh
 * total energy  :  -100.7237252 Eh     change       -0.3800895E-06 Eh
 * total energy  :  -100.7237256 Eh     change       -0.3870391E-06 Eh
 * total energy  :  -100.7237261 Eh     change       -0.5256727E-06 Eh
 * total energy  :  -100.7237269 Eh     change       -0.7581394E-06 Eh
 * total energy  :  -100.7237269 Eh     change       -0.1533485E-07 Eh
   *** GEOMETRY OPTIMIZATION CONVERGED AFTER 68 ITERATIONS ***

 final structure:
================
62
 xtb: 6.7.1 (edcfbbe)
O            2.16390556051945       -1.63258572455615        2.19662865552896
P            2.11498036190095       -1.47897118601812        0.72956115308112
C            3.70662040237205       -0.99694339437373       -0.00335350406730
C            4.23483615765893       -1.59025155478671       -1.14108979149614
C            5.46929907230038       -1.17397402107626       -1.61154978696441
C            6.16339935631384       -0.16980549042490       -0.95631591826177
C            5.63279694785956        0.41953039208037        0.18184258573497
C            4.40328894052736        0.00561223073181        0.66005929278603
C            1.41549642126343       -2.89913822522146       -0.14828831891090
C            1.23703385552152       -4.07864861527214        0.56209387171356
C            0.68325964824208       -5.18093373166856       -0.06574632890846
C            0.30399674287817       -5.09899702928918       -1.39598488589716
C            0.47989684814835       -3.91875178514335       -2.10372190584312
C            1.03601764424816       -2.81522942398522       -1.48351303132259
C            0.97157063023013       -0.08267955728053        0.32629942656229
N            1.47890263504990        1.08923603129757        0.33214240180699
C            0.56959045099235        2.13507992371565        0.20331964622851
C            1.03629496927751        3.46541608341459        0.16051542827767
C            2.42003139846395        3.73965014756215        0.12120209095537
C            2.87759733870414        5.03454748696431        0.06995597236590
C            1.98338096621195        6.10048311619685        0.05678434269300
C            0.61695875559961        5.84707955251235        0.10051335050541
C            0.14180791096669        4.55829038757227        0.15239968113206
N           -0.74586843466140        1.81072424758530        0.18429922954809
C           -1.15497877330599        0.58230129106104        0.18619902288392
N           -2.48448400032030        0.28194578283029        0.14973767881049
C           -3.07143661949915       -0.94479864205819        0.46263189824672
C           -2.49864186562015       -2.11235675887997        0.94289244296363
C           -3.33213805678851       -3.19251230407668        1.18039765913522
C           -4.70398728805716       -3.11387262169191        0.96301532980901
C           -5.28365218536957       -1.94528069214123        0.50043079736349
C           -4.46552355913271       -0.85407161608099        0.24999002792394
C           -4.73230788684124        0.48222400155795       -0.21933352463971
C           -5.89290900054053        1.15013264867893       -0.57960246657646
C           -5.79647670830630        2.46365248759520       -1.00623084144152
C           -4.56356696084018        3.10476226364223       -1.08109511842322
C           -3.39336522128622        2.45375660814806       -0.72833689160112
C           -3.48840578338871        1.14797051138223       -0.27751784842956
N           -0.28016570504526       -0.47839586728466        0.20113233654514
H            3.69185015124879       -2.37542892466288       -1.64700955270849
H            5.88748023295950       -1.63581054735186       -2.49342433853118
H            7.12209852674932        0.15482321424153       -1.33186364698180
H            6.17536651720694        1.19952859789253        0.69488493009669
H            3.96695960260191        0.44462151804506        1.54715825867496
H            1.53284430187473       -4.10950518229652        1.60163660288343
H            0.54427501454614       -6.09945852140084        0.48434573890117
H           -0.13417539453827       -5.95632409369559       -1.88422619395952
H            0.18007099272171       -3.85806516966817       -3.13929944056979
H            1.16799172640609       -1.88578292239830       -2.02067535329154
H            3.10493578101711        2.90473613114943        0.13043048419243
H            3.94076805334448        5.22664786969250        0.03970328766529
H            2.34756145692562        7.11570284605898        0.01725770563852
H           -0.08172938734044        6.67198036187917        0.09630626699355
H           -0.91842677881652        4.36118840834840        0.20326699620575
H           -1.43749677670259       -2.17720983814954        1.12142169568019
H           -2.90409097570726       -4.11160318458890        1.55051502582727
H           -5.32262130329967       -3.97478369689126        1.16585360944461
H           -6.34815186339461       -1.87917574864144        0.33843473455127
H           -6.84872863484499        0.65284038960113       -0.52688551201188
H           -6.68799249335036        2.99891405855697       -1.29542980940945
H           -4.51379441982913        4.12494460412599       -1.42996826584558
H           -2.43249451387493        2.93783937585106       -0.80641971518219

          :  Hamiltonian                  GFN2-xTB          :
         :: gradient norm              0.000081816389 Eh/a0 ::
         :: HOMO-LUMO gap              0.485793283166 eV    ::
         :: SCC energy              -102.491445830048 Eh    ::
         :: -> dispersion             -0.088662385721 Eh    ::
         :: -> Gsolv                  -0.052606720049 Eh    ::
         :: repulsion energy           1.767718952074 Eh    ::

    * Orbital Energies and Occupations

         #    Occupation            Energy/Eh            Energy/eV
      -------------------------------------------------------------
         1        2.0000           -0.7213302             -19.6284
       ...           ...                  ...                  ...
        82        2.0000           -0.4303142             -11.7094
        83        2.0000           -0.4293143             -11.6822
        84        2.0000           -0.4275522             -11.6343
        85        2.0000           -0.4248903             -11.5619
        86        2.0000           -0.4237641             -11.5312
        87        2.0000           -0.4214795             -11.4690
        88        2.0000           -0.4052498             -11.0274
        89        2.0000           -0.4049320             -11.0188
        90        2.0000           -0.4021436             -10.9429
        91        1.9998           -0.3989542             -10.8561
        92        1.9934           -0.3956402             -10.7659
        93        1.0068           -0.3861448             -10.5075
        94        0.9999           -0.2978388              -8.1046 (HOMO)
        95        0.0001           -0.2799859              -7.6188 (LUMO)
        96                         -0.2660293              -7.2390
        97                         -0.2619538              -7.1281
        98                         -0.2578059              -7.0153
        99                         -0.2481958              -6.7538
       100                         -0.2471093              -6.7242
       101                         -0.2415961              -6.5742
       102                         -0.2244052              -6.1064
       103                         -0.2196919              -5.9781
       104                         -0.2053995              -5.5892
       105                         -0.1988805              -5.4118
       ...                                ...                  ...
       184                          1.1533760              31.3850
      -------------------------------------------------------------
                  HL-Gap            0.0178529 Eh            0.4858 eV

     #   Z          covCN         q      C6AA      α(0)
     1   8 O        0.808    -0.377    21.254     6.180
     2  15 P        4.173     0.089   156.332    22.460
     3   6 C        2.922     0.014    27.702     8.631
     4   6 C        2.972    -0.026    28.636     8.778
     5   6 C        2.920    -0.024    28.603     8.770
     6   6 C        2.920    -0.020    28.514     8.757
     7   6 C        2.919    -0.023    28.569     8.765
     8   6 C        3.038    -0.013    28.298     8.725
     9   6 C        2.922     0.016    27.658     8.624
    10   6 C        3.022    -0.017    28.408     8.743
    11   6 C        2.919    -0.023    28.578     8.766
    12   6 C        2.920    -0.019    28.488     8.753
    13   6 C        2.919    -0.023    28.587     8.768
    14   6 C        2.987    -0.019    28.470     8.753
    15   6 C        2.937     0.241    22.982     7.862
    16   7 N        1.941    -0.286    28.260     7.883
    17   6 C        2.943     0.150    24.739     8.158
    18   6 C        2.973    -0.012    28.316     8.728
    19   6 C        2.923    -0.042    29.036     8.837
    20   6 C        2.915    -0.032    28.796     8.799
    21   6 C        2.918    -0.043    29.072     8.842
    22   6 C        2.915    -0.032    28.808     8.801
    23   6 C        2.921    -0.043    29.075     8.843
    24   7 N        1.845    -0.254    27.464     7.767
    25   6 C        2.896     0.273    22.398     7.759
    26   7 N        2.804    -0.039    21.994     6.965
    27   6 C        3.053     0.054    26.734     8.480
    28   6 C        2.910    -0.040    28.993     8.829
    29   6 C        2.923    -0.030    28.761     8.795
    30   6 C        2.920    -0.032    28.804     8.801
    31   6 C        2.912    -0.030    28.748     8.792
    32   6 C        3.062    -0.011    28.234     8.713
    33   6 C        3.059    -0.009    28.192     8.707
    34   6 C        2.913    -0.030    28.737     8.790
    35   6 C        2.920    -0.032    28.794     8.800
    36   6 C        2.923    -0.030    28.739     8.791
    37   6 C        2.910    -0.044    29.081     8.843
    38   6 C        3.059     0.051    26.795     8.489
    39   7 N        1.967    -0.337    29.557     8.062
    40   1 H        0.926     0.049     2.334     2.389
    41   1 H        0.926     0.059     2.208     2.324
    42   1 H        0.926     0.061     2.186     2.312
    43   1 H        0.926     0.056     2.248     2.345
    44   1 H        0.925     0.051     2.308     2.376
    45   1 H        0.925     0.055     2.261     2.351
    46   1 H        0.926     0.059     2.216     2.328
    47   1 H        0.926     0.061     2.184     2.311
    48   1 H        0.926     0.055     2.256     2.349
    49   1 H        0.925     0.037     2.486     2.466
    50   1 H        0.926     0.030     2.586     2.515
    51   1 H        0.926     0.031     2.566     2.505
    52   1 H        0.926     0.032     2.561     2.502
    53   1 H        0.926     0.034     2.535     2.490
    54   1 H        0.926     0.025     2.654     2.548
    55   1 H        0.926     0.045     2.382     2.414
    56   1 H        0.926     0.047     2.352     2.398
    57   1 H        0.926     0.053     2.286     2.364
    58   1 H        0.926     0.055     2.263     2.352
    59   1 H        0.926     0.056     2.246     2.344
    60   1 H        0.926     0.054     2.270     2.356
    61   1 H        0.926     0.050     2.318     2.381
    62   1 H        0.926     0.048     2.339     2.391

molecular dipole:
                 x           y           z       tot (Debye)
 q only:       -1.153      -1.512      -2.081
   full:       -0.937      -1.484      -2.095       6.946

 projected vibrational frequencies (cm⁻¹)
eigval :       -0.00    -0.00     0.00     0.00     0.00     0.00
eigval :        8.59    14.59    23.06    28.12    33.16    41.61
eigval :       44.08    47.18    59.96    65.94    71.45    80.59
eigval :       97.23   115.01   125.45   136.45   156.13   169.21
eigval :      182.15   193.60   197.17   202.46   229.16   246.18
eigval :      256.49   271.20   279.10   307.91   330.09   341.68
eigval :      356.61   362.53   368.08   375.28   390.77   408.75
eigval :      415.14   422.48   429.80   442.76   454.98   498.54
eigval :      507.97   512.10   515.37   523.34   535.91   560.33
eigval :      566.76   582.69   583.29   583.65   584.97   609.80
eigval :      634.20   640.43   647.43   653.47   654.51   672.98
eigval :      681.66   710.89   721.37   735.17   738.54   744.30
eigval :      747.83   763.49   767.61   777.04   804.50   815.07
eigval :      841.06   857.01   864.11   867.92   873.26   880.21
eigval :      899.52   900.02   900.32   906.07   906.32   908.95
eigval :      915.19   918.32   920.32   924.19   930.30   930.65
eigval :      935.64   955.19   967.62   970.73   973.25   996.52
eigval :     1012.60  1062.98  1067.96  1070.80  1073.36  1074.43
eigval :     1074.80  1109.06  1109.09  1112.38  1112.67  1116.98
eigval :     1120.69  1136.73  1166.99  1171.58  1174.15  1175.08
eigval :     1176.18  1181.00  1185.59  1187.38  1189.43  1210.17
eigval :     1215.90  1222.68  1233.97  1264.03  1267.72  1273.40
eigval :     1278.37  1285.33  1318.89  1321.42  1323.13  1334.23
eigval :     1337.21  1357.02  1388.21  1403.49  1409.13  1417.53
eigval :     1420.10  1425.36  1444.84  1446.61  1457.01  1457.77
eigval :     1475.19  1498.66  1528.81  1559.68  1570.87  1573.43
eigval :     1575.10  1577.42  1578.17  1578.51  1579.93  1595.03
eigval :     1630.37  3059.53  3063.99  3066.02  3068.69  3071.33
eigval :     3075.31  3083.41  3084.11  3084.68  3085.92  3086.39
eigval :     3086.72  3088.95  3089.43  3091.36  3093.43  3094.01
eigval :     3097.93  3098.03  3099.44  3101.85  3104.02  3107.67

   temp. (K)  partition function   enthalpy   heat capacity  entropy
                                   cal/mol     cal/K/mol   cal/K/mol   J/K/mol
 298.15  VIB  0.135E+16            18798.697    115.791    118.205
         ROT  0.402E+08              888.752      2.981     37.778
         INT  0.543E+23            19687.450    118.772    155.983
         TR   0.116E+29             1481.254      4.968     44.627
         TOT                       21168.7037   123.7398   200.6097   839.3512

       T/K    H(0)-H(T)+PV         H(T)/Eh          T*S/Eh         G(T)/Eh
   ------------------------------------------------------------------------
    298.15    0.337345E-01    0.492737E+00    0.953162E-01    0.397421E+00
   ------------------------------------------------------------------------

         :::::::::::::::::::::::::::::::::::::::::::::::::::::
         ::                  THERMODYNAMIC                  ::
         :::::::::::::::::::::::::::::::::::::::::::::::::::::
         :: total free energy        -100.326305804717 Eh   ::
         ::.................................................::
         :: total energy             -100.723726880679 Eh   ::
         :: zero point energy           0.459002760765 Eh   ::
         :: G(RRHO) w/o ZPVE           -0.061581684804 Eh   ::
         :: G(RRHO) contrib.            0.397421075962 Eh   ::
         :::::::::::::::::::::::::::::::::::::::::::::::::::::

           -------------------------------------------------
          | TOTAL ENERGY             -100.723726880679 Eh   |
          | TOTAL ENTHALPY           -100.230989643298 Eh   |
          | TOTAL FREE ENERGY        -100.326305804717 Eh   |
          | GRADIENT NORM               0.000083957802 Eh/α |
          | HOMO-LUMO GAP               0.485801568102 eV   |
           -------------------------------------------------

 * finished run on 2025/09/13 at 00:45:10.121
