   * xtb version 6.7.1 (edcfbbe) compiled by 'albert@albert-system' on 2024-07-22

   ID    Z sym.   atoms
    1    6 C      1-6, 10-15, 17-28
    2   16 S      7
    3    8 O      8, 9
    4    7 N      16
    5    1 H      29-45

          program call               : xtb data250606/gas/PSPCz/PSPCz_gas_S0_finalOpt.xtbopt.xyz --gfn 2 --spinpol --tblite --uhf 2 --ohess vtight --parallel 14 --molden --ceasefiles --namespace data250606/gas/PSPCz/PSPCz_gas_T1_preOpt
 * total energy  :   -74.2402174 Eh     change       -0.1333404E-08 Eh
 * total energy  :   -74.2425134 Eh     change       -0.2295968E-02 Eh
 * total energy  :   -74.2430799 Eh     change       -0.5665804E-03 Eh
 * total energy  :   -74.2431587 Eh     change       -0.7875263E-04 Eh
 * total energy  :   -74.2432057 Eh     change       -0.4700716E-04 Eh
 * total energy  :   -74.2432242 Eh     change       -0.1849319E-04 Eh
 * total energy  :   -74.2432438 Eh     change       -0.1960067E-04 Eh
 * total energy  :   -74.2432677 Eh     change       -0.2389056E-04 Eh
 * total energy  :   -74.2432851 Eh     change       -0.1741208E-04 Eh
 * total energy  :   -74.2433181 Eh     change       -0.3301773E-04 Eh
 * total energy  :   -74.2435765 Eh     change       -0.4504889E-06 Eh
 * total energy  :   -74.2435768 Eh     change       -0.3239159E-06 Eh
 * total energy  :   -74.2435770 Eh     change       -0.2291556E-06 Eh
 * total energy  :   -74.2435773 Eh     change       -0.2398570E-06 Eh
 * total energy  :   -74.2435775 Eh     change       -0.2110846E-06 Eh
 * total energy  :   -74.2435777 Eh     change       -0.2135631E-06 Eh
 * total energy  :   -74.2435780 Eh     change       -0.2619467E-06 Eh
 * total energy  :   -74.2435782 Eh     change       -0.2466359E-06 Eh
 * total energy  :   -74.2435782 Eh     change       -0.3752784E-07 Eh
   *** GEOMETRY OPTIMIZATION CONVERGED AFTER 44 ITERATIONS ***

 final structure:
================
45
 xtb: 6.7.1 (edcfbbe)
C            3.21903582673577        3.07826086906477        0.73395497829126
C            2.87815272114642        2.83036707493900       -0.58723831755411
C            2.90583471559951        1.53472565740727       -1.07479333218128
C            3.27933932664842        0.50316668196487       -0.23242052418785
C            3.62309394334346        0.73926998942683        1.08641842209669
C            3.59651108553208        2.03574711948468        1.56942000337433
S            3.18101719195328       -1.19369970495483       -0.80800605564104
O            2.98716255368544       -1.18669035420633       -2.23415893863797
O            4.26940064164721       -1.96257621545181       -0.26642651823897
C            1.65906778936984       -1.70164884251939       -0.00489454286162
C            1.63436258418453       -2.74509581030570        0.91688091633176
C            0.43916861703341       -3.03637184131840        1.56013277393639
C           -0.69543125063029       -2.28852585860395        1.31905725512296
C           -0.65373390745873       -1.21694432776331        0.40225814623184
C            0.54167296812235       -0.94603580010063       -0.26719284845759
N           -1.75936937777318       -0.41072463385000        0.18464642076194
C           -3.04984660107788       -0.81024897819063       -0.00648747833824
C           -3.58903141007911       -2.08408457135653       -0.08617344743568
C           -4.94849169793360       -2.20426016596940       -0.31980165963218
C           -5.76438185809573       -1.05385609393650       -0.47337205805340
C           -5.25345335438907        0.21499831202785       -0.42226484480737
C           -3.86932283611019        0.37905685816177       -0.20765570524603
C           -3.01221275601808        1.48635959564454       -0.13794921249034
C           -3.20944907017409        2.88357051326048       -0.24230023297448
C           -2.11739630713005        3.72621084744863       -0.03627579142707
C           -0.86889504929530        3.23310487255002        0.26604762643135
C           -0.64360133454522        1.82370212724080        0.36302683394106
C           -1.70268394708970        0.99396045438649        0.12534921532231
H            3.19517856283778        4.08829065220966        1.11532219786944
H            2.58929338571263        3.64405196562898       -1.23537842655604
H            2.65513493159178        1.30396411891369       -2.09851811518626
H            3.91510456580800       -0.09298933988997        1.70774268655073
H            3.86637470908887        2.23608440225483        2.59533766996719
H            2.53905779188790       -3.29987859167027        1.10085229507152
H            0.39939720914113       -3.84520362344128        2.27415938687308
H           -1.60657114158757       -2.48017148164660        1.86364779294948
H            0.58498766916646       -0.17532600274712       -1.02069767652478
H           -2.96714886048165       -2.96039872703530        0.01047357742438
H           -5.39748733676572       -3.18093489865541       -0.39443244861221
H           -6.82062224931440       -1.19859550280742       -0.64810726666801
H           -5.88378962987630        1.08051743852083       -0.55164416972838
H           -4.18340056173291        3.27953609081257       -0.47841317709514
H           -2.26073143674792        4.79422352107242       -0.11199023266256
H           -0.03715039262898        3.89676607845941        0.43586106701914
H            0.33452489396113        1.45957900623908        0.63593833469725

 projected vibrational frequencies (cm⁻¹)
eigval :       -0.00    -0.00    -0.00    -0.00     0.00     0.00
eigval :        9.04    24.86    37.06    43.10    49.48    65.84
eigval :       92.26   110.71   124.83   131.63   139.37   160.98
eigval :      212.52   227.29   233.18   248.81   272.67   286.80
eigval :      293.58   328.69   341.18   358.41   365.10   383.79
eigval :      400.08   409.25   429.73   437.75   456.35   474.29
eigval :      493.34   508.22   517.32   541.64   552.43   580.20
eigval :      584.96   597.04   629.24   635.36   647.26   654.46
eigval :      661.43   670.87   688.07   706.83   721.71   744.46
eigval :      751.69   765.25   773.00   811.08   815.05   831.11
eigval :      861.81   879.27   879.62   882.98   891.11   895.60
eigval :      899.07   903.59   914.40   926.11   930.20   937.15
eigval :      963.59   968.30  1012.52  1026.22  1058.92  1067.35
eigval :     1081.62  1091.10  1102.53  1104.92  1112.69  1122.70
eigval :     1143.04  1154.92  1158.95  1166.50  1177.00  1178.43
eigval :     1179.31  1207.70  1224.64  1227.56  1241.53  1256.12
eigval :     1260.75  1299.78  1305.17  1322.02  1327.38  1346.23
eigval :     1356.80  1369.64  1387.34  1391.30  1408.38  1424.15
eigval :     1428.89  1438.47  1439.95  1448.58  1488.37  1498.72
eigval :     1513.68  1549.00  1563.19  1573.12  3080.18  3080.82
eigval :     3081.34  3086.92  3087.84  3092.20  3092.58  3095.01
eigval :     3099.12  3101.63  3102.82  3103.07  3103.80  3107.11
eigval :     3111.57  3112.50  3121.06

   temp. (K)  partition function   enthalpy   heat capacity  entropy
                                   cal/mol     cal/K/mol   cal/K/mol   J/K/mol
 298.15  VIB  0.417E+10            13021.911     84.270     79.760
         ROT  0.145E+08              888.752      2.981     35.755
         INT  0.606E+17            13910.663     87.251    115.515
         TR   0.727E+28             1481.254      4.968     43.705
         TOT                       15391.9172    92.2192   159.2198   666.1756

       T/K    H(0)-H(T)+PV         H(T)/Eh          T*S/Eh         G(T)/Eh
   ------------------------------------------------------------------------
    298.15    0.245286E-01    0.354089E+00    0.756505E-01    0.278438E+00
   ------------------------------------------------------------------------

         :::::::::::::::::::::::::::::::::::::::::::::::::::::
         ::                  THERMODYNAMIC                  ::
         :::::::::::::::::::::::::::::::::::::::::::::::::::::
         :: total free energy         -73.965139852535 Eh   ::
         ::.................................................::
         :: total energy              -74.243578262271 Eh   ::
         :: zero point energy           0.329560286742 Eh   ::
         :: G(RRHO) w/o ZPVE           -0.051121877006 Eh   ::
         :: G(RRHO) contrib.            0.278438409736 Eh   ::
         :::::::::::::::::::::::::::::::::::::::::::::::::::::

           -------------------------------------------------
          | TOTAL ENERGY              -74.243578262271 Eh   |
          | TOTAL ENTHALPY            -73.889489394226 Eh   |
          | TOTAL FREE ENERGY         -73.965139852535 Eh   |
          | GRADIENT NORM               0.000072616736 Eh/α |
           -------------------------------------------------

 * finished run on 2025/06/06 at 20:16:40.058
