   * xtb version 6.7.1 (edcfbbe) compiled by 'albert@albert-system' on 2024-07-22

   ID    Z sym.   atoms
    1    6 C      1-6, 10-15, 17-28
    2   16 S      7
    3    8 O      8, 9
    4    7 N      16
    5    1 H      29-45

          program call               : xtb data250606/gas/PSPCz/PSPCz_gas_S0_crest.xyz --gfn 2 --ohess vtight --parallel 14 --molden --ceasefiles --namespace data250606/gas/PSPCz/PSPCz_gas_S0_finalOpt
          :  Hamiltonian                  GFN2-xTB          :
 * total energy  :   -74.3555949 Eh     change       -0.7970442E-09 Eh
 * total energy  :   -74.3555956 Eh     change       -0.7126672E-06 Eh
 * total energy  :   -74.3555967 Eh     change       -0.1112629E-05 Eh
 * total energy  :   -74.3555976 Eh     change       -0.8858341E-06 Eh
 * total energy  :   -74.3555985 Eh     change       -0.9597988E-06 Eh
 * total energy  :   -74.3555998 Eh     change       -0.1267509E-05 Eh
 * total energy  :   -74.3556008 Eh     change       -0.1028089E-05 Eh
 * total energy  :   -74.3556015 Eh     change       -0.6479815E-06 Eh
 * total energy  :   -74.3556020 Eh     change       -0.5820841E-06 Eh
 * total energy  :   -74.3556027 Eh     change       -0.6046466E-06 Eh
 * total energy  :   -74.3556032 Eh     change       -0.5069277E-06 Eh
 * total energy  :   -74.3556038 Eh     change       -0.6564581E-06 Eh
 * total energy  :   -74.3556043 Eh     change       -0.4645609E-06 Eh
 * total energy  :   -74.3556044 Eh     change       -0.1637335E-06 Eh
 * total energy  :   -74.3556045 Eh     change       -0.5036125E-07 Eh
   *** GEOMETRY OPTIMIZATION CONVERGED AFTER 15 ITERATIONS ***

 final structure:
================
45
 xtb: 6.7.1 (edcfbbe)
C            3.16054731137315        3.11829377225034        0.55062248948643
C            2.93176163107606        2.78767245439630       -0.77573560479178
C            2.98326052811042        1.46138661180908       -1.17361721039111
C            3.26611276515551        0.48753047669805       -0.23627743240988
C            3.49653727772520        0.80508957339892        1.08848583043352
C            3.44717722922187        2.13186059768046        1.48254684962764
S            3.21128506608249       -1.24867042965942       -0.70201787945813
O            3.07463319933306       -1.34250942103567       -2.13067760211829
O            4.28957561176215       -1.95979171190233       -0.06976985297625
C            1.66339437031191       -1.73596123580448        0.07790688107306
C            1.60840959025987       -2.78073083111540        0.97780601621196
C            0.40307266900397       -3.05852462192169        1.60568419565317
C           -0.71055066675734       -2.27494417486332        1.36106902333925
C           -0.64294502283166       -1.21620477672847        0.45459815762669
C            0.55694488309167       -0.96531980258690       -0.20666035577808
N           -1.74033338749281       -0.38520550115587        0.22876810112477
C           -3.04010795789589       -0.78150086095440       -0.03182756070695
C           -3.56566889661220       -2.05764964037905       -0.16849550937724
C           -4.91175989769071       -2.17274558226099       -0.46083092287294
C           -5.71966991506973       -1.05007715919919       -0.62397329608207
C           -5.19593742337802        0.22272420604550       -0.51569409732196
C           -3.84603277638742        0.36343678641495       -0.22238365237919
C           -2.98494811212176        1.50311036400367       -0.06428388052036
C           -3.19864927006454        2.87405283138815       -0.11824845021849
C           -2.13079583271499        3.71947742039629        0.10854893251025
C           -0.86802132097731        3.21296296413104        0.40593806861871
C           -0.63121184873828        1.85265243037513        0.46708894648366
C           -1.69357317199787        0.99832672841708        0.20841596443934
H            3.11830582107520        4.15169054174747        0.86142583269090
H            2.71002136714308        3.55932500215501       -1.49714744273664
H            2.81478375955753        1.16396598234098       -2.19706033773015
H            3.71931678830349        0.01336119693541        1.78690808699792
H            3.62744378673899        2.39664546351344        2.51342464493082
H            2.50203823428527       -3.35157834939501        1.17229258829467
H            0.33742166213837       -3.87525325330435        2.30837091260676
H           -1.63392340595623       -2.46279402124522        1.88769179707114
H            0.62602486241246       -0.18083593457768       -0.94359837742351
H           -2.94499537782354       -2.93477026790747       -0.06679249372161
H           -5.34525595758730       -3.15577108505721       -0.56945975894027
H           -6.76730296151331       -1.18215778156053       -0.84900342944936
H           -5.81724770548392        1.09340734443825       -0.66036479488258
H           -4.18205707124498        3.26567695961638       -0.32923447048330
H           -2.27462969135710        4.78871231218205        0.06682577151060
H           -0.05308776253117        3.89510943085148        0.59768515570959
H            0.34922778436674        1.47768305892930        0.72094838732865

          :  Hamiltonian                  GFN2-xTB          :
         :: gradient norm              0.000030964424 Eh/a0 ::
         :: HOMO-LUMO gap              2.844148448112 eV    ::
         :: SCC energy               -75.623277099909 Eh    ::
         :: -> dispersion             -0.063129009321 Eh    ::
         :: repulsion energy           1.267672604735 Eh    ::

    * Orbital Energies and Occupations

         #    Occupation            Energy/Eh            Energy/eV
      -------------------------------------------------------------
         1        2.0000           -0.7704853             -20.9660
       ...           ...                  ...                  ...
        56        2.0000           -0.4413763             -12.0105
        57        2.0000           -0.4351400             -11.8408
        58        2.0000           -0.4327869             -11.7767
        59        2.0000           -0.4319625             -11.7543
        60        2.0000           -0.4310570             -11.7297
        61        2.0000           -0.4299283             -11.6989
        62        2.0000           -0.4291755             -11.6785
        63        2.0000           -0.4262664             -11.5993
        64        2.0000           -0.4254728             -11.5777
        65        2.0000           -0.4133301             -11.2473
        66        2.0000           -0.4057891             -11.0421
        67        2.0000           -0.3869299             -10.5289
        68        2.0000           -0.3729526             -10.1486 (HOMO)
        69                         -0.2684321              -7.3044 (LUMO)
        70                         -0.2579166              -7.0183
        71                         -0.2560458              -6.9674
        72                         -0.2508800              -6.8268
        73                         -0.2493552              -6.7853
        74                         -0.2300470              -6.2599
        75                         -0.2006000              -5.4586
        76                         -0.1940758              -5.2811
        77                         -0.1431706              -3.8959
        78                         -0.1300338              -3.5384
        79                         -0.1174823              -3.1969
       ...                                ...                  ...
       134                          1.2144781              33.0476
      -------------------------------------------------------------
                  HL-Gap            0.1045205 Eh            2.8441 eV

     #   Z          covCN         q      C6AA      α(0)
     1   6 C        2.920    -0.023    28.569     8.765
     2   6 C        2.921    -0.022    28.551     8.762
     3   6 C        2.953    -0.024    28.610     8.773
     4   6 C        2.972    -0.073    29.820     8.957
     5   6 C        2.961    -0.028    28.691     8.786
     6   6 C        2.921    -0.023    28.578     8.766
     7  16 S        3.821     0.948   108.168    17.505
     8   8 O        0.860    -0.538    24.633     6.654
     9   8 O        0.860    -0.536    24.598     6.650
    10   6 C        2.971    -0.073    29.820     8.957
    11   6 C        2.945    -0.029    28.733     8.792
    12   6 C        2.922    -0.023    28.589     8.768
    13   6 C        2.921    -0.041    29.023     8.835
    14   6 C        2.914     0.073    26.371     8.421
    15   6 C        2.976    -0.046    29.134     8.854
    16   7 N        2.802    -0.041    22.030     6.971
    17   6 C        3.069     0.047    26.881     8.501
    18   6 C        2.910    -0.050    29.253     8.869
    19   6 C        2.924    -0.032    28.794     8.800
    20   6 C        2.920    -0.039    28.972     8.827
    21   6 C        2.913    -0.032    28.789     8.798
    22   6 C        3.067    -0.015    28.310     8.725
    23   6 C        3.067    -0.014    28.291     8.722
    24   6 C        2.913    -0.032    28.794     8.799
    25   6 C        2.920    -0.039    28.977     8.827
    26   6 C        2.924    -0.033    28.822     8.804
    27   6 C        2.910    -0.051    29.271     8.872
    28   6 C        3.071     0.046    26.901     8.504
    29   1 H        0.926     0.049     2.335     2.390
    30   1 H        0.926     0.052     2.300     2.372
    31   1 H        0.926     0.064     2.154     2.295
    32   1 H        0.926     0.051     2.310     2.377
    33   1 H        0.926     0.050     2.323     2.384
    34   1 H        0.926     0.067     2.115     2.274
    35   1 H        0.926     0.055     2.254     2.348
    36   1 H        0.926     0.057     2.235     2.338
    37   1 H        0.926     0.053     2.285     2.364
    38   1 H        0.926     0.030     2.588     2.516
    39   1 H        0.926     0.033     2.537     2.491
    40   1 H        0.926     0.032     2.552     2.498
    41   1 H        0.926     0.035     2.520     2.483
    42   1 H        0.926     0.036     2.503     2.474
    43   1 H        0.926     0.033     2.550     2.497
    44   1 H        0.926     0.029     2.598     2.520
    45   1 H        0.926     0.019     2.751     2.594

molecular dipole:
                 x           y           z       tot (Debye)
 q only:       -1.460       1.179       1.326
   full:       -1.332       1.118       1.344       5.586

 projected vibrational frequencies (cm⁻¹)
eigval :       -0.00    -0.00    -0.00     0.00     0.00     0.00
eigval :       13.25    24.79    32.46    38.16    49.92    64.01
eigval :       97.03   112.70   125.49   135.92   146.72   183.81
eigval :      225.28   232.50   244.39   271.52   274.85   286.04
eigval :      297.03   334.80   355.38   363.59   389.64   398.25
eigval :      420.82   425.20   439.19   446.67   496.16   516.19
eigval :      521.16   531.85   541.67   551.33   585.12   586.69
eigval :      607.99   611.22   658.71   663.83   669.24   675.23
eigval :      692.61   709.38   746.38   753.43   766.30   770.54
eigval :      782.06   799.97   869.59   873.58   881.73   892.87
eigval :      897.43   901.75   908.19   908.61   909.28   922.66
eigval :      926.04   929.53   931.68   934.00   944.23   969.18
eigval :      998.51  1012.13  1069.44  1071.41  1075.62  1093.23
eigval :     1101.71  1106.70  1109.81  1123.37  1132.50  1153.04
eigval :     1171.97  1177.45  1177.73  1179.02  1180.45  1194.70
eigval :     1233.85  1237.64  1245.10  1248.22  1260.17  1298.96
eigval :     1300.16  1316.93  1319.34  1354.80  1360.28  1361.17
eigval :     1416.84  1424.93  1429.00  1430.07  1444.88  1473.69
eigval :     1475.64  1486.94  1559.09  1575.68  1576.85  1589.02
eigval :     1594.74  1596.94  1599.29  1613.90  3077.21  3080.16
eigval :     3082.68  3082.90  3085.33  3089.14  3089.97  3090.15
eigval :     3092.77  3095.98  3097.97  3099.59  3100.73  3102.46
eigval :     3104.34  3106.07  3113.36

   temp. (K)  partition function   enthalpy   heat capacity  entropy
                                   cal/mol     cal/K/mol   cal/K/mol   J/K/mol
 298.15  VIB  0.192E+10            12520.530     80.740     76.449
         ROT  0.145E+08              888.752      2.981     35.750
         INT  0.278E+17            13409.282     83.721    112.199
         TR   0.727E+28             1481.254      4.968     43.705
         TOT                       14890.5362    88.6893   155.9040   652.3024

       T/K    H(0)-H(T)+PV         H(T)/Eh          T*S/Eh         G(T)/Eh
   ------------------------------------------------------------------------
    298.15    0.237296E-01    0.360467E+00    0.740750E-01    0.286392E+00
   ------------------------------------------------------------------------

         :::::::::::::::::::::::::::::::::::::::::::::::::::::
         ::                  THERMODYNAMIC                  ::
         :::::::::::::::::::::::::::::::::::::::::::::::::::::
         :: total free energy         -74.069212863469 Eh   ::
         ::.................................................::
         :: total energy              -74.355604495174 Eh   ::
         :: zero point energy           0.336737079438 Eh   ::
         :: G(RRHO) w/o ZPVE           -0.050345447732 Eh   ::
         :: G(RRHO) contrib.            0.286391631706 Eh   ::
         :::::::::::::::::::::::::::::::::::::::::::::::::::::

           -------------------------------------------------
          | TOTAL ENERGY              -74.355604495174 Eh   |
          | TOTAL ENTHALPY            -73.995137835793 Eh   |
          | TOTAL FREE ENERGY         -74.069212863469 Eh   |
          | GRADIENT NORM               0.000030970057 Eh/α |
          | HOMO-LUMO GAP               2.844148884026 eV   |
           -------------------------------------------------

 * finished run on 2025/06/06 at 20:16:35.903
