   * xtb version 6.7.1 (edcfbbe) compiled by 'albert@albert-system' on 2024-07-22

   ID    Z sym.   atoms
    1    6 C      1-6, 10-15, 17-28
    2   16 S      7
    3    8 O      8, 9
    4    7 N      16
    5    1 H      29-45

          program call               : xtb data250606/gas/PSPCz/PSPCz_gas_T1_crest.xyz --gfn 2 --spinpol --tblite --uhf 2 --ohess vtight --parallel 14 --molden --ceasefiles --namespace data250606/gas/PSPCz/PSPCz_gas_T1_finalOpt
 * total energy  :   -74.2439956 Eh     change       -0.8782308E-11 Eh
 * total energy  :   -74.2440107 Eh     change       -0.1504983E-04 Eh
 * total energy  :   -74.2440222 Eh     change       -0.1156911E-04 Eh
 * total energy  :   -74.2440244 Eh     change       -0.2137757E-05 Eh
 * total energy  :   -74.2440253 Eh     change       -0.8906167E-06 Eh
 * total energy  :   -74.2440251 Eh     change        0.1729390E-06 Eh
 * total energy  :   -74.2440258 Eh     change       -0.6677851E-06 Eh
 * total energy  :   -74.2440262 Eh     change       -0.4030755E-06 Eh
 * total energy  :   -74.2440265 Eh     change       -0.3631138E-06 Eh
 * total energy  :   -74.2440269 Eh     change       -0.3400538E-06 Eh
 * total energy  :   -74.2440272 Eh     change       -0.2859417E-06 Eh
 * total energy  :   -74.2440273 Eh     change       -0.1760248E-06 Eh
 * total energy  :   -74.2440275 Eh     change       -0.1413382E-06 Eh
 * total energy  :   -74.2440275 Eh     change       -0.2462460E-07 Eh
   *** GEOMETRY OPTIMIZATION CONVERGED AFTER 14 ITERATIONS ***

 final structure:
================
45
 xtb: 6.7.1 (edcfbbe)
C            4.06820055791869        2.49531750237160        1.44289501562051
C            3.30522946875631        2.66127830585694        0.29470352790023
C            3.02247339572708        1.57363496039904       -0.51059096053566
C            3.51493507887055        0.32614307622654       -0.16074188440907
C            4.27710362729868        0.14882597540252        0.98242657306057
C            4.55852626620988        1.24089388349792        1.78195639470808
S            3.01891083538458       -1.10543980366609       -1.11197062112455
O            2.62137477248895       -0.67489976994964       -2.42807240278486
O            4.01282502123561       -2.13863218234461       -0.98947191436375
C            1.57080923904384       -1.55803159353328       -0.18414058306696
C            1.63274380337653       -2.54578013144968        0.82512607109816
C            0.50333638241717       -2.79296968844390        1.58150486762217
C           -0.66160861675073       -2.07177461700940        1.39315780021136
C           -0.70163088460849       -1.04783267599315        0.39549868744666
C            0.43220029762006       -0.81278969427865       -0.37963742867625
N           -1.83477039907811       -0.28633480125775        0.21142928989900
C           -3.13562925920521       -0.75075083924485        0.15100712621153
C           -3.60798092507809       -2.04944093161398        0.22054241499575
C           -4.98313498582094       -2.25084366073513        0.10372486983877
C           -5.84646072327647       -1.17489393197311       -0.09181201985205
C           -5.37931915270060        0.12786407594388       -0.19219691228976
C           -4.00850384674464        0.35522801747909       -0.08510331462911
C           -3.18683565112136        1.51696405333728       -0.17500077549526
C           -3.44166222081181        2.87050097467808       -0.39160969292708
C           -2.37496842145117        3.75840145362517       -0.36970399060774
C           -1.07286237812822        3.33380380714356       -0.11830319676100
C           -0.78975578405330        1.98290558704260        0.09030748451750
C           -1.84111987609053        1.08596522526859        0.02445767151095
H            4.28609945868474        3.34574574899592        2.07121868572455
H            2.93496371430748        3.64024869946015        0.02856546476321
H            2.44885060888032        1.67145131488287       -1.41907485077449
H            4.64900886960302       -0.83693330175891        1.21258781265825
H            5.15982786173892        1.11858699901962        2.67034751216418
H            2.54951338641925       -3.09438747470276        0.95537766899817
H            0.53354830469071       -3.54855941322304        2.35265715406079
H           -1.51007896391514       -2.20191146403754        2.04452349478867
H            0.40185871646612       -0.10860346070742       -1.19655497503142
H           -2.93764344403971       -2.88667891849850        0.33534501497197
H           -5.37802733790188       -3.25260070900088        0.15455007671760
H           -6.90617482911146       -1.36371484107678       -0.18035051589887
H           -6.05937536667381        0.94878281368195       -0.35615264202929
H           -4.44757166886135        3.21740313444281       -0.56752341349616
H           -2.56061940864697        4.80946611697284       -0.53502789426703
H           -0.27177928894709        4.05373119441880       -0.07602967335185
H            0.21690337917856        1.66287876045133        0.31273414608372

 projected vibrational frequencies (cm⁻¹)
eigval :       -0.00    -0.00    -0.00     0.00     0.00     0.00
eigval :       10.68    21.37    38.13    43.90    49.44    69.89
eigval :       93.89   116.43   125.14   137.53   142.91   182.01
eigval :      203.98   215.85   244.54   261.16   276.50   293.58
eigval :      296.26   328.67   361.39   366.30   369.24   378.40
eigval :      402.47   405.53   419.52   432.16   459.65   471.88
eigval :      494.30   499.78   499.98   554.93   566.75   579.36
eigval :      583.26   593.63   619.67   645.49   648.86   657.40
eigval :      678.53   680.68   722.56   736.83   741.94   745.00
eigval :      747.05   753.54   786.06   826.39   830.89   860.42
eigval :      871.64   873.01   879.47   889.41   892.81   895.44
eigval :      898.06   900.21   913.10   921.16   924.32   931.52
eigval :      936.80   962.80  1001.67  1029.28  1056.51  1061.61
eigval :     1065.00  1080.95  1087.70  1097.43  1102.42  1106.16
eigval :     1127.04  1146.40  1167.18  1175.13  1176.86  1179.23
eigval :     1190.74  1204.88  1220.80  1223.38  1232.72  1241.33
eigval :     1259.33  1264.00  1279.38  1302.37  1326.57  1352.59
eigval :     1373.32  1383.69  1392.89  1412.85  1425.33  1427.57
eigval :     1431.43  1431.71  1444.38  1455.11  1474.21  1526.01
eigval :     1531.31  1539.85  1550.67  1573.46  3079.46  3081.52
eigval :     3083.44  3083.78  3084.50  3085.49  3094.86  3095.15
eigval :     3097.60  3099.19  3101.61  3102.64  3106.73  3107.47
eigval :     3109.00  3110.03  3126.57

   temp. (K)  partition function   enthalpy   heat capacity  entropy
                                   cal/mol     cal/K/mol   cal/K/mol   J/K/mol
 298.15  VIB  0.295E+10            12929.783     84.102     78.894
         ROT  0.151E+08              888.752      2.981     35.836
         INT  0.447E+17            13818.535     87.083    114.730
         TR   0.727E+28             1481.254      4.968     43.705
         TOT                       15299.7894    92.0513   158.4347   662.8908

       T/K    H(0)-H(T)+PV         H(T)/Eh          T*S/Eh         G(T)/Eh
   ------------------------------------------------------------------------
    298.15    0.243818E-01    0.354130E+00    0.752774E-01    0.278853E+00
   ------------------------------------------------------------------------

         :::::::::::::::::::::::::::::::::::::::::::::::::::::
         ::                  THERMODYNAMIC                  ::
         :::::::::::::::::::::::::::::::::::::::::::::::::::::
         :: total free energy         -73.965174561706 Eh   ::
         ::.................................................::
         :: total energy              -74.244027500767 Eh   ::
         :: zero point energy           0.329748616623 Eh   ::
         :: G(RRHO) w/o ZPVE           -0.050895677563 Eh   ::
         :: G(RRHO) contrib.            0.278852939060 Eh   ::
         :::::::::::::::::::::::::::::::::::::::::::::::::::::

           -------------------------------------------------
          | TOTAL ENERGY              -74.244027500767 Eh   |
          | TOTAL ENTHALPY            -73.889897117754 Eh   |
          | TOTAL FREE ENERGY         -73.965174561706 Eh   |
          | GRADIENT NORM               0.000146660718 Eh/α |
           -------------------------------------------------

 * finished run on 2025/06/06 at 20:18:45.930
