   * xtb version 6.7.1 (edcfbbe) compiled by 'albert@albert-system' on 2024-07-22

   ID    Z sym.   atoms
    1    6 C      1-6, 10-15, 17-28
    2   16 S      7
    3    8 O      8, 9
    4    7 N      16
    5    1 H      29-45

          program call               : xtb data250606/gas/PSPCz/PSPCz.xyz --gfn 2 --ohess vtight --parallel 14 --molden --ceasefiles --namespace data250606/gas/PSPCz/PSPCz_gas_S0_preOpt
          :  Hamiltonian                  GFN2-xTB          :
 * total energy  :   -74.3431492 Eh     change       -0.1057501E-08 Eh
 * total energy  :   -74.3516214 Eh     change       -0.8472202E-02 Eh
 * total energy  :   -74.3531742 Eh     change       -0.1552746E-02 Eh
 * total energy  :   -74.3533895 Eh     change       -0.2152932E-03 Eh
 * total energy  :   -74.3534971 Eh     change       -0.1076507E-03 Eh
 * total energy  :   -74.3535268 Eh     change       -0.2967430E-04 Eh
 * total energy  :   -74.3535585 Eh     change       -0.3175091E-04 Eh
 * total energy  :   -74.3535838 Eh     change       -0.2530725E-04 Eh
 * total energy  :   -74.3536000 Eh     change       -0.1614237E-04 Eh
 * total energy  :   -74.3536270 Eh     change       -0.2706002E-04 Eh
 * total energy  :   -74.3537739 Eh     change       -0.3461610E-05 Eh
 * total energy  :   -74.3537767 Eh     change       -0.2801112E-05 Eh
 * total energy  :   -74.3537794 Eh     change       -0.2633538E-05 Eh
 * total energy  :   -74.3537818 Eh     change       -0.2430263E-05 Eh
 * total energy  :   -74.3537836 Eh     change       -0.1797041E-05 Eh
 * total energy  :   -74.3537846 Eh     change       -0.1014370E-05 Eh
 * total energy  :   -74.3537852 Eh     change       -0.5708933E-06 Eh
 * total energy  :   -74.3537856 Eh     change       -0.3990601E-06 Eh
 * total energy  :   -74.3537856 Eh     change       -0.4238117E-08 Eh
   *** GEOMETRY OPTIMIZATION CONVERGED AFTER 44 ITERATIONS ***

 final structure:
================
45
 xtb: 6.7.1 (edcfbbe)
C            4.55543971661085        0.00910443097131        2.75752367859983
C            4.89141113322842       -0.90935270679467        1.77441074092462
C            4.54323979772883       -0.66623991786772        0.45638029678293
C            3.86834085779819        0.49738867392890        0.14277098185416
C            3.53004317125325        1.42050103059185        1.11224176342118
C            3.87859595838966        1.17346576015637        2.43004103391368
S            3.37165454963583        0.77392583464280       -1.56119323084777
O            2.96747101182708        2.14728177867623       -1.70842514937679
O            4.38766708724368        0.25773878056571       -2.43890253711460
C            1.90784180144009       -0.26193197425383       -1.70566636658231
C            1.94953702436307       -1.43098133712884       -2.43852593222905
C            0.80484750383189       -2.20905783646831       -2.52066150381639
C           -0.35632275207239       -1.81052460083829       -1.88385419753235
C           -0.38765717119774       -0.63033573694902       -1.13870570875982
C            0.76790101363111        0.14300860738074       -1.04501155769092
N           -1.56021722014287       -0.22148730768346       -0.50385000501658
C           -2.10345206402366        1.05260289981790       -0.55542632619455
C           -1.66756001388843        2.17448074640675       -1.24522020960746
C           -2.42705319079453        3.32538244476091       -1.14742720317107
C           -3.59712885871395        3.36513387563368       -0.39285674528001
C           -4.04869687501704        2.24429959448717        0.27450045364606
C           -3.30207449183673        1.07625844634421        0.19179682990282
C           -3.48069202081857       -0.24565936152466        0.72600181588936
C           -4.44520191521814       -0.82026933699799        1.54279226529579
C           -4.30258136427009       -2.14534651334945        1.90350640081772
C           -3.20609781180372       -2.88897638775542        1.47466019669803
C           -2.23370637649579       -2.33843021334467        0.66079907187434
C           -2.38691132950394       -1.01599919113086        0.27116487433347
H            4.82803718245737       -0.18184337167224        3.78482312039577
H            5.42492602321281       -1.81079284184359        2.03527214323322
H            4.80080616911940       -1.35217767010906       -0.33525159088148
H            3.01759456184326        2.32273261350470        0.81680979126965
H            3.62533017039873        1.88777290605902        3.19874439313574
H            2.86431234929195       -1.70020770366971       -2.94137185002179
H            0.81233666152017       -3.12148318339589       -3.09734164429717
H           -1.25682575135528       -2.39821471638330       -1.97877768840294
H            0.78251613065113        1.05435563836078       -0.46897876772826
H           -0.77255111454510        2.15599544299564       -1.84792451612724
H           -2.10537817427253        4.21273989462616       -1.67158025650584
H           -4.16036874429440        4.28478565734385       -0.33985761608803
H           -4.96432194598428        2.26795805830289        0.84573739467507
H           -5.28452012014217       -0.23723351562752        1.89017178047590
H           -5.04280311317252       -2.61271212917514        2.53546398785552
H           -3.11037689596946       -3.91811249783475        1.78775809860572
H           -1.37734955994842       -2.91954506376191        0.35344048967161

          :  Hamiltonian                  GFN2-xTB          :
         :: gradient norm              0.000052536057 Eh/a0 ::
         :: HOMO-LUMO gap              2.737862434132 eV    ::
         :: SCC energy               -75.621570416922 Eh    ::
         :: -> dispersion             -0.059558272377 Eh    ::
         :: repulsion energy           1.267784818450 Eh    ::

    * Orbital Energies and Occupations

         #    Occupation            Energy/Eh            Energy/eV
      -------------------------------------------------------------
         1        2.0000           -0.7698263             -20.9480
       ...           ...                  ...                  ...
        56        2.0000           -0.4388490             -11.9417
        57        2.0000           -0.4341107             -11.8128
        58        2.0000           -0.4316541             -11.7459
        59        2.0000           -0.4313605             -11.7379
        60        2.0000           -0.4292215             -11.6797
        61        2.0000           -0.4289179             -11.6714
        62        2.0000           -0.4264627             -11.6046
        63        2.0000           -0.4236111             -11.5270
        64        2.0000           -0.4214843             -11.4692
        65        2.0000           -0.4102091             -11.1624
        66        2.0000           -0.4047706             -11.0144
        67        2.0000           -0.3836886             -10.4407
        68        2.0000           -0.3702218             -10.0742 (HOMO)
        69                         -0.2696071              -7.3364 (LUMO)
        70                         -0.2561577              -6.9704
        71                         -0.2529629              -6.8835
        72                         -0.2496396              -6.7930
        73                         -0.2468741              -6.7178
        74                         -0.2268525              -6.1730
        75                         -0.1979941              -5.3877
        76                         -0.1906802              -5.1887
        77                         -0.1431898              -3.8964
        78                         -0.1275447              -3.4707
        79                         -0.1141978              -3.1075
       ...                                ...                  ...
       134                          1.2064222              32.8284
      -------------------------------------------------------------
                  HL-Gap            0.1006146 Eh            2.7379 eV

     #   Z          covCN         q      C6AA      α(0)
     1   6 C        2.920    -0.024    28.596     8.769
     2   6 C        2.922    -0.023    28.585     8.768
     3   6 C        2.960    -0.027    28.675     8.783
     4   6 C        2.972    -0.074    29.832     8.959
     5   6 C        2.955    -0.025    28.633     8.777
     6   6 C        2.922    -0.023    28.586     8.768
     7  16 S        3.821     0.944   108.271    17.513
     8   8 O        0.860    -0.540    24.678     6.660
     9   8 O        0.860    -0.537    24.625     6.653
    10   6 C        2.971    -0.074    29.844     8.961
    11   6 C        2.950    -0.032    28.795     8.801
    12   6 C        2.921    -0.024    28.601     8.770
    13   6 C        2.922    -0.041    29.021     8.834
    14   6 C        2.913     0.073    26.372     8.421
    15   6 C        2.969    -0.045    29.105     8.849
    16   7 N        2.802    -0.042    22.057     6.975
    17   6 C        3.069     0.045    26.910     8.506
    18   6 C        2.910    -0.050    29.250     8.868
    19   6 C        2.924    -0.031    28.776     8.797
    20   6 C        2.920    -0.039    28.972     8.827
    21   6 C        2.913    -0.032    28.809     8.801
    22   6 C        3.067    -0.015    28.324     8.727
    23   6 C        3.067    -0.015    28.312     8.725
    24   6 C        2.913    -0.032    28.802     8.800
    25   6 C        2.920    -0.040    28.990     8.829
    26   6 C        2.924    -0.033    28.825     8.804
    27   6 C        2.910    -0.052    29.289     8.874
    28   6 C        3.069     0.045    26.916     8.507
    29   1 H        0.926     0.050     2.325     2.384
    30   1 H        0.926     0.050     2.316     2.380
    31   1 H        0.926     0.055     2.256     2.349
    32   1 H        0.926     0.063     2.169     2.303
    33   1 H        0.926     0.051     2.305     2.374
    34   1 H        0.926     0.066     2.131     2.283
    35   1 H        0.926     0.054     2.268     2.355
    36   1 H        0.926     0.057     2.234     2.338
    37   1 H        0.926     0.058     2.219     2.330
    38   1 H        0.926     0.035     2.510     2.477
    39   1 H        0.926     0.036     2.504     2.474
    40   1 H        0.926     0.032     2.559     2.501
    41   1 H        0.926     0.034     2.536     2.490
    42   1 H        0.926     0.034     2.527     2.486
    43   1 H        0.926     0.031     2.572     2.508
    44   1 H        0.926     0.031     2.570     2.507
    45   1 H        0.926     0.026     2.642     2.542

molecular dipole:
                 x           y           z       tot (Debye)
 q only:       -0.825      -1.348       1.561
   full:       -0.711      -1.390       1.514       5.528

 projected vibrational frequencies (cm⁻¹)
eigval :       -0.00    -0.00    -0.00    -0.00     0.00     0.00
eigval :        4.91    18.18    22.86    39.99    45.21    65.92
eigval :       95.27   116.30   128.16   137.73   147.41   179.63
eigval :      225.28   233.06   235.87   272.04   278.98   292.03
eigval :      293.79   334.13   363.40   364.37   392.68   397.53
eigval :      422.93   425.77   435.64   439.95   488.77   517.41
eigval :      520.15   527.76   541.17   557.40   584.93   586.69
eigval :      607.03   610.48   658.02   665.01   668.18   674.83
eigval :      692.37   709.13   746.12   752.69   766.54   770.65
eigval :      782.12   800.27   869.40   873.39   880.94   890.63
eigval :      896.45   901.35   906.99   908.24   909.31   922.06
eigval :      926.19   927.97   932.72   933.07   944.33   969.29
eigval :      997.13  1011.86  1069.65  1071.63  1075.11  1091.47
eigval :     1101.69  1106.14  1110.72  1122.94  1131.87  1153.33
eigval :     1172.78  1177.86  1177.96  1179.20  1180.89  1194.55
eigval :     1232.10  1236.36  1243.31  1247.28  1260.19  1298.49
eigval :     1299.80  1316.58  1320.59  1354.67  1359.70  1360.88
eigval :     1417.32  1424.72  1428.04  1430.68  1445.14  1472.67
eigval :     1475.32  1486.90  1558.04  1575.87  1577.50  1588.99
eigval :     1594.25  1598.03  1599.25  1613.67  3078.02  3080.79
eigval :     3083.06  3083.49  3086.77  3088.88  3089.73  3090.55
eigval :     3093.78  3096.69  3098.02  3100.55  3100.60  3104.52
eigval :     3105.50  3110.69  3113.41

   temp. (K)  partition function   enthalpy   heat capacity  entropy
                                   cal/mol     cal/K/mol   cal/K/mol   J/K/mol
 298.15  VIB  0.947E+10            12555.899     80.584     77.782
         ROT  0.164E+08              888.752      2.981     35.997
         INT  0.155E+18            13444.652     83.564    113.779
         TR   0.727E+28             1481.254      4.968     43.705
         TOT                       14925.9056    88.5326   157.4833   658.9103

       T/K    H(0)-H(T)+PV         H(T)/Eh          T*S/Eh         G(T)/Eh
   ------------------------------------------------------------------------
    298.15    0.237859E-01    0.360447E+00    0.748254E-01    0.285622E+00
   ------------------------------------------------------------------------

         :::::::::::::::::::::::::::::::::::::::::::::::::::::
         ::                  THERMODYNAMIC                  ::
         :::::::::::::::::::::::::::::::::::::::::::::::::::::
         :: total free energy         -74.068163860192 Eh   ::
         ::.................................................::
         :: total energy              -74.353785598472 Eh   ::
         :: zero point energy           0.336661212628 Eh   ::
         :: G(RRHO) w/o ZPVE           -0.051039474348 Eh   ::
         :: G(RRHO) contrib.            0.285621738280 Eh   ::
         :::::::::::::::::::::::::::::::::::::::::::::::::::::

           -------------------------------------------------
          | TOTAL ENERGY              -74.353785598472 Eh   |
          | TOTAL ENTHALPY            -73.993338441280 Eh   |
          | TOTAL FREE ENERGY         -74.068163860192 Eh   |
          | GRADIENT NORM               0.000052531315 Eh/α |
          | HOMO-LUMO GAP               2.737863100499 eV   |
           -------------------------------------------------

 * finished run on 2025/06/06 at 20:13:44.162
