   * xtb version 6.7.1 (edcfbbe) compiled by 'albert@albert-system' on 2024-07-22

   ID    Z sym.   atoms
    1    7 N      1, 7, 21
    2    6 C      2-6, 8-20, 22-34
    3    1 H      35-53

          program call               : xtb data2507/gas/2CzBN/2CzBN_gas_S0_finalOpt.xtbopt.xyz --gfn 2 --spinpol --tblite --uhf 2 --ohess vtight --parallel 40 --molden --ceasefiles --namespace data2507/gas/2CzBN/2CzBN_gas_T1_preOpt
 * total energy  :   -84.7703669 Eh     change       -0.1515315E-07 Eh
 * total energy  :   -84.7739201 Eh     change       -0.3553224E-02 Eh
 * total energy  :   -84.7757982 Eh     change       -0.1878039E-02 Eh
 * total energy  :   -84.7759768 Eh     change       -0.1786097E-03 Eh
 * total energy  :   -84.7761098 Eh     change       -0.1329754E-03 Eh
 * total energy  :   -84.7761511 Eh     change       -0.4133382E-04 Eh
 * total energy  :   -84.7762008 Eh     change       -0.4971473E-04 Eh
 * total energy  :   -84.7762449 Eh     change       -0.4406604E-04 Eh
 * total energy  :   -84.7762762 Eh     change       -0.3128318E-04 Eh
 * total energy  :   -84.7762934 Eh     change       -0.1719578E-04 Eh
 * total energy  :   -84.7763567 Eh     change       -0.5588071E-06 Eh
 * total energy  :   -84.7763572 Eh     change       -0.4660276E-06 Eh
 * total energy  :   -84.7763578 Eh     change       -0.6209193E-06 Eh
 * total energy  :   -84.7763584 Eh     change       -0.5515227E-06 Eh
 * total energy  :   -84.7763589 Eh     change       -0.5229391E-06 Eh
 * total energy  :   -84.7763594 Eh     change       -0.5497149E-06 Eh
 * total energy  :   -84.7763599 Eh     change       -0.4765261E-06 Eh
 * total energy  :   -84.7763604 Eh     change       -0.4482516E-06 Eh
 * total energy  :   -84.7763604 Eh     change       -0.3407575E-07 Eh
   *** GEOMETRY OPTIMIZATION CONVERGED AFTER 44 ITERATIONS ***

 final structure:
================
53
 xtb: 6.7.1 (edcfbbe)
N           -5.70158234896975       -3.22598947415883       -0.30150591781120
C           -4.60080598349585       -2.88450059068559       -0.16080315007063
C           -3.30322464019902       -2.46697686955815        0.04934066958654
C           -2.31956802981343       -3.37288099859561        0.61409828238548
C           -1.03226330167476       -2.98612236854901        0.75976543270109
C           -0.61538448295013       -1.66686504455157        0.42306985885347
N            0.64885186895500       -1.21611336950785        0.74736947555397
C            0.94284983860951        0.01961432785267        1.30125491391928
C            0.09826063270442        0.91406358851767        1.94267954380333
C            0.64181513498629        2.09743990599639        2.40709548119239
C            2.00093043646506        2.37251171425373        2.26313705410144
C            2.86166329812979        1.44920471877497        1.69728641898732
C            2.33874069858312        0.25302618514399        1.22920976413995
C            2.91559540892066       -0.92456670385857        0.64818188669898
C            4.21260658071689       -1.28818463140009        0.31791712987748
C            4.42627194637511       -2.51588008787469       -0.28148307096774
C            3.36309046961698       -3.37118152452761       -0.56996328316819
C            2.06169492748392       -3.03188866236181       -0.24906611077740
C            1.84163363535094       -1.81359042729796        0.37892352319117
C           -1.59119464293876       -0.76787553912897       -0.18219077096255
N           -1.16029094719610        0.47459480355391       -0.64656332685422
C            0.01906107124438        0.70704171029639       -1.33308782033967
C            0.84943299678512       -0.19548124670284       -1.98189898354857
C            1.98553780611884        0.29898309022115       -2.59463289652561
C            2.27338490730797        1.66118762115917       -2.59362846122165
C            1.41127760099471        2.57203807936239       -2.01057849537425
C            0.26832421098589        2.09717598273057       -1.38602832002085
C           -0.83675967362665        2.73240731838934       -0.72179270068425
C           -1.14643979426974        4.05432488083302       -0.44168474388845
C           -2.30524777340603        4.32878993869098        0.26111567684423
C           -3.14069545561363        3.30255741033008        0.69672524289368
C           -2.85293707664433        1.97741812577841        0.42947587245222
C           -1.70241591775761        1.69599980327013       -0.29523773826159
C           -2.88738594298829       -1.16653586183202       -0.33712477418400
H           -2.64734521785570       -4.35557720474497        0.91440202910752
H           -0.30895976247425       -3.64794804333135        1.21215620251545
H           -0.94723116739383        0.68957455797335        2.09105363686940
H            0.00119765738323        2.81663682408727        2.89380849684031
H            2.38839731232248        3.31297646872864        2.62457172413680
H            3.91970034920345        1.64944055719870        1.62536537442734
H            5.03487061447126       -0.61859074989737        0.51847463322507
H            5.42966280332197       -2.81655186071126       -0.54309732822803
H            3.55880691880763       -4.31404144872811       -1.05744760228062
H            1.24592468299584       -3.69417346595639       -0.49450544450259
H            0.61499753183326       -1.24867982048551       -2.01712291337414
H            2.65805647646429       -0.38661451072830       -3.08739791123921
H            3.17416143977481        2.00989216589457       -3.07553132688556
H            1.61824464634303        3.63069558564648       -2.04228357344494
H           -0.48975247600488        4.84880750938556       -0.76136111298632
H           -2.56636167711003        5.35213976295313        0.48499822540698
H           -4.03150106345251        3.54612656117102        1.25566174053380
H           -3.50187032510275        1.19104717906635        0.78320813585495
H           -3.59968620540769       -0.51958484453101       -0.82751318217553

 projected vibrational frequencies (cm⁻¹)
eigval :       -0.00    -0.00    -0.00    -0.00     0.00     0.00
eigval :       18.09    30.30    38.06    46.17    58.46    76.34
eigval :      100.99   103.75   109.94   117.11   142.82   159.66
eigval :      169.27   174.88   195.32   198.86   250.50   268.71
eigval :      273.46   276.14   311.14   314.04   339.89   362.46
eigval :      390.06   394.20   397.43   415.08   420.79   431.02
eigval :      437.15   440.42   492.06   510.84   512.54   517.47
eigval :      529.41   534.54   535.76   544.34   558.05   562.66
eigval :      584.00   585.62   604.83   618.02   631.19   663.86
eigval :      665.27   675.53   690.95   701.41   705.86   752.14
eigval :      753.62   764.54   769.07   771.40   773.28   778.38
eigval :      798.30   850.99   865.69   870.78   873.45   875.74
eigval :      882.60   888.64   892.52   895.87   904.19   905.07
eigval :      906.01   906.54   915.00   917.54   920.49   922.01
eigval :      939.97  1004.92  1010.65  1064.80  1066.88  1068.27
eigval :     1069.35  1072.61  1105.46  1111.69  1136.18  1137.72
eigval :     1145.03  1165.20  1168.22  1174.15  1177.56  1179.77
eigval :     1188.79  1207.91  1220.60  1227.94  1229.34  1243.63
eigval :     1263.79  1270.99  1283.78  1287.23  1293.84  1300.88
eigval :     1330.53  1341.66  1346.26  1362.72  1370.80  1374.15
eigval :     1382.90  1402.46  1411.91  1424.49  1434.95  1455.55
eigval :     1461.12  1476.82  1481.87  1488.18  1528.08  1547.46
eigval :     1561.22  1564.60  1566.06  1578.32  1579.53  1581.04
eigval :     1595.80  2181.71  3083.09  3083.40  3083.71  3083.91
eigval :     3084.17  3086.55  3086.83  3088.53  3089.92  3090.27
eigval :     3094.11  3094.52  3096.48  3096.80  3101.08  3102.04
eigval :     3102.40  3103.26  3104.19

   temp. (K)  partition function   enthalpy   heat capacity  entropy
                                   cal/mol     cal/K/mol   cal/K/mol   J/K/mol
 298.15  VIB  0.764E+10            14613.771     97.699     87.874
         ROT  0.171E+08              888.752      2.981     36.079
         INT  0.131E+18            15502.524    100.680    123.954
         TR   0.873E+28             1481.254      4.968     44.070
         TOT                       16983.7776   105.6485   168.0236   703.0107

       T/K    H(0)-H(T)+PV         H(T)/Eh          T*S/Eh         G(T)/Eh
   ------------------------------------------------------------------------
    298.15    0.270654E-01    0.422654E+00    0.798334E-01    0.342820E+00
   ------------------------------------------------------------------------

         :::::::::::::::::::::::::::::::::::::::::::::::::::::
         ::                  THERMODYNAMIC                  ::
         :::::::::::::::::::::::::::::::::::::::::::::::::::::
         :: total free energy         -84.433540235848 Eh   ::
         ::.................................................::
         :: total energy              -84.776360397105 Eh   ::
         :: zero point energy           0.395588214486 Eh   ::
         :: G(RRHO) w/o ZPVE           -0.052768053229 Eh   ::
         :: G(RRHO) contrib.            0.342820161257 Eh   ::
         :::::::::::::::::::::::::::::::::::::::::::::::::::::

           -------------------------------------------------
          | TOTAL ENERGY              -84.776360397105 Eh   |
          | TOTAL ENTHALPY            -84.353706810197 Eh   |
          | TOTAL FREE ENERGY         -84.433540235848 Eh   |
          | GRADIENT NORM               0.000065045466 Eh/α |
           -------------------------------------------------

 * finished run on 2025/08/22 at 09:55:21.456
