   * xtb version 6.7.1 (edcfbbe) compiled by 'albert@albert-system' on 2024-07-22

   ID    Z sym.   atoms
    1    7 N      1, 7, 21
    2    6 C      2-6, 8-20, 22-34
    3    1 H      35-53

          program call               : xtb data2507/gas/2CzBN/2CzBN.xyz --gfn 2 --ohess vtight --parallel 40 --molden --ceasefiles --namespace data2507/gas/2CzBN/2CzBN_gas_S0_preOpt
          :  Hamiltonian                  GFN2-xTB          :
 * total energy  :   -84.8548106 Eh     change       -0.4176528E-08 Eh
 * total energy  :   -84.8675837 Eh     change       -0.1277311E-01 Eh
 * total energy  :   -84.8705013 Eh     change       -0.2917605E-02 Eh
 * total energy  :   -84.8712348 Eh     change       -0.7334701E-03 Eh
 * total energy  :   -84.8716564 Eh     change       -0.4216416E-03 Eh
 * total energy  :   -84.8717728 Eh     change       -0.1164144E-03 Eh
 * total energy  :   -84.8718729 Eh     change       -0.1000964E-03 Eh
 * total energy  :   -84.8719660 Eh     change       -0.9308203E-04 Eh
 * total energy  :   -84.8720526 Eh     change       -0.8658782E-04 Eh
 * total energy  :   -84.8721363 Eh     change       -0.8376187E-04 Eh
 * total energy  :   -84.8743502 Eh     change       -0.2291665E-05 Eh
 * total energy  :   -84.8743514 Eh     change       -0.1176771E-05 Eh
 * total energy  :   -84.8743515 Eh     change       -0.1864327E-06 Eh
 * total energy  :   -84.8743524 Eh     change       -0.8878765E-06 Eh
 * total energy  :   -84.8743532 Eh     change       -0.7313507E-06 Eh
 * total energy  :   -84.8743532 Eh     change       -0.6576195E-07 Eh
 * total energy  :   -84.8743535 Eh     change       -0.3221471E-06 Eh
 * total energy  :   -84.8743537 Eh     change       -0.1112753E-06 Eh
 * total energy  :   -84.8743538 Eh     change       -0.9244600E-07 Eh
   *** GEOMETRY OPTIMIZATION CONVERGED AFTER 45 ITERATIONS ***

 final structure:
================
53
 xtb: 6.7.1 (edcfbbe)
N           -2.33330431254487       -6.36626524483460       -0.57519357883092
C           -1.72533073567748       -5.41635223697731       -0.37003407346867
C           -0.97684022389761       -4.24588343019612       -0.11028560305324
C            0.26936310352276       -4.33594577103063        0.51228888282125
C            0.98356036971384       -3.18591155168948        0.77434935069502
C            0.48111016716255       -1.93386378418899        0.42702570367419
N            1.20917908579955       -0.78251674477531        0.73313603301303
C            0.68769617990243        0.36092377740802        1.31519016082986
C           -0.50500036311041        0.52543844787854        2.00124730695745
C           -0.79474139392740        1.78369806473877        2.49331827416268
C            0.09245602972756        2.84456470296879        2.33508542922879
C            1.31159027448171        2.66687879744789        1.71068853854308
C            1.62102948626967        1.41304514950539        1.20325783958939
C            2.77027944497503        0.86938701765243        0.53304920331731
C            3.98307869675642        1.41057670099670        0.13086650724812
C            4.88396820471815        0.59882156162343       -0.52999501295005
C            4.58328486698827       -0.73320633961998       -0.80007727210233
C            3.38063536379630       -1.29382329311445       -0.41154389799810
C            2.48061556387435       -0.48692570058627        0.26654056857493
C           -0.76147258959194       -1.84578076851109       -0.23635359783652
N           -1.26934384748224       -0.60769746307452       -0.64288998793976
C           -0.55142837789726        0.36657338605520       -1.31508240011541
C            0.64608942213512        0.25140274825264       -2.00295286200186
C            1.16043928032204        1.39014758127085       -2.59263523017848
C            0.48685966749193        2.60659625631019       -2.52672727920606
C           -0.73871716147312        2.70926704179662       -1.89838028846542
C           -1.27186632251369        1.57970315500625       -1.29384351577623
C           -2.49492020680679        1.31548550383787       -0.58728615339077
C           -3.58413957953796        2.10212302120224       -0.23981766229548
C           -4.61381440779504        1.52724348063441        0.47868240921836
C           -4.56239356112623        0.18886427799980        0.85842094638060
C           -3.48695197517135       -0.61383819539263        0.52618824194519
C           -2.45817029901231       -0.04437421630750       -0.20756620695782
C           -1.48297060766370       -3.00367336436377       -0.48697827043149
H            0.65867167154960       -5.30165467754123        0.79633568854359
H            1.93297812717150       -3.24059136264338        1.28531573454521
H           -1.18551252560201       -0.29846028214635        2.15471048655672
H           -1.72791193617723        1.94295379225465        3.01238626210425
H           -0.17234294614892        3.81523971847607        2.72654888072929
H            2.01330557972832        3.48184255663713        1.61990293715439
H            4.20999302170007        2.44711130202576        0.32821810114806
H            5.83383754597409        1.00018564140369       -0.85012209058552
H            5.30240131280076       -1.34197607920373       -1.32788372221448
H            3.15177723191234       -2.32371996610097       -0.64312049563217
H            1.16085361024939       -0.69418668922679       -2.08411777161767
H            2.10291475398014        1.33124342100629       -3.11608535268225
H            0.92428030121404        3.47653332412963       -2.99312567627564
H           -1.27564581284966        3.64531005770870       -1.87757928477134
H           -3.61839159855987        3.14261948561847       -0.52452413137222
H           -5.47127199959043        2.12140859828829        0.75705719005121
H           -5.37818357717029       -0.23216992591631        1.42712907202063
H           -3.45211848274118       -1.64677541241606        0.84043989862519
H           -2.42946251984143       -2.93960007024950       -1.00318222952797

          :  Hamiltonian                  GFN2-xTB          :
         :: gradient norm              0.000109182360 Eh/a0 ::
         :: HOMO-LUMO gap              2.358189732150 eV    ::
         :: SCC energy               -86.511576598063 Eh    ::
         :: -> dispersion             -0.086623304956 Eh    ::
         :: repulsion energy           1.637222843545 Eh    ::

    * Orbital Energies and Occupations

         #    Occupation            Energy/Eh            Energy/eV
      -------------------------------------------------------------
         1        2.0000           -0.6959394             -18.9375
       ...           ...                  ...                  ...
        67        2.0000           -0.4290396             -11.6748
        68        2.0000           -0.4284387             -11.6584
        69        2.0000           -0.4263752             -11.6023
        70        2.0000           -0.4253233             -11.5736
        71        2.0000           -0.4249281             -11.5629
        72        2.0000           -0.4238200             -11.5327
        73        2.0000           -0.4218585             -11.4794
        74        2.0000           -0.4115592             -11.1991
        75        2.0000           -0.4096049             -11.1459
        76        2.0000           -0.3882504             -10.5648
        77        2.0000           -0.3815695             -10.3830
        78        2.0000           -0.3743286             -10.1860
        79        2.0000           -0.3710746             -10.0975 (HOMO)
        80                         -0.2844128              -7.7393 (LUMO)
        81                         -0.2594115              -7.0589
        82                         -0.2513260              -6.8389
        83                         -0.2489262              -6.7736
        84                         -0.2324468              -6.3252
        85                         -0.2234001              -6.0790
        86                         -0.2131445              -5.8000
        87                         -0.2078932              -5.6571
        88                         -0.2013790              -5.4798
        89                         -0.1928046              -5.2465
        90                         -0.1909487              -5.1960
       ...                                ...                  ...
       155                          1.1652867              31.7091
      -------------------------------------------------------------
                  HL-Gap            0.0866618 Eh            2.3582 eV

     #   Z          covCN         q      C6AA      α(0)
     1   7 N        0.911    -0.227    25.974     7.371
     2   6 C        1.912     0.113    28.321     8.594
     3   6 C        2.972     0.016    27.650     8.625
     4   6 C        2.924    -0.026    28.645     8.777
     5   6 C        2.921    -0.041    29.012     8.833
     6   6 C        2.912     0.060    26.664     8.467
     7   7 N        2.800    -0.047    22.143     6.989
     8   6 C        3.076     0.049    26.828     8.492
     9   6 C        2.910    -0.047    29.163     8.855
    10   6 C        2.925    -0.031    28.771     8.796
    11   6 C        2.921    -0.038    28.942     8.822
    12   6 C        2.913    -0.032    28.786     8.798
    13   6 C        3.066    -0.015    28.314     8.725
    14   6 C        3.069    -0.014    28.283     8.720
    15   6 C        2.913    -0.031    28.773     8.796
    16   6 C        2.920    -0.039    28.966     8.826
    17   6 C        2.924    -0.032    28.806     8.802
    18   6 C        2.910    -0.050    29.244     8.867
    19   6 C        3.072     0.049    26.819     8.491
    20   6 C        2.911     0.057    26.713     8.475
    21   7 N        2.801    -0.050    22.203     6.998
    22   6 C        3.076     0.049    26.828     8.492
    23   6 C        2.910    -0.048    29.180     8.858
    24   6 C        2.925    -0.031    28.780     8.798
    25   6 C        2.921    -0.038    28.954     8.824
    26   6 C        2.913    -0.032    28.791     8.799
    27   6 C        3.066    -0.015    28.323     8.727
    28   6 C        3.069    -0.014    28.296     8.722
    29   6 C        2.913    -0.031    28.777     8.797
    30   6 C        2.920    -0.039    28.971     8.827
    31   6 C        2.924    -0.032    28.801     8.801
    32   6 C        2.910    -0.050    29.242     8.867
    33   6 C        3.072     0.049    26.817     8.491
    34   6 C        2.929    -0.036    28.884     8.814
    35   1 H        0.926     0.050     2.318     2.381
    36   1 H        0.926     0.053     2.283     2.363
    37   1 H        0.926     0.023     2.681     2.561
    38   1 H        0.926     0.032     2.561     2.502
    39   1 H        0.926     0.032     2.556     2.500
    40   1 H        0.926     0.034     2.528     2.486
    41   1 H        0.926     0.034     2.528     2.487
    42   1 H        0.926     0.032     2.564     2.504
    43   1 H        0.926     0.032     2.557     2.501
    44   1 H        0.926     0.025     2.655     2.548
    45   1 H        0.926     0.022     2.699     2.569
    46   1 H        0.926     0.031     2.575     2.509
    47   1 H        0.926     0.031     2.566     2.505
    48   1 H        0.926     0.034     2.534     2.489
    49   1 H        0.926     0.034     2.535     2.490
    50   1 H        0.926     0.031     2.568     2.506
    51   1 H        0.926     0.032     2.553     2.499
    52   1 H        0.926     0.025     2.666     2.553
    53   1 H        0.926     0.055     2.255     2.348

molecular dipole:
                 x           y           z       tot (Debye)
 q only:        0.617       0.750       0.253
   full:        0.852       0.986       0.341       3.424

 projected vibrational frequencies (cm⁻¹)
eigval :       -0.00    -0.00    -0.00     0.00     0.00     0.00
eigval :       21.45    32.09    39.48    49.06    55.68    70.38
eigval :      104.28   106.00   112.78   116.77   146.69   162.23
eigval :      168.97   182.08   195.05   203.05   266.17   269.37
eigval :      276.02   280.19   306.83   332.84   355.98   399.03
eigval :      401.19   420.17   422.81   428.05   437.64   442.09
eigval :      453.27   456.22   516.91   518.75   524.88   528.42
eigval :      535.09   541.82   542.77   548.14   561.51   586.90
eigval :      589.57   609.33   621.78   633.89   671.15   672.11
eigval :      680.58   693.14   707.20   707.91   709.58   755.11
eigval :      756.74   769.96   771.41   782.30   782.44   822.56
eigval :      834.65   869.13   872.56   877.72   878.12   886.99
eigval :      895.88   897.97   902.88   904.09   905.77   905.97
eigval :      919.40   923.20   924.38   924.71   925.61   931.03
eigval :      984.24  1012.09  1013.55  1070.36  1071.18  1073.37
eigval :     1074.94  1084.53  1118.44  1146.79  1151.76  1152.21
eigval :     1167.94  1176.28  1180.54  1180.78  1181.23  1191.46
eigval :     1213.41  1232.39  1234.78  1236.93  1243.79  1257.26
eigval :     1295.13  1297.62  1299.87  1301.04  1307.05  1338.08
eigval :     1358.98  1359.37  1361.42  1362.62  1370.09  1410.26
eigval :     1425.20  1428.54  1428.81  1433.90  1473.68  1475.54
eigval :     1486.54  1487.70  1487.99  1532.21  1570.95  1577.81
eigval :     1578.21  1592.17  1592.54  1600.63  1601.38  1614.97
eigval :     1616.48  2374.78  3075.16  3075.89  3079.67  3080.71
eigval :     3081.93  3082.15  3083.78  3084.81  3089.54  3089.77
eigval :     3091.99  3092.68  3093.12  3096.24  3097.87  3098.07
eigval :     3099.72  3100.36  3104.07

   temp. (K)  partition function   enthalpy   heat capacity  entropy
                                   cal/mol     cal/K/mol   cal/K/mol   J/K/mol
 298.15  VIB  0.402E+10            14273.844     95.780     85.823
         ROT  0.170E+08              888.752      2.981     36.072
         INT  0.686E+17            15162.596     98.760    121.895
         TR   0.873E+28             1481.254      4.968     44.070
         TOT                       16643.8503   103.7286   165.9652   694.3986

       T/K    H(0)-H(T)+PV         H(T)/Eh          T*S/Eh         G(T)/Eh
   ------------------------------------------------------------------------
    298.15    0.265237E-01    0.426628E+00    0.788554E-01    0.347772E+00
   ------------------------------------------------------------------------

         :::::::::::::::::::::::::::::::::::::::::::::::::::::
         ::                  THERMODYNAMIC                  ::
         :::::::::::::::::::::::::::::::::::::::::::::::::::::
         :: total free energy         -84.526581622611 Eh   ::
         ::.................................................::
         :: total energy              -84.874353754523 Eh   ::
         :: zero point energy           0.400103909336 Eh   ::
         :: G(RRHO) w/o ZPVE           -0.052331777423 Eh   ::
         :: G(RRHO) contrib.            0.347772131912 Eh   ::
         :::::::::::::::::::::::::::::::::::::::::::::::::::::

           -------------------------------------------------
          | TOTAL ENERGY              -84.874353754523 Eh   |
          | TOTAL ENTHALPY            -84.447726181383 Eh   |
          | TOTAL FREE ENERGY         -84.526581622611 Eh   |
          | GRADIENT NORM               0.000109114036 Eh/α |
          | HOMO-LUMO GAP               2.358187293641 eV   |
           -------------------------------------------------

 * finished run on 2025/08/22 at 09:53:19.193
