   * xtb version 6.7.1 (edcfbbe) compiled by 'albert@albert-system' on 2024-07-22

   ID    Z sym.   atoms
    1    7 N      1, 7, 21
    2    6 C      2-6, 8-20, 22-34
    3    1 H      35-53

          program call               : xtb data2507/gas/2CzBN/2CzBN_gas_S0_crest.xyz --gfn 2 --ohess vtight --parallel 40 --molden --ceasefiles --namespace data2507/gas/2CzBN/2CzBN_gas_S0_finalOpt
          :  Hamiltonian                  GFN2-xTB          :
 * total energy  :   -84.8743498 Eh     change       -0.2224056E-08 Eh
 * total energy  :   -84.8743505 Eh     change       -0.7100752E-06 Eh
 * total energy  :   -84.8743512 Eh     change       -0.6931435E-06 Eh
 * total energy  :   -84.8743520 Eh     change       -0.8173147E-06 Eh
 * total energy  :   -84.8743527 Eh     change       -0.6181362E-06 Eh
 * total energy  :   -84.8743530 Eh     change       -0.3596756E-06 Eh
 * total energy  :   -84.8743534 Eh     change       -0.3946816E-06 Eh
 * total energy  :   -84.8743537 Eh     change       -0.3345553E-06 Eh
 * total energy  :   -84.8743539 Eh     change       -0.2035995E-06 Eh
 * total energy  :   -84.8743541 Eh     change       -0.1096984E-06 Eh
 * total energy  :   -84.8743541 Eh     change       -0.7096844E-07 Eh
   *** GEOMETRY OPTIMIZATION CONVERGED AFTER 11 ITERATIONS ***

 final structure:
================
53
 xtb: 6.7.1 (edcfbbe)
N           -5.64245084219874       -3.28175722007593       -0.47064729653817
C           -4.56995961311420       -2.93071742180691       -0.26911350584272
C           -3.24905800414934       -2.49768104602623       -0.01343442374270
C           -2.35758048912390       -3.33209700928219        0.66314025092552
C           -1.07615224216290       -2.89259859571492        0.92017143381128
C           -0.65580350448526       -1.62773942043365        0.51484227562518
N            0.63701451215291       -1.19486835233481        0.81573889898139
C            0.96276201441865        0.04542622415589        1.33902830002759
C            0.14463487013721        0.96998204794453        1.96841004637770
C            0.72275637153859        2.14594994952459        2.40678420506641
C            2.08548185946260        2.38392186204226        2.25227602592798
C            2.91489158420310        1.43514466332403        1.68691744386118
C            2.35487216443624        0.24921911055664        1.23385563829564
C            2.89664596966298       -0.93775452463753        0.63129135520171
C            4.17957367752024       -1.32004637892183        0.26589903462187
C            4.35900095473100       -2.55339330755935       -0.32903078368354
C            3.27756632592343       -3.39589641346661       -0.57060635449975
C            1.99012634940456       -3.03560177393136       -0.21793497295515
C            1.80807705198837       -1.80597667458605        0.39510112467314
C           -1.54547636974799       -0.79894094711439       -0.20171498783785
N           -1.13887400619156        0.45646662289587       -0.66505328859078
C            0.04454102231790        0.71459376827585       -1.33535483141321
C            0.90129251949397       -0.17131470175279       -1.96910907667444
C            2.03194290079111        0.34729857613058       -2.57052309541436
C            2.28982832954387        1.71524696811761       -2.56882804218191
C            1.40452114465739        2.60646752514336       -1.99493145622955
C            0.26507394558490        2.10765419565717       -1.37975720240718
C           -0.85353547379554        2.71915691475432       -0.71668751487357
C           -1.19290932677003        4.03547326880103       -0.43724781037368
C           -2.36126620105628        4.28541556222309        0.25516101189483
C           -3.18180312265295        3.24241751899165        0.67582220447848
C           -2.86342761591405        1.92328808245811        0.41159550853192
C           -1.69900854997858        1.66899513760673       -0.29591362109196
C           -2.83763453618387       -1.23939571099053       -0.44763187942373
H           -2.68043953077990       -4.30802229750231        0.99202688212267
H           -0.38861496285738       -3.51583836468266        1.47183307460983
H           -0.90751182337179        0.78128426515517        2.11951275567017
H            0.10232899103445        2.89200848424875        2.88013057310383
H            2.49958299706645        3.31834863221588        2.60009539909765
H            3.97692404398906        1.60656629902697        1.59990908448672
H            5.01580044926460       -0.66052987092974        0.44077335170115
H            5.34947608290686       -2.87054483878694       -0.61918730686742
H            3.44585793763804       -4.35028976261814       -1.04717120674397
H            1.15720878928544       -3.69062581288873       -0.42739987480173
H            0.69457152429597       -1.23055838817555       -2.00065431147687
H            2.72619981593500       -0.32462011158425       -3.05246127164062
H            3.18799569123832        2.08226973994748       -3.04240244594382
H            1.58911464390564        3.66947610193924       -2.02401666604213
H           -0.55058554806479        4.84318667859937       -0.75334687582196
H           -2.64439754905862        5.30261274647016        0.48097963094041
H           -4.08543447699439        3.46683453445857        1.22290568757930
H           -3.50071839624177        1.12249557730531        0.75734797779665
H           -3.51692394693474       -0.61101179316679       -1.00452021359736

          :  Hamiltonian                  GFN2-xTB          :
         :: gradient norm              0.000054430540 Eh/a0 ::
         :: HOMO-LUMO gap              2.359273954709 eV    ::
         :: SCC energy               -86.511533535363 Eh    ::
         :: -> dispersion             -0.086615847049 Eh    ::
         :: repulsion energy           1.637179410670 Eh    ::

    * Orbital Energies and Occupations

         #    Occupation            Energy/Eh            Energy/eV
      -------------------------------------------------------------
         1        2.0000           -0.6959184             -18.9369
       ...           ...                  ...                  ...
        67        2.0000           -0.4290350             -11.6746
        68        2.0000           -0.4284350             -11.6583
        69        2.0000           -0.4263578             -11.6018
        70        2.0000           -0.4253361             -11.5740
        71        2.0000           -0.4249306             -11.5629
        72        2.0000           -0.4238258             -11.5329
        73        2.0000           -0.4218555             -11.4793
        74        2.0000           -0.4115406             -11.1986
        75        2.0000           -0.4096427             -11.1469
        76        2.0000           -0.3882437             -10.5646
        77        2.0000           -0.3815863             -10.3835
        78        2.0000           -0.3743460             -10.1865
        79        2.0000           -0.3710880             -10.0978 (HOMO)
        80                         -0.2843863              -7.7385 (LUMO)
        81                         -0.2593911              -7.0584
        82                         -0.2513378              -6.8392
        83                         -0.2489278              -6.7737
        84                         -0.2324448              -6.3251
        85                         -0.2234332              -6.0799
        86                         -0.2131254              -5.7994
        87                         -0.2079215              -5.6578
        88                         -0.2013572              -5.4792
        89                         -0.1928130              -5.2467
        90                         -0.1909630              -5.1964
       ...                                ...                  ...
       155                          1.1652733              31.7087
      -------------------------------------------------------------
                  HL-Gap            0.0867017 Eh            2.3593 eV

     #   Z          covCN         q      C6AA      α(0)
     1   7 N        0.911    -0.227    25.975     7.371
     2   6 C        1.912     0.113    28.321     8.594
     3   6 C        2.972     0.016    27.651     8.625
     4   6 C        2.924    -0.026    28.645     8.777
     5   6 C        2.921    -0.041    29.013     8.833
     6   6 C        2.912     0.060    26.665     8.467
     7   7 N        2.800    -0.047    22.142     6.989
     8   6 C        3.076     0.049    26.828     8.492
     9   6 C        2.910    -0.047    29.163     8.855
    10   6 C        2.925    -0.031    28.771     8.796
    11   6 C        2.921    -0.038    28.941     8.822
    12   6 C        2.913    -0.032    28.786     8.798
    13   6 C        3.066    -0.015    28.314     8.725
    14   6 C        3.069    -0.014    28.283     8.720
    15   6 C        2.913    -0.031    28.773     8.796
    16   6 C        2.920    -0.039    28.966     8.826
    17   6 C        2.924    -0.032    28.806     8.802
    18   6 C        2.910    -0.050    29.244     8.867
    19   6 C        3.072     0.049    26.819     8.491
    20   6 C        2.911     0.057    26.714     8.475
    21   7 N        2.801    -0.050    22.203     6.998
    22   6 C        3.076     0.049    26.828     8.492
    23   6 C        2.910    -0.048    29.180     8.858
    24   6 C        2.925    -0.031    28.780     8.798
    25   6 C        2.921    -0.038    28.955     8.824
    26   6 C        2.913    -0.032    28.791     8.799
    27   6 C        3.066    -0.015    28.323     8.727
    28   6 C        3.069    -0.014    28.296     8.722
    29   6 C        2.913    -0.031    28.777     8.797
    30   6 C        2.920    -0.039    28.971     8.827
    31   6 C        2.924    -0.032    28.801     8.801
    32   6 C        2.910    -0.050    29.243     8.867
    33   6 C        3.072     0.049    26.818     8.491
    34   6 C        2.929    -0.036    28.884     8.814
    35   1 H        0.926     0.050     2.319     2.381
    36   1 H        0.926     0.053     2.283     2.363
    37   1 H        0.926     0.024     2.681     2.560
    38   1 H        0.926     0.032     2.561     2.502
    39   1 H        0.926     0.032     2.556     2.500
    40   1 H        0.926     0.034     2.528     2.486
    41   1 H        0.926     0.034     2.528     2.487
    42   1 H        0.926     0.032     2.564     2.504
    43   1 H        0.926     0.032     2.557     2.501
    44   1 H        0.926     0.025     2.654     2.548
    45   1 H        0.926     0.022     2.699     2.569
    46   1 H        0.926     0.031     2.574     2.509
    47   1 H        0.926     0.031     2.566     2.505
    48   1 H        0.926     0.034     2.534     2.489
    49   1 H        0.926     0.034     2.535     2.490
    50   1 H        0.926     0.031     2.568     2.506
    51   1 H        0.926     0.032     2.553     2.499
    52   1 H        0.926     0.025     2.665     2.553
    53   1 H        0.926     0.055     2.255     2.348

molecular dipole:
                 x           y           z       tot (Debye)
 q only:        0.952       0.194       0.257
   full:        1.283       0.231       0.347       3.428

 projected vibrational frequencies (cm⁻¹)
eigval :       -0.00    -0.00    -0.00    -0.00     0.00     0.00
eigval :       21.21    32.16    39.49    49.04    55.75    70.54
eigval :      104.31   105.98   112.82   116.83   146.70   162.20
eigval :      169.05   182.18   195.17   203.15   266.21   269.36
eigval :      276.11   280.20   306.88   332.82   355.92   399.02
eigval :      401.24   420.22   422.85   428.11   437.71   442.11
eigval :      453.34   456.18   516.90   518.76   524.88   528.42
eigval :      535.11   541.83   542.78   548.15   561.53   586.91
eigval :      589.58   609.33   621.75   633.93   671.15   672.14
eigval :      680.57   693.13   707.16   707.92   709.61   755.10
eigval :      756.70   770.03   771.45   782.32   782.49   822.58
eigval :      834.68   869.17   872.57   877.72   878.23   887.08
eigval :      895.86   897.99   902.88   904.18   905.81   906.05
eigval :      919.42   923.28   924.38   924.80   925.69   931.03
eigval :      984.41  1012.10  1013.55  1070.40  1071.18  1073.43
eigval :     1075.04  1084.50  1118.51  1146.79  1151.79  1152.22
eigval :     1167.86  1176.20  1180.55  1180.81  1181.24  1191.49
eigval :     1213.51  1232.36  1234.78  1236.97  1243.68  1257.03
eigval :     1295.10  1297.66  1299.87  1301.15  1307.07  1338.10
eigval :     1358.98  1359.31  1361.41  1362.63  1370.03  1410.17
eigval :     1425.13  1428.52  1428.84  1433.86  1473.67  1475.53
eigval :     1486.56  1487.63  1488.07  1532.17  1570.95  1577.80
eigval :     1578.23  1592.16  1592.53  1600.62  1601.38  1614.97
eigval :     1616.48  2374.69  3075.00  3075.88  3079.61  3080.68
eigval :     3081.68  3082.17  3083.73  3084.77  3089.45  3089.76
eigval :     3091.98  3092.65  3093.16  3096.12  3097.71  3098.07
eigval :     3099.62  3100.26  3104.12

   temp. (K)  partition function   enthalpy   heat capacity  entropy
                                   cal/mol     cal/K/mol   cal/K/mol   J/K/mol
 298.15  VIB  0.404E+10            14272.829     95.778     85.820
         ROT  0.171E+08              888.752      2.981     36.073
         INT  0.689E+17            15161.582     98.759    121.893
         TR   0.873E+28             1481.254      4.968     44.070
         TOT                       16642.8356   103.7272   165.9630   694.3891

       T/K    H(0)-H(T)+PV         H(T)/Eh          T*S/Eh         G(T)/Eh
   ------------------------------------------------------------------------
    298.15    0.265220E-01    0.426628E+00    0.788544E-01    0.347773E+00
   ------------------------------------------------------------------------

         :::::::::::::::::::::::::::::::::::::::::::::::::::::
         ::                  THERMODYNAMIC                  ::
         :::::::::::::::::::::::::::::::::::::::::::::::::::::
         :: total free energy         -84.526580912401 Eh   ::
         ::.................................................::
         :: total energy              -84.874354124692 Eh   ::
         :: zero point energy           0.400105529296 Eh   ::
         :: G(RRHO) w/o ZPVE           -0.052332317006 Eh   ::
         :: G(RRHO) contrib.            0.347773212291 Eh   ::
         :::::::::::::::::::::::::::::::::::::::::::::::::::::

           -------------------------------------------------
          | TOTAL ENERGY              -84.874354124692 Eh   |
          | TOTAL ENTHALPY            -84.447726548708 Eh   |
          | TOTAL FREE ENERGY         -84.526580912401 Eh   |
          | GRADIENT NORM               0.000054298001 Eh/α |
          | HOMO-LUMO GAP               2.359272942380 eV   |
           -------------------------------------------------

 * finished run on 2025/08/22 at 09:55:16.835
