   * xtb version 6.7.1 (edcfbbe) compiled by 'albert@albert-system' on 2024-07-22

   ID    Z sym.   atoms
    1    7 N      1, 7, 21
    2    6 C      2-6, 8-20, 22-34
    3    1 H      35-53

          program call               : xtb data2507/gas/2CzBN/2CzBN_gas_T1_crest.xyz --gfn 2 --spinpol --tblite --uhf 2 --ohess vtight --parallel 40 --molden --ceasefiles --namespace data2507/gas/2CzBN/2CzBN_gas_T1_finalOpt
 * total energy  :   -84.7761865 Eh     change       -0.1062772E-07 Eh
 * total energy  :   -84.7763087 Eh     change       -0.1222065E-03 Eh
 * total energy  :   -84.7763641 Eh     change       -0.5532526E-04 Eh
 * total energy  :   -84.7763682 Eh     change       -0.4142172E-05 Eh
 * total energy  :   -84.7763698 Eh     change       -0.1601722E-05 Eh
 * total energy  :   -84.7763705 Eh     change       -0.6591062E-06 Eh
 * total energy  :   -84.7763710 Eh     change       -0.5143533E-06 Eh
 * total energy  :   -84.7763714 Eh     change       -0.4363781E-06 Eh
 * total energy  :   -84.7763718 Eh     change       -0.3905892E-06 Eh
 * total energy  :   -84.7763721 Eh     change       -0.2839040E-06 Eh
 * total energy  :   -84.7763734 Eh     change       -0.2028304E-06 Eh
 * total energy  :   -84.7763736 Eh     change       -0.1674173E-06 Eh
 * total energy  :   -84.7763738 Eh     change       -0.2125098E-06 Eh
 * total energy  :   -84.7763740 Eh     change       -0.1578722E-06 Eh
 * total energy  :   -84.7763741 Eh     change       -0.1695983E-06 Eh
 * total energy  :   -84.7763743 Eh     change       -0.1349812E-06 Eh
 * total energy  :   -84.7763744 Eh     change       -0.1357973E-06 Eh
 * total energy  :   -84.7763744 Eh     change        0.1088426E-07 Eh
 * total energy  :   -84.7763744 Eh     change       -0.2174320E-07 Eh
   *** GEOMETRY OPTIMIZATION CONVERGED AFTER 23 ITERATIONS ***

 final structure:
================
53
 xtb: 6.7.1 (edcfbbe)
N           -5.58184110307791       -3.42672588216714       -0.36537716274536
C           -4.49467330904890       -3.04780741995883       -0.21502501798389
C           -3.21397921045569       -2.58633907227348        0.00641895240754
C           -2.20344554559022       -3.46052817229561        0.57404940244428
C           -0.93164287515269       -3.03000674294308        0.73285000572435
C           -0.55963311408312       -1.69482759114909        0.40693079545338
N            0.68039734123782       -1.19514228696941        0.75277008340763
C            0.91252015514760        0.04841741604253        1.31855619228094
C            0.02029513307229        0.90033041582310        1.95319935075177
C            0.50498533124160        2.10241638558286        2.43452422228908
C            1.85278315754548        2.43718604800636        2.31302152780221
C            2.76101965084878        1.55693691719774        1.75276912156132
C            2.29760078536521        0.34288864775352        1.26813920390624
C            2.93316893141206       -0.80425042630404        0.68730693964368
C            4.24900345561820       -1.10823903582998        0.37168050999859
C            4.52409192699008       -2.32114089158586       -0.23273089825127
C            3.50348391205813       -3.22072718495416       -0.53982959206559
C            2.18446627660018       -2.94128612443210       -0.23375941358847
C            1.90286676545243       -1.73758145035834        0.39777867724556
C           -1.56028711301092       -0.82899128496764       -0.20635007368647
N           -1.16395638418819        0.42627850444044       -0.66733894238666
C            0.01482683212871        0.69207659331901       -1.34281615223851
C            0.87609601102470       -0.18699208119456       -1.98339403117586
C            2.00300710580315        0.33913680097054       -2.58673468260359
C            2.25206715457954        1.70890846316723       -2.58419067154684
C            1.35976750646220        2.59525711991399       -2.00876896507447
C            0.22531151405172        2.08855023692239       -1.39377967496851
C           -0.90327902397637        2.69216338290145       -0.73952433058571
C           -1.25218839565250        4.00462767803756       -0.46140667141720
C           -2.42470418470843        4.24606261780930        0.23070171360477
C           -3.23573930063780        3.19662388716641        0.65711681639466
C           -2.90883026688638        1.88028128372084        0.39168882362890
C           -1.74352256347929        1.63160936357993       -0.32134488162038
C           -2.84063668851848       -1.27088450825130       -0.37323600788277
H           -2.49903590234494       -4.45595491902028        0.86575919014992
H           -0.18917272887265       -3.66865052845562        1.18749986773331
H           -1.01643336645040        0.62912572238075        2.08407935971496
H           -0.17336646017689        2.78925718853543        2.91682488066903
H            2.19370184415179        3.39046573832930        2.68755501650162
H            3.81021016551959        1.80369626164260        1.69793675658720
H            5.03833982558743       -0.40450996347977        0.58709164275251
H            5.54297331308844       -2.57540017746654       -0.48347326584496
H            3.74694775866609       -4.15089260857870       -1.03019288996296
H            1.40181595846479       -3.63748988839501       -0.49284062397252
H            0.67152138254758       -1.24636478783285       -2.01975437288848
H            2.69890771059371       -0.32735331853263       -3.07320011349111
H            3.14658146832900        2.08277347455681       -3.05884340942204
H            1.53718635277110        3.65930475518498       -2.03921729586606
H           -0.61484087745341        4.81736631084768       -0.77427540360031
H           -2.71603450721389        5.26154278577833        0.45314170643515
H           -4.13843327350829        3.41494659697470        1.20735648094933
H           -3.53932820008764        1.07575109644863        0.73785467350099
H           -3.57069497328345       -0.64774232043765       -0.86832058006913

 projected vibrational frequencies (cm⁻¹)
eigval :       -0.00     0.00     0.00     0.00     0.00     0.00
eigval :       18.18    30.51    37.71    46.55    58.75    75.36
eigval :      101.27   103.88   109.94   116.96   142.78   159.86
eigval :      168.65   174.45   194.89   198.52   250.05   268.81
eigval :      272.94   276.19   310.61   313.78   339.55   362.82
eigval :      389.70   393.94   397.51   415.46   420.50   431.29
eigval :      437.11   440.45   491.93   510.84   512.64   517.52
eigval :      529.46   534.58   535.85   544.16   557.94   562.48
eigval :      584.10   585.66   605.00   617.92   631.16   663.92
eigval :      665.36   675.62   691.28   701.51   706.00   752.20
eigval :      754.03   764.50   769.09   770.91   773.25   778.42
eigval :      798.17   850.58   865.67   870.64   873.22   875.64
eigval :      882.55   888.53   892.45   896.18   904.01   905.13
eigval :      905.51   906.44   914.84   917.31   920.46   921.93
eigval :      939.58  1004.96  1010.68  1064.72  1066.81  1068.17
eigval :     1069.35  1072.50  1105.14  1111.39  1136.35  1137.72
eigval :     1145.11  1164.91  1168.11  1174.21  1177.52  1179.63
eigval :     1188.55  1207.83  1220.85  1227.64  1229.46  1243.57
eigval :     1264.05  1271.19  1283.84  1287.22  1293.90  1300.81
eigval :     1330.80  1341.82  1346.55  1362.69  1371.05  1373.92
eigval :     1382.63  1402.48  1411.85  1424.50  1434.87  1455.45
eigval :     1461.05  1477.00  1481.94  1488.98  1528.30  1547.77
eigval :     1561.76  1564.85  1566.24  1578.51  1579.79  1580.89
eigval :     1595.78  2181.85  3083.20  3083.49  3083.79  3083.94
eigval :     3084.24  3086.59  3086.92  3088.45  3089.97  3090.27
eigval :     3094.24  3094.69  3096.49  3096.90  3101.30  3102.19
eigval :     3102.59  3102.95  3104.05

   temp. (K)  partition function   enthalpy   heat capacity  entropy
                                   cal/mol     cal/K/mol   cal/K/mol   J/K/mol
 298.15  VIB  0.766E+10            14617.209     97.710     87.906
         ROT  0.171E+08              888.752      2.981     36.074
         INT  0.131E+18            15505.962    100.691    123.980
         TR   0.873E+28             1481.254      4.968     44.070
         TOT                       16987.2154   105.6590   168.0499   703.1209

       T/K    H(0)-H(T)+PV         H(T)/Eh          T*S/Eh         G(T)/Eh
   ------------------------------------------------------------------------
    298.15    0.270709E-01    0.422654E+00    0.798459E-01    0.342808E+00
   ------------------------------------------------------------------------

         :::::::::::::::::::::::::::::::::::::::::::::::::::::
         ::                  THERMODYNAMIC                  ::
         :::::::::::::::::::::::::::::::::::::::::::::::::::::
         :: total free energy         -84.433566480412 Eh   ::
         ::.................................................::
         :: total energy              -84.776374402971 Eh   ::
         :: zero point energy           0.395583018747 Eh   ::
         :: G(RRHO) w/o ZPVE           -0.052775096189 Eh   ::
         :: G(RRHO) contrib.            0.342807922559 Eh   ::
         :::::::::::::::::::::::::::::::::::::::::::::::::::::

           -------------------------------------------------
          | TOTAL ENERGY              -84.776374402971 Eh   |
          | TOTAL ENTHALPY            -84.353720533278 Eh   |
          | TOTAL FREE ENERGY         -84.433566480412 Eh   |
          | GRADIENT NORM               0.000067780416 Eh/α |
           -------------------------------------------------

 * finished run on 2025/08/22 at 09:57:59.977
