   * xtb version 6.7.1 (edcfbbe) compiled by 'albert@albert-system' on 2024-07-22

   ID    Z sym.   atoms
    1    6 C      1-8, 10-26, 28-43
    2    7 N      9, 27
    3    1 H      44-75

          program call               : xtb data2507/gas/PnB/PnB.xyz --gfn 2 --ohess vtight --parallel 40 --molden --ceasefiles --namespace data2507/gas/PnB/PnB_gas_S0_preOpt
          :  Hamiltonian                  GFN2-xTB          :
 * total energy  :  -110.0054043 Eh     change       -0.1416225E-08 Eh
 * total energy  :  -110.0161329 Eh     change       -0.1072856E-01 Eh
 * total energy  :  -110.0187422 Eh     change       -0.2609266E-02 Eh
 * total energy  :  -110.0194041 Eh     change       -0.6619849E-03 Eh
 * total energy  :  -110.0199101 Eh     change       -0.5059975E-03 Eh
 * total energy  :  -110.0201801 Eh     change       -0.2699410E-03 Eh
 * total energy  :  -110.0204937 Eh     change       -0.3136256E-03 Eh
 * total energy  :  -110.0208152 Eh     change       -0.3215218E-03 Eh
 * total energy  :  -110.0211726 Eh     change       -0.3574131E-03 Eh
 * total energy  :  -110.0215547 Eh     change       -0.3820203E-03 Eh
 * total energy  :  -110.0285915 Eh     change       -0.4491290E-06 Eh
 * total energy  :  -110.0285918 Eh     change       -0.2819283E-06 Eh
 * total energy  :  -110.0285919 Eh     change       -0.1717596E-06 Eh
 * total energy  :  -110.0285921 Eh     change       -0.1520260E-06 Eh
 * total energy  :  -110.0285923 Eh     change       -0.1776738E-06 Eh
 * total energy  :  -110.0285924 Eh     change       -0.1783634E-06 Eh
 * total energy  :  -110.0285926 Eh     change       -0.1583746E-06 Eh
 * total energy  :  -110.0285927 Eh     change       -0.1226752E-06 Eh
 * total energy  :  -110.0285928 Eh     change       -0.9798138E-07 Eh
   *** GEOMETRY OPTIMIZATION CONVERGED AFTER 88 ITERATIONS ***

 final structure:
================
75
 xtb: 6.7.1 (edcfbbe)
C           -6.09025975134401       -4.98599315609724        0.64128011750956
C           -4.89434673183097       -5.20852409609163       -0.27619927247337
C           -3.79952993277684       -4.17228300227825       -0.03830105936281
C           -2.59380669107334       -4.38895983658466       -0.96100494008833
C           -1.54438402883749       -3.34966575407572       -0.70038407484614
C           -1.58350002793264       -2.12504059995709       -1.35675646537458
C           -0.64824847390134       -1.14496648653781       -1.09002377299042
C            0.34282715313248       -1.37636261190295       -0.14253043218440
N            1.29219640135705       -0.37701941848568        0.13414144955708
C            1.04550779677345        0.93757893452145        0.44509830825243
C           -0.29083495221298        1.47805600549113        0.64029818089075
C           -1.24390331039562        0.71017689856704        1.31059138269017
C           -2.52670699212532        1.17042071403979        1.50713549196791
C           -2.91338769111206        2.42867527636129        1.04226983586131
C           -4.23488311137043        2.92790975292329        1.22563806599509
C           -4.58922216741246        4.15606558608109        0.78217316123813
C           -3.65117817210452        4.99672249201966        0.11470910276210
C           -3.99507247534409        6.26774656458210       -0.34855058888094
C           -3.06325195874207        7.06147606421422       -0.99180658505725
C           -1.77175911739135        6.60911158877399       -1.18875795818780
C           -1.38370817869207        5.34432890126002       -0.74322881168350
C           -0.06367032241321        4.84253922714448       -0.93059435824523
C            0.29451653781658        3.61310889673562       -0.49230464392123
C           -0.63302394879693        2.76639273966812        0.18229660192868
C           -1.95633785541481        3.23684690407701        0.38000096989948
C           -2.32973418866508        4.52341996960130       -0.08221508315753
N            2.16696332746597        1.59660633598742        0.59760325443380
C            3.18533007763078        0.71815292097390        0.38761204475809
C            4.56734758506849        1.16875360512198        0.44389927964378
C            5.58530274279010        0.52774676033591       -0.25957891143535
C            6.88416336867219        0.99369941352736       -0.18204304688300
C            7.18529225449090        2.10569143532293        0.58723275474242
C            6.17483645566347        2.76055614845333        1.27268509975775
C            4.87531110448479        2.29881014048624        1.20073385261360
C            2.66018221546486       -0.53186678697736        0.10196268025585
C            3.30309949923622       -1.80817388437819       -0.18047940085020
C            2.92148060940460       -2.57726050961781       -1.27830474327991
C            3.53279639365140       -3.79247010736856       -1.52415677228034
C            4.52991417572690       -4.25535017470358       -0.68229517184382
C            4.91914513873588       -3.49348130123676        0.40794216847157
C            4.31079300518918       -2.27936566037107        0.66053642781762
C            0.39256931438496       -2.59558947186822        0.52307536382435
C           -0.54548278842005       -3.56934417257616        0.23996696425965
H           -6.52167189497759       -4.00153555471761        0.47342373196866
H           -5.78873673093885       -5.05333830924755        1.68437404124048
H           -6.85840618650467       -5.73334105586163        0.45717881528097
H           -4.48817906956780       -6.20855688435703       -0.10723280810569
H           -5.22105211111123       -5.15612064160727       -1.31739419108757
H           -4.20198572368688       -3.17052736746001       -0.20611170370551
H           -3.46762997262166       -4.22438518868486        1.00131777638263
H           -2.92495506120941       -4.33231248057723       -2.00000118321239
H           -2.18399719628430       -5.38586195890007       -0.78666958239547
H           -2.35188732855274       -1.93880159602225       -2.09281601842853
H           -0.67950546433186       -0.19859492913375       -1.60976445434452
H           -0.96665571418812       -0.25747598240544        1.70299115845903
H           -3.24407344058190        0.55653418000848        2.03282618585103
H           -4.95000351351471        2.29535322444317        1.73289772780955
H           -5.59409672473771        4.52768202856056        0.92616517095299
H           -5.00287656865209        6.62795388655687       -0.19787504130758
H           -3.34707763167332        8.04328170006471       -1.34276212793561
H           -1.04798674975749        7.23466489267608       -1.69147423571508
H            0.65315690575062        5.47361594493690       -1.43676489979176
H            1.30266938797345        3.25412790434725       -0.62471449198401
H            5.35711103077187       -0.32784217309516       -0.87770985222630
H            7.66648535703606        0.48858015268098       -0.73048976429729
H            8.20267691664146        2.46444055876760        0.64559490161967
H            6.40327135995643        3.63469691764968        1.86549126862299
H            4.07638602255472        2.80075449581899        1.72444565730688
H            2.15368339333974       -2.21556768401701       -1.94729069953289
H            3.23015251479174       -4.37917003231469       -2.37923345563244
H            5.00481256997528       -5.20563825967655       -0.87634918824870
H            5.69781447934682       -3.84966496142019        1.06638540834465
H            4.60913023844472       -1.68391073911555        1.51112054510755
H            1.16094078737904       -2.77286740410584        1.26092338895074
H           -0.50085816988673       -4.51505092891910        0.76015145394720

          :  Hamiltonian                  GFN2-xTB          :
         :: gradient norm              0.000026540713 Eh/a0 ::
         :: HOMO-LUMO gap              2.068131712805 eV    ::
         :: SCC energy              -112.078361967063 Eh    ::
         :: -> dispersion             -0.102381604364 Eh    ::
         :: repulsion energy           2.049769157477 Eh    ::

    * Orbital Energies and Occupations

         #    Occupation            Energy/Eh            Energy/eV
      -------------------------------------------------------------
         1        2.0000           -0.6826709             -18.5764
       ...           ...                  ...                  ...
        91        2.0000           -0.4110724             -11.1858
        92        2.0000           -0.4087676             -11.1231
        93        2.0000           -0.4080131             -11.1026
        94        2.0000           -0.4059499             -11.0465
        95        2.0000           -0.4026160             -10.9557
        96        2.0000           -0.4017839             -10.9331
        97        2.0000           -0.3999730             -10.8838
        98        2.0000           -0.3931522             -10.6982
        99        2.0000           -0.3902308             -10.6187
       100        2.0000           -0.3888797             -10.5820
       101        2.0000           -0.3714954             -10.1089
       102        2.0000           -0.3677864             -10.0080
       103        2.0000           -0.3531894              -9.6108 (HOMO)
       104                         -0.2771870              -7.5426 (LUMO)
       105                         -0.2472026              -6.7267
       106                         -0.2406030              -6.5471
       107                         -0.2351867              -6.3998
       108                         -0.2346864              -6.3861
       109                         -0.2247200              -6.1149
       110                         -0.2184239              -5.9436
       111                         -0.2170059              -5.9050
       112                         -0.2104332              -5.7262
       113                         -0.2060407              -5.6067
       114                         -0.1875059              -5.1023
       ...                                ...                  ...
       204                          0.7343910              19.9838
      -------------------------------------------------------------
                  HL-Gap            0.0760024 Eh            2.0681 eV

     #   Z          covCN         q      C6AA      α(0)
     1   6 C        3.752    -0.103    22.525     6.768
     2   6 C        3.801    -0.053    21.521     6.605
     3   6 C        3.805    -0.054    21.535     6.606
     4   6 C        3.809    -0.064    21.718     6.634
     5   6 C        2.971     0.014    27.699     8.633
     6   6 C        2.926    -0.036    28.894     8.815
     7   6 C        2.920    -0.040    29.000     8.831
     8   6 C        2.914     0.062    26.606     8.458
     9   7 N        2.853    -0.037    21.955     6.959
    10   6 C        3.152     0.123    25.036     8.184
    11   6 C        2.971    -0.006    28.175     8.707
    12   6 C        2.920    -0.035    28.883     8.813
    13   6 C        2.918    -0.039    28.961     8.825
    14   6 C        2.983     0.011    27.773     8.645
    15   6 C        2.913    -0.036    28.905     8.816
    16   6 C        2.914    -0.036    28.889     8.814
    17   6 C        2.982     0.011    27.754     8.642
    18   6 C        2.921    -0.037    28.930     8.820
    19   6 C        2.913    -0.030    28.757     8.793
    20   6 C        2.920    -0.037    28.910     8.817
    21   6 C        2.982     0.013    27.729     8.638
    22   6 C        2.914    -0.035    28.880     8.812
    23   6 C        2.912    -0.036    28.895     8.814
    24   6 C        2.983     0.013    27.716     8.636
    25   6 C        2.995     0.003    27.938     8.671
    26   6 C        2.997     0.003    27.939     8.671
    27   7 N        1.914    -0.292    28.412     7.903
    28   6 C        3.164     0.051    26.529     8.418
    29   6 C        2.974     0.010    27.788     8.647
    30   6 C        2.923    -0.038    28.934     8.821
    31   6 C        2.919    -0.031    28.763     8.795
    32   6 C        2.920    -0.032    28.810     8.802
    33   6 C        2.918    -0.030    28.747     8.792
    34   6 C        2.927    -0.030    28.756     8.794
    35   6 C        3.067     0.014    27.643     8.621
    36   6 C        2.972     0.009    27.806     8.649
    37   6 C        2.924    -0.033    28.834     8.806
    38   6 C        2.919    -0.029    28.734     8.790
    39   6 C        2.920    -0.031    28.776     8.797
    40   6 C        2.919    -0.028    28.711     8.787
    41   6 C        2.925    -0.032    28.807     8.802
    42   6 C        2.920    -0.040    28.994     8.830
    43   6 C        2.926    -0.037    28.909     8.817
    44   1 H        0.925     0.035     2.521     2.483
    45   1 H        0.925     0.035     2.523     2.484
    46   1 H        0.925     0.035     2.512     2.479
    47   1 H        0.924     0.031     2.578     2.511
    48   1 H        0.924     0.031     2.578     2.511
    49   1 H        0.924     0.033     2.541     2.493
    50   1 H        0.924     0.033     2.550     2.497
    51   1 H        0.924     0.039     2.462     2.454
    52   1 H        0.924     0.039     2.466     2.456
    53   1 H        0.926     0.039     2.469     2.457
    54   1 H        0.926     0.038     2.481     2.463
    55   1 H        0.926     0.025     2.658     2.550
    56   1 H        0.926     0.030     2.585     2.514
    57   1 H        0.926     0.030     2.589     2.516
    58   1 H        0.926     0.031     2.578     2.511
    59   1 H        0.926     0.030     2.590     2.517
    60   1 H        0.926     0.029     2.597     2.520
    61   1 H        0.926     0.031     2.569     2.506
    62   1 H        0.926     0.033     2.544     2.494
    63   1 H        0.926     0.057     2.229     2.335
    64   1 H        0.926     0.025     2.660     2.550
    65   1 H        0.926     0.025     2.652     2.547
    66   1 H        0.926     0.026     2.640     2.541
    67   1 H        0.926     0.028     2.610     2.526
    68   1 H        0.926     0.049     2.327     2.385
    69   1 H        0.926     0.025     2.662     2.551
    70   1 H        0.926     0.029     2.599     2.521
    71   1 H        0.926     0.030     2.583     2.513
    72   1 H        0.926     0.032     2.562     2.503
    73   1 H        0.926     0.033     2.538     2.492
    74   1 H        0.926     0.038     2.473     2.459
    75   1 H        0.926     0.038     2.476     2.461

molecular dipole:
                 x           y           z       tot (Debye)
 q only:       -0.879      -0.918      -0.240
   full:       -0.952      -1.344      -0.317       4.263

 projected vibrational frequencies (cm⁻¹)
eigval :       -0.00    -0.00    -0.00    -0.00     0.00     0.00
eigval :       11.85    13.85    19.73    24.63    26.71    31.70
eigval :       34.75    53.06    57.02    65.91    69.57    71.81
eigval :       82.49   104.00   108.16   113.13   127.32   145.62
eigval :      171.19   181.47   189.64   203.49   209.58   218.56
eigval :      229.06   233.40   247.44   256.63   282.38   292.00
eigval :      318.92   337.89   354.85   370.92   374.40   376.23
eigval :      381.26   384.28   398.99   409.15   436.65   443.48
eigval :      453.42   468.65   476.49   477.63   481.16   497.21
eigval :      502.11   513.83   516.91   537.91   571.70   582.78
eigval :      588.10   589.18   608.09   623.36   634.62   645.99
eigval :      652.64   656.31   670.75   670.94   680.39   683.60
eigval :      691.67   696.29   696.99   724.86   743.84   757.26
eigval :      763.64   765.53   774.32   774.37   801.96   815.43
eigval :      819.70   825.76   829.70   836.82   850.68   853.36
eigval :      871.94   878.19   878.64   885.69   901.85   902.16
eigval :      913.32   916.55   920.10   921.91   926.41   926.49
eigval :      929.67   930.31   931.53   932.23   942.69   943.89
eigval :      944.71   969.18   980.45   996.88  1011.86  1026.30
eigval :     1062.29  1073.82  1078.32  1082.66  1083.92  1100.30
eigval :     1112.32  1119.14  1121.24  1121.63  1124.93  1134.85
eigval :     1142.90  1161.52  1174.06  1181.77  1181.98  1185.27
eigval :     1195.02  1196.05  1198.82  1201.75  1208.01  1212.80
eigval :     1219.12  1228.21  1239.23  1239.67  1259.56  1263.20
eigval :     1263.74  1274.42  1277.63  1281.57  1282.99  1287.09
eigval :     1309.37  1316.18  1316.72  1322.66  1326.75  1329.10
eigval :     1332.17  1358.83  1367.16  1368.77  1388.57  1391.89
eigval :     1405.78  1412.34  1416.77  1417.76  1418.64  1431.07
eigval :     1435.81  1450.02  1454.63  1484.59  1486.58  1488.74
eigval :     1493.86  1496.67  1498.98  1500.31  1503.83  1506.86
eigval :     1528.65  1546.58  1559.23  1562.73  1578.01  1578.50
eigval :     1579.32  1582.04  1597.60  1599.97  1601.75  1605.26
eigval :     1607.24  2959.23  2968.70  2977.71  2979.48  2980.60
eigval :     2989.07  3031.23  3034.10  3039.66  3063.47  3067.99
eigval :     3068.31  3071.52  3072.04  3072.51  3072.80  3075.50
eigval :     3075.69  3078.02  3078.50  3080.16  3082.25  3084.05
eigval :     3085.62  3086.94  3087.73  3091.01  3091.78  3093.32
eigval :     3094.47  3102.74  3111.09

   temp. (K)  partition function   enthalpy   heat capacity  entropy
                                   cal/mol     cal/K/mol   cal/K/mol   J/K/mol
 298.15  VIB  0.266E+17            20531.354    128.238    128.478
         ROT  0.632E+08              888.752      2.981     38.676
         INT  0.168E+25            21420.106    131.219    167.153
         TR   0.126E+29             1481.254      4.968     44.794
         TOT                       22901.3601   136.1870   211.9473   886.7874

       T/K    H(0)-H(T)+PV         H(T)/Eh          T*S/Eh         G(T)/Eh
   ------------------------------------------------------------------------
    298.15    0.364956E-01    0.633443E+00    0.100703E+00    0.532740E+00
   ------------------------------------------------------------------------

         :::::::::::::::::::::::::::::::::::::::::::::::::::::
         ::                  THERMODYNAMIC                  ::
         :::::::::::::::::::::::::::::::::::::::::::::::::::::
         :: total free energy        -109.495852926003 Eh   ::
         ::.................................................::
         :: total energy             -110.028592809585 Eh   ::
         :: zero point energy           0.596947230965 Eh   ::
         :: G(RRHO) w/o ZPVE           -0.064207347383 Eh   ::
         :: G(RRHO) contrib.            0.532739883582 Eh   ::
         :::::::::::::::::::::::::::::::::::::::::::::::::::::

           -------------------------------------------------
          | TOTAL ENERGY             -110.028592809585 Eh   |
          | TOTAL ENTHALPY           -109.395149938204 Eh   |
          | TOTAL FREE ENERGY        -109.495852926003 Eh   |
          | GRADIENT NORM               0.000026535446 Eh/α |
          | HOMO-LUMO GAP               2.068131676027 eV   |
           -------------------------------------------------

 * finished run on 2025/08/24 at 04:59:06.793
