   * xtb version 6.7.1 (edcfbbe) compiled by 'albert@albert-system' on 2024-07-22

   ID    Z sym.   atoms
    1    6 C      1-8, 10-26, 28-43
    2    7 N      9, 27
    3    1 H      44-75

          program call               : xtb data2507/gas/PnB/PnB_gas_S0_finalOpt.xtbopt.xyz --gfn 2 --spinpol --tblite --uhf 2 --ohess vtight --parallel 40 --molden --ceasefiles --namespace data2507/gas/PnB/PnB_gas_T1_preOpt
 * total energy  :  -109.9540064 Eh     change       -0.9625012E-10 Eh
 * total energy  :  -109.9607240 Eh     change       -0.6717691E-02 Eh
 * total energy  :  -109.9624067 Eh     change       -0.1682631E-02 Eh
 * total energy  :  -109.9625760 Eh     change       -0.1692806E-03 Eh
 * total energy  :  -109.9627719 Eh     change       -0.1959402E-03 Eh
 * total energy  :  -109.9628830 Eh     change       -0.1111388E-03 Eh
 * total energy  :  -109.9629852 Eh     change       -0.1022096E-03 Eh
 * total energy  :  -109.9630525 Eh     change       -0.6727778E-04 Eh
 * total energy  :  -109.9631038 Eh     change       -0.5125418E-04 Eh
 * total energy  :  -109.9631516 Eh     change       -0.4784875E-04 Eh
 * total energy  :  -109.9639635 Eh     change       -0.1193096E-05 Eh
 * total energy  :  -109.9639644 Eh     change       -0.9148335E-06 Eh
 * total energy  :  -109.9639653 Eh     change       -0.8393566E-06 Eh
 * total energy  :  -109.9639660 Eh     change       -0.7352093E-06 Eh
 * total energy  :  -109.9639670 Eh     change       -0.9973565E-06 Eh
 * total energy  :  -109.9639681 Eh     change       -0.1094578E-05 Eh
 * total energy  :  -109.9639692 Eh     change       -0.1118677E-05 Eh
 * total energy  :  -109.9639692 Eh     change        0.5563805E-08 Eh
 * total energy  :  -109.9639692 Eh     change       -0.9027232E-08 Eh
   *** GEOMETRY OPTIMIZATION CONVERGED AFTER 69 ITERATIONS ***

 final structure:
================
75
 xtb: 6.7.1 (edcfbbe)
C           -5.84057513852991       -2.68148163128515       -0.01180466531126
C           -4.44907647611236       -2.75448574827376        0.60335476479439
C           -3.67063823983937       -3.95857614791973        0.07928774996125
C           -2.36239054358649       -4.20482485943191        0.84330098638749
C           -1.37280839039891       -3.09534622464531        0.64357051578225
C           -0.49299054863153       -3.11854498106346       -0.43214162434514
C            0.42244944887949       -2.10352836731437       -0.62814435737657
C            0.46629428939197       -1.03466003244730        0.25948704326864
N            1.40020749853549        0.00360285506517        0.09324152383758
C            1.14451486854942        1.36246987587297        0.19197478095537
C           -0.13965336692336        1.96159221954524        0.30898534788264
C           -0.25424699027572        3.11152592380160        1.11925212048511
C           -1.46976350091533        3.59392763680595        1.49284408206215
C           -2.68325977751778        2.98156488478596        1.02947166703377
C           -3.93636539027269        3.42463783968650        1.43930368555743
C           -5.09814883074235        2.86444990602558        0.92515729807681
C           -5.04111215463823        1.87231552606963       -0.05955115262999
C           -6.21108088138084        1.32960506167228       -0.65397973974685
C           -6.12007096309588        0.38247373660921       -1.65641786677376
C           -4.89284849047978       -0.06296373726280       -2.10004998727897
C           -3.69001752796213        0.43818276878600       -1.52947361698178
C           -2.42955805721289        0.04800309642797       -1.98460099414662
C           -1.27212665130977        0.55635296011699       -1.40923307065621
C           -1.32763984126230        1.44000517099174       -0.33515494803631
C           -2.59212059141681        1.92960754138704        0.07957976774057
C           -3.77281345772010        1.40777925787607       -0.49650535859497
N            2.27937437347702        2.04580510583180        0.18657693270651
C            3.28375973732468        1.15703966987708        0.05298231626950
C            4.66811167459392        1.59957136809047        0.01907306617569
C            5.71715939642598        0.79303911572852        0.45803337480400
C            7.01709167069643        1.26003102147679        0.41427973071485
C            7.28924692493566        2.53317047816468       -0.05961311087931
C            6.24949304488769        3.34797139048262       -0.47870968865667
C            4.94835933355027        2.88794897911935       -0.43707050191647
C            2.76142961109526       -0.13979694466127       -0.00530328135477
C            3.42946076692813       -1.42339617933338       -0.14223639891016
C            3.14384226900290       -2.48293185582560        0.71925813120015
C            3.79112787056150       -3.69473594825515        0.57022014050069
C            4.72697325236621       -3.86879288958279       -0.43602009256274
C            5.02034690028300       -2.81928883875546       -1.29268721959182
C            4.37907937567754       -1.60477965996362       -1.14940400065704
C           -0.41294318679017       -0.99472522849558        1.33515027756323
C           -1.32117809569928       -2.01794933673799        1.51936600793718
H           -6.42293135081666       -3.56188172675940        0.25346873229029
H           -5.77437849736396       -2.62669102415805       -1.09546341014520
H           -6.36702214243013       -1.79825386116337        0.34124796109467
H           -3.90241814105090       -1.83653436233291        0.37702983907419
H           -4.54335255209167       -2.82961143663243        1.68938191831709
H           -4.29405318262381       -4.85158628879510        0.16993242398766
H           -3.44824399050006       -3.81180492538409       -0.97979685970867
H           -1.92647761263232       -5.14408624152380        0.49527114849747
H           -2.58949108721078       -4.30819544665992        1.90645856498247
H           -0.52099946089920       -3.94684466691767       -1.12524070262676
H            1.10146705680924       -2.13467855927024       -1.46748749155518
H            0.65983726184992        3.54711740699391        1.49369636194397
H           -1.54728455787794        4.43803113394020        2.16164554905397
H           -4.00166290160903        4.22440127404575        2.16331371595182
H           -6.06207874180483        3.21360775919918        1.26629682759789
H           -7.17511996573740        1.68236280116291       -0.31864568016761
H           -7.02381102962537       -0.00908716904573       -2.10212315671180
H           -4.82379894188092       -0.78965392082378       -2.89596210246913
H           -2.35527559153179       -0.65567912955779       -2.80106761953351
H           -0.31619971359557        0.27721424636847       -1.82496880293629
H            5.51314945221904       -0.19227683368181        0.84973578003523
H            7.82342061779703        0.62783467082781        0.75738750970261
H            8.30775366745866        2.89137517574533       -0.09436424557205
H            6.45667366464593        4.34530749935867       -0.83878753339995
H            4.12636661924333        3.51034783688590       -0.75498021045511
H            2.42762755943808       -2.34898472793053        1.51696709761046
H            3.56539246678976       -4.50654929136971        1.24598336600114
H            5.22917832988743       -4.81780291025537       -0.55038823490769
H            5.75056174131670       -2.94963903141920       -2.07772220644893
H            4.60296286777049       -0.78586702742605       -1.81738005035657
H           -0.37379773453832       -0.16607107436755        2.02680377264725
H           -1.99261721497356       -1.98277161418194        2.36424486877069

 projected vibrational frequencies (cm⁻¹)
eigval :       -0.00    -0.00     0.00     0.00     0.00     0.00
eigval :       13.09    18.85    22.55    26.15    31.44    39.07
eigval :       43.61    53.81    66.12    73.41    80.60    88.52
eigval :       92.79   106.73   116.40   120.73   138.99   147.51
eigval :      167.93   191.28   196.76   206.06   212.92   223.09
eigval :      230.50   246.24   252.45   254.45   270.38   276.58
eigval :      321.29   338.18   355.94   370.55   374.59   378.33
eigval :      379.30   383.76   390.38   404.25   424.21   427.09
eigval :      450.40   455.81   461.68   475.19   477.25   492.71
eigval :      502.41   509.49   512.78   543.39   554.40   571.94
eigval :      586.17   588.86   604.41   612.51   617.88   633.10
eigval :      643.58   652.85   661.00   666.51   669.92   677.96
eigval :      681.10   684.51   691.56   721.70   730.33   741.13
eigval :      747.54   761.47   764.17   772.42   781.64   798.87
eigval :      801.84   808.49   814.12   820.34   832.68   839.08
eigval :      866.04   872.56   876.31   877.43   878.28   893.25
eigval :      901.33   903.36   907.94   913.28   915.35   916.37
eigval :      927.31   929.56   929.80   931.10   931.34   938.02
eigval :      951.64   959.31   976.50   983.27  1008.44  1019.80
eigval :     1050.30  1067.94  1081.53  1083.39  1085.78  1097.20
eigval :     1115.16  1117.92  1119.17  1121.81  1124.95  1132.38
eigval :     1143.14  1145.14  1159.49  1162.86  1181.07  1181.41
eigval :     1189.38  1191.73  1195.76  1198.90  1200.37  1200.89
eigval :     1205.59  1212.83  1224.88  1232.93  1235.48  1244.38
eigval :     1267.51  1276.57  1280.07  1281.88  1282.17  1283.53
eigval :     1304.30  1305.32  1309.57  1316.20  1323.31  1324.87
eigval :     1329.96  1332.68  1354.01  1364.61  1368.60  1370.78
eigval :     1380.71  1389.40  1400.86  1409.78  1414.82  1417.80
eigval :     1428.67  1433.02  1444.32  1451.82  1463.79  1481.20
eigval :     1483.76  1486.32  1490.94  1493.54  1496.27  1498.26
eigval :     1502.32  1503.68  1515.13  1517.87  1523.44  1528.96
eigval :     1570.72  1572.61  1577.98  1578.58  1591.74  1595.85
eigval :     1604.36  2959.75  2967.94  2968.75  2980.05  2984.92
eigval :     2986.63  3025.09  3039.88  3045.13  3065.40  3068.51
eigval :     3071.07  3073.23  3075.36  3076.02  3077.37  3077.77
eigval :     3078.20  3080.13  3082.29  3082.77  3084.76  3086.78
eigval :     3088.06  3089.36  3090.55  3093.53  3093.82  3094.65
eigval :     3096.30  3096.72  3105.01

   temp. (K)  partition function   enthalpy   heat capacity  entropy
                                   cal/mol     cal/K/mol   cal/K/mol   J/K/mol
 298.15  VIB  0.406E+16            20531.406    130.407    127.053
         ROT  0.468E+08              888.752      2.981     38.080
         INT  0.190E+24            21420.159    133.388    165.132
         TR   0.126E+29             1481.254      4.968     44.794
         TOT                       22901.4125   138.3563   209.9262   878.3314

       T/K    H(0)-H(T)+PV         H(T)/Eh          T*S/Eh         G(T)/Eh
   ------------------------------------------------------------------------
    298.15    0.364957E-01    0.630400E+00    0.997427E-01    0.530657E+00
   ------------------------------------------------------------------------

         :::::::::::::::::::::::::::::::::::::::::::::::::::::
         ::                  THERMODYNAMIC                  ::
         :::::::::::::::::::::::::::::::::::::::::::::::::::::
         :: total free energy        -109.433312442370 Eh   ::
         ::.................................................::
         :: total energy             -109.963969230091 Eh   ::
         :: zero point energy           0.593903796257 Eh   ::
         :: G(RRHO) w/o ZPVE           -0.063247008536 Eh   ::
         :: G(RRHO) contrib.            0.530656787721 Eh   ::
         :::::::::::::::::::::::::::::::::::::::::::::::::::::

           -------------------------------------------------
          | TOTAL ENERGY             -109.963969230091 Eh   |
          | TOTAL ENTHALPY           -109.333569709975 Eh   |
          | TOTAL FREE ENERGY        -109.433312442370 Eh   |
          | GRADIENT NORM               0.000077491169 Eh/α |
           -------------------------------------------------

 * finished run on 2025/08/24 at 05:09:15.355
