   * xtb version 6.7.1 (edcfbbe) compiled by 'albert@albert-system' on 2024-07-22

   ID    Z sym.   atoms
    1    6 C      1-8, 10-26, 28-43
    2    7 N      9, 27
    3    1 H      44-75

          program call               : xtb data2507/gas/PnB/PnB_gas_T1_crest.xyz --gfn 2 --spinpol --tblite --uhf 2 --ohess vtight --parallel 40 --molden --ceasefiles --namespace data2507/gas/PnB/PnB_gas_T1_finalOpt
 * total energy  :  -109.9643551 Eh     change       -0.9329199E-08 Eh
 * total energy  :  -109.9643844 Eh     change       -0.2933945E-04 Eh
 * total energy  :  -109.9644017 Eh     change       -0.1723722E-04 Eh
 * total energy  :  -109.9644060 Eh     change       -0.4311502E-05 Eh
 * total energy  :  -109.9644111 Eh     change       -0.5083991E-05 Eh
 * total energy  :  -109.9644151 Eh     change       -0.4071862E-05 Eh
 * total energy  :  -109.9644199 Eh     change       -0.4746580E-05 Eh
 * total energy  :  -109.9644237 Eh     change       -0.3845929E-05 Eh
 * total energy  :  -109.9644263 Eh     change       -0.2626678E-05 Eh
 * total energy  :  -109.9644286 Eh     change       -0.2282124E-05 Eh
 * total energy  :  -109.9644407 Eh     change       -0.2584933E-05 Eh
 * total energy  :  -109.9644426 Eh     change       -0.1834956E-05 Eh
 * total energy  :  -109.9644441 Eh     change       -0.1575447E-05 Eh
 * total energy  :  -109.9644458 Eh     change       -0.1625057E-05 Eh
 * total energy  :  -109.9644473 Eh     change       -0.1509432E-05 Eh
 * total energy  :  -109.9644482 Eh     change       -0.9783241E-06 Eh
 * total energy  :  -109.9644489 Eh     change       -0.6678713E-06 Eh
 * total energy  :  -109.9644489 Eh     change        0.4374046E-07 Eh
 * total energy  :  -109.9644489 Eh     change       -0.4979186E-07 Eh
   *** GEOMETRY OPTIMIZATION CONVERGED AFTER 23 ITERATIONS ***

 final structure:
================
75
 xtb: 6.7.1 (edcfbbe)
C           -6.55003212754111       -3.27370729450314       -0.40021013341563
C           -5.37140500009891       -3.83775579197680        0.38287710327086
C           -4.10809527161600       -3.00857342111904        0.17136676445904
C           -2.91924842169776       -3.55442168308784        0.97152132452506
C           -1.72292182588313       -2.67167958389525        0.77912884440678
C           -0.79388419814986       -2.93188497134287       -0.22035872176150
C            0.26539132000545       -2.07566820926134       -0.44941716009240
C            0.40962925845211       -0.93430099856479        0.33047590082186
N            1.44786486014597       -0.01959621615310        0.08331508086164
C            1.32358878522944        1.36084960654383        0.00405105040411
C            0.10775057098901        2.09210305761252        0.04906897755304
C            0.12368374451989        3.35404443588529        0.68602598483787
C           -1.02965343756448        3.96506411374140        1.06572606774527
C           -2.30796197782543        3.36502035966111        0.80059651147679
C           -3.49771969293834        3.92110472616035        1.25922720983218
C           -4.72283828828931        3.34644403130130        0.95064992795214
C           -4.80074593565987        2.22220244422361        0.11998268167896
C           -6.04051967183507        1.64196266151183       -0.25467450488369
C           -6.08198293936517        0.55573751409167       -1.10883598350144
C           -4.92283263722563        0.01303106872560       -1.62252101430579
C           -3.65417815255643        0.55038591107057       -1.27239231628258
C           -2.46024662840351        0.06424393948709       -1.81015079029675
C           -1.23535351310303        0.58743842251668       -1.41941174567179
C           -1.15415003574525        1.58632982365180       -0.45346207211472
C           -2.35165496026081        2.19226127684209        0.00130016033432
C           -3.60062927529521        1.65198628363151       -0.37964482084397
N            2.52161811743209        1.92432012805787       -0.07713468683597
C            3.43381629627687        0.93387247038519       -0.08596024627889
C            4.85499109690076        1.23238561740022       -0.15464961172676
C            5.81780756321566        0.39191290198362        0.40257528261309
C            7.15748740906376        0.72121561913139        0.32190406663836
C            7.55557452404491        1.89008244683363       -0.30644791532628
C            6.60280629217212        2.74060947787057       -0.84450446254025
C            5.26257646959005        2.41782747885069       -0.76709236575114
C            2.78780860851364       -0.30460966512635        0.01460850801996
C            3.32593097933968       -1.65364787212131        0.04629143061069
C            2.92091300187583       -2.57029952106254        1.01727793922324
C            3.44335445826141       -3.84942693157629        1.02791200862642
C            4.37144639253820       -4.23391746685662        0.07412879918746
C            4.78282045614389       -3.32781228546460       -0.89091680505153
C            4.26691424956330       -2.04712382008460       -0.90737855978249
C           -0.49637742081969       -0.67840402940357        1.35405342708046
C           -1.55443459491639       -1.53834176405218        1.56538692519168
H           -6.33650889435735       -3.27768353514486       -1.46679933890018
H           -6.74922793490816       -2.24873588558115       -0.09584833397673
H           -7.44490754101689       -3.86717462649414       -0.22738531848917
H           -5.61844905318070       -3.85257700963705        1.44702077875216
H           -5.18604584835030       -4.86889344138545        0.07225585597646
H           -3.84843609547890       -3.00005124761690       -0.88933799130104
H           -4.29628359678715       -1.97434705088236        0.46903508126825
H           -2.69648506893686       -4.57056630764739        0.63980227883988
H           -3.18853184601473       -3.59099379150889        2.02924340372387
H           -0.90581683827719       -3.81195047136275       -0.83679449467939
H            0.97028203164124       -2.27846410240371       -1.24219366539836
H            1.08774031751225        3.77125618240157        0.93473167045755
H           -1.00750855087388        4.90046386398548        1.60460139630494
H           -3.46252822750745        4.81623205841469        1.86389394361695
H           -5.63449082342000        3.78106775211130        1.33468092272051
H           -6.95335213641255        2.07213771010629        0.12995855802652
H           -7.03782034872905        0.13405909731407       -1.38755012071452
H           -4.96214291988403       -0.82234269014415       -2.30506783833193
H           -2.49281616130103       -0.73390265562410       -2.53739511065607
H           -0.33291822556203        0.21748713932958       -1.88229250797239
H            5.51615903269822       -0.50987781433138        0.91409424507791
H            7.89612973238696        0.06360592545617        0.75721044829677
H            8.60446411381503        2.14065693949954       -0.36890996010473
H            6.90867637156812        3.65847529117900       -1.32533575705700
H            4.50733378383850        3.07068205518966       -1.17634579616654
H            2.20979697510117       -2.27213640248631        1.77400989768077
H            3.12578502259033       -4.54893612155939        1.78715483004923
H            4.77557675681468       -5.23513094277149        0.08432351318825
H            5.50701287891655       -3.62259869773776       -1.63597472549459
H            4.58230038286058       -1.34015110226988       -1.66076569943180
H           -0.37078916148115        0.19805708252193        1.97250930553218
H           -2.26216060654788       -1.32507180364393        2.35289765236841

 projected vibrational frequencies (cm⁻¹)
eigval :       -0.00    -0.00    -0.00    -0.00     0.00     0.00
eigval :       10.26    19.42    24.16    26.20    31.48    38.57
eigval :       53.60    53.98    57.92    72.49    75.30    80.89
eigval :       92.59    99.06   109.76   118.11   133.73   141.99
eigval :      165.58   187.62   194.22   202.46   210.21   211.70
eigval :      228.22   235.37   254.21   255.33   276.42   283.71
eigval :      318.69   336.50   353.15   370.60   375.88   376.60
eigval :      382.67   383.87   390.60   398.59   424.54   429.22
eigval :      438.39   454.03   462.14   468.20   478.06   492.91
eigval :      503.87   506.41   514.58   535.03   551.95   572.37
eigval :      586.16   588.85   603.83   617.53   624.66   633.37
eigval :      643.42   652.93   660.66   666.57   669.79   677.65
eigval :      683.81   686.88   692.30   722.16   731.38   742.78
eigval :      747.33   762.53   764.66   773.58   774.95   799.46
eigval :      802.89   813.78   816.64   821.39   830.75   833.90
eigval :      851.78   871.77   876.19   877.50   879.82   897.56
eigval :      901.20   903.49   907.52   915.42   915.99   926.30
eigval :      929.32   929.99   931.06   931.64   937.63   942.83
eigval :      945.34   952.47   976.55   982.82  1009.96  1019.67
eigval :     1062.70  1067.42  1078.33  1081.67  1083.07  1101.17
eigval :     1112.88  1116.91  1119.08  1121.52  1124.97  1131.43
eigval :     1143.21  1143.72  1158.47  1161.45  1181.27  1181.47
eigval :     1188.96  1191.04  1195.63  1197.55  1200.94  1205.65
eigval :     1212.21  1212.81  1224.50  1235.44  1239.77  1259.65
eigval :     1263.80  1268.43  1277.59  1279.64  1281.32  1282.28
eigval :     1283.49  1305.66  1310.29  1316.54  1323.21  1327.75
eigval :     1329.17  1331.66  1353.77  1363.80  1367.59  1369.47
eigval :     1380.15  1389.24  1401.75  1408.96  1416.20  1417.45
eigval :     1428.78  1432.76  1443.63  1451.52  1463.84  1484.76
eigval :     1486.19  1490.48  1494.59  1495.85  1498.59  1499.46
eigval :     1501.86  1507.27  1514.86  1517.72  1523.79  1529.86
eigval :     1569.65  1571.61  1577.61  1578.39  1591.21  1595.82
eigval :     1604.26  2959.30  2967.72  2976.32  2978.56  2981.62
eigval :     2989.48  3031.78  3034.84  3039.64  3064.77  3068.77
eigval :     3071.11  3073.53  3075.45  3076.08  3077.55  3077.97
eigval :     3078.94  3080.82  3081.56  3083.48  3084.75  3086.76
eigval :     3087.57  3089.39  3090.07  3090.88  3092.78  3093.76
eigval :     3096.21  3097.12  3104.87

   temp. (K)  partition function   enthalpy   heat capacity  entropy
                                   cal/mol     cal/K/mol   cal/K/mol   J/K/mol
 298.15  VIB  0.664E+16            20616.751    130.491    128.281
         ROT  0.482E+08              888.752      2.981     38.138
         INT  0.320E+24            21505.504    133.472    166.419
         TR   0.126E+29             1481.254      4.968     44.794
         TOT                       22986.7576   138.4403   211.2129   883.7149

       T/K    H(0)-H(T)+PV         H(T)/Eh          T*S/Eh         G(T)/Eh
   ------------------------------------------------------------------------
    298.15    0.366317E-01    0.630381E+00    0.100354E+00    0.530027E+00
   ------------------------------------------------------------------------

         :::::::::::::::::::::::::::::::::::::::::::::::::::::
         ::                  THERMODYNAMIC                  ::
         :::::::::::::::::::::::::::::::::::::::::::::::::::::
         :: total free energy        -109.434422307409 Eh   ::
         ::.................................................::
         :: total energy             -109.964448845372 Eh   ::
         :: zero point energy           0.593748890270 Eh   ::
         :: G(RRHO) w/o ZPVE           -0.063722352307 Eh   ::
         :: G(RRHO) contrib.            0.530026537963 Eh   ::
         :::::::::::::::::::::::::::::::::::::::::::::::::::::

           -------------------------------------------------
          | TOTAL ENERGY             -109.964448845372 Eh   |
          | TOTAL ENTHALPY           -109.334068225231 Eh   |
          | TOTAL FREE ENERGY        -109.434422307409 Eh   |
          | GRADIENT NORM               0.000147048942 Eh/α |
           -------------------------------------------------

 * finished run on 2025/08/24 at 05:18:22.683
