   * xtb version 6.7.1 (edcfbbe) compiled by 'albert@albert-system' on 2024-07-22

   ID    Z sym.   atoms
    1    6 C      1-8, 10-26, 28-43
    2    7 N      9, 27
    3    1 H      44-75

          program call               : xtb data2507/gas/PnB/PnB_gas_S0_crest.xyz --gfn 2 --ohess vtight --parallel 40 --molden --ceasefiles --namespace data2507/gas/PnB/PnB_gas_S0_finalOpt
          :  Hamiltonian                  GFN2-xTB          :
 * total energy  :  -110.0310277 Eh     change       -0.1599361E-08 Eh
 * total energy  :  -110.0310290 Eh     change       -0.1372479E-05 Eh
 * total energy  :  -110.0310306 Eh     change       -0.1529809E-05 Eh
 * total energy  :  -110.0310349 Eh     change       -0.4348521E-05 Eh
 * total energy  :  -110.0310379 Eh     change       -0.2961127E-05 Eh
 * total energy  :  -110.0310389 Eh     change       -0.1014872E-05 Eh
 * total energy  :  -110.0310398 Eh     change       -0.9303164E-06 Eh
 * total energy  :  -110.0310416 Eh     change       -0.1772503E-05 Eh
 * total energy  :  -110.0310438 Eh     change       -0.2196529E-05 Eh
 * total energy  :  -110.0310454 Eh     change       -0.1578277E-05 Eh
 * total energy  :  -110.0310501 Eh     change       -0.1418497E-05 Eh
 * total energy  :  -110.0310513 Eh     change       -0.1161248E-05 Eh
 * total energy  :  -110.0310522 Eh     change       -0.9461882E-06 Eh
 * total energy  :  -110.0310530 Eh     change       -0.8068485E-06 Eh
 * total energy  :  -110.0310539 Eh     change       -0.9034708E-06 Eh
 * total energy  :  -110.0310550 Eh     change       -0.1084117E-05 Eh
 * total energy  :  -110.0310560 Eh     change       -0.1010257E-05 Eh
 * total energy  :  -110.0310569 Eh     change       -0.8242665E-06 Eh
 * total energy  :  -110.0310569 Eh     change       -0.4055352E-08 Eh
   *** GEOMETRY OPTIMIZATION CONVERGED AFTER 22 ITERATIONS ***

 final structure:
================
75
 xtb: 6.7.1 (edcfbbe)
C           -5.68791440195254       -2.52080170682236       -0.34235825655049
C           -4.39945302034117       -2.66132077682576        0.45743118475548
C           -3.64480281009755       -3.93362991005883        0.08073072179106
C           -2.42564475090310       -4.18746607315629        0.97755532086549
C           -1.39273334330261       -3.11090898510959        0.82233083820307
C           -0.50432752781523       -3.13703148808120       -0.24623123692465
C            0.42880576916254       -2.13517649726910       -0.42219343504207
C            0.48902277631822       -1.08183302082974        0.48328673076508
N            1.41599561671013       -0.03995250458382        0.30697666234409
C            1.13787418468641        1.30363207988911        0.33071505627543
C           -0.19681417056855        1.84311840602846        0.56282586676127
C           -0.35914296308198        2.77374717492550        1.58605153945956
C           -1.60988868849282        3.23830138882299        1.93191138938013
C           -2.74954782011568        2.78165596040869        1.26591528752807
C           -4.06053717683554        3.20393124794869        1.63166576552983
C           -5.15166577169561        2.77163976152419        0.95832115805052
C           -5.03013519551676        1.88679741107985       -0.15307585649867
C           -6.13923662212774        1.45208057731344       -0.88071202159074
C           -5.98607370211410        0.61225056236307       -1.96836622765414
C           -4.72953144605926        0.18128212680169       -2.35200744140422
C           -3.59338221813362        0.58227196938975       -1.64800174966204
C           -2.28010986551000        0.18805431703931       -2.03442099173720
C           -1.19050805745585        0.59604053453071       -1.34413052284133
C           -1.30842504635547        1.42596533767559       -0.19051811311632
C           -2.59747217597569        1.88110537002864        0.18236623870401
C           -3.73868210818836        1.44649378426285       -0.53530151609708
N            2.22031943079706        2.01371839195342        0.15449147144837
C            3.25192096805680        1.13531858477795       -0.00166329902869
C            4.61120234231390        1.61969747678900       -0.18689507953776
C            5.72161540707662        0.87709116611478        0.21003407283701
C            6.99636910585083        1.37477796234513        0.01676285359811
C            7.18258699952820        2.61826626943013       -0.56467890800210
C            6.08263254967576        3.37143906125777       -0.94210547451922
C            4.80632659728800        2.87886525175843       -0.75297102551818
C            2.77004970295448       -0.16084568557132        0.08395162527461
C            3.43973397158952       -1.45025223104322       -0.01699947118551
C            3.21530604199531       -2.44884259821296        0.92916522154736
C            3.85050335343430       -3.67131199532660        0.81637017009112
C            4.71562394379760       -3.91388602083951       -0.23725796626189
C            4.94741784156714       -2.92443410923175       -1.17948870526462
C            4.31404863314519       -1.70141021081480       -1.07395500025292
C           -0.38678896072713       -1.04832173843514        1.56133924403039
C           -1.31929355451861       -2.05444998999207        1.72094979420664
H           -6.35252795136684       -3.36035994707019       -0.14789446085121
H           -5.47240185638613       -2.49302643609895       -1.40778751459070
H           -6.20366655121249       -1.60150720688736       -0.07625627174449
H           -3.76357443807541       -1.79120004622359        0.27864511392432
H           -4.63963724476339       -2.68556990925896        1.52301090060743
H           -4.32098437299060       -4.78803895235913        0.16326886251967
H           -3.31893254707596       -3.86379018746400       -0.95933458496543
H           -1.98849170133102       -5.15223169056825        0.70995389525757
H           -2.75385919141303       -4.23835251976502        2.01757254410484
H           -0.54453878852464       -3.95355583841922       -0.95247840263906
H            1.10952929975416       -2.16347425558323       -1.26011879939748
H            0.51841660847914        3.11042295708428        2.11741328481962
H           -1.71888786761891        3.95046259324479        2.73721972294509
H           -4.15989521436228        3.88474684937839        2.46541030942207
H           -6.14210003750410        3.09788382291057        1.24307320938818
H           -7.12468801725556        1.78545933625814       -0.58760492314510
H           -6.85551685966252        0.29144901630220       -2.52395177767129
H           -4.61604005261847       -0.46799818381209       -3.20851677742953
H           -2.17226121365483       -0.43521116643467       -2.91090910400026
H           -0.20342250496277        0.32497372643026       -1.68656187347934
H            5.58557269937829       -0.08474048683040        0.68192807613450
H            7.85086824601095        0.79029434311572        0.32693129473107
H            8.18138483203808        3.00146511422480       -0.71558103236711
H            6.22291640258466        4.34661954585810       -1.38607246868828
H            3.93943552433514        3.45545509969077       -1.03654332529819
H            2.55155667778377       -2.26117066519488        1.76114844683790
H            3.67088604039367       -4.43690777821125        1.55705383316754
H            5.21023903861070       -4.87006265305598       -0.32289379074668
H            5.62241234215112       -3.10871959672589       -2.00240777842226
H            4.49021403848515       -0.92864753276473       -1.80803557632763
H           -0.33245733088491       -0.23599905994133        2.27087625721473
H           -1.99638668200554       -2.01951804838546        2.56165491783579

          :  Hamiltonian                  GFN2-xTB          :
         :: gradient norm              0.000052827187 Eh/a0 ::
         :: HOMO-LUMO gap              2.044097106690 eV    ::
         :: SCC energy              -112.082395759571 Eh    ::
         :: -> dispersion             -0.109220990303 Eh    ::
         :: repulsion energy           2.051338891124 Eh    ::

    * Orbital Energies and Occupations

         #    Occupation            Energy/Eh            Energy/eV
      -------------------------------------------------------------
         1        2.0000           -0.6824084             -18.5693
       ...           ...                  ...                  ...
        91        2.0000           -0.4115878             -11.1999
        92        2.0000           -0.4099908             -11.1564
        93        2.0000           -0.4088436             -11.1252
        94        2.0000           -0.4079286             -11.1003
        95        2.0000           -0.4063367             -11.0570
        96        2.0000           -0.4052611             -11.0277
        97        2.0000           -0.3997589             -10.8780
        98        2.0000           -0.3934767             -10.7070
        99        2.0000           -0.3921672             -10.6714
       100        2.0000           -0.3888641             -10.5815
       101        2.0000           -0.3715943             -10.1116
       102        2.0000           -0.3687433             -10.0340
       103        2.0000           -0.3554899              -9.6734 (HOMO)
       104                         -0.2803707              -7.6293 (LUMO)
       105                         -0.2472308              -6.7275
       106                         -0.2437108              -6.6317
       107                         -0.2340116              -6.3678
       108                         -0.2332623              -6.3474
       109                         -0.2240952              -6.0979
       110                         -0.2222629              -6.0481
       111                         -0.2172910              -5.9128
       112                         -0.2096263              -5.7042
       113                         -0.2074133              -5.6440
       114                         -0.1888688              -5.1394
       ...                                ...                  ...
       204                          0.7295644              19.8525
      -------------------------------------------------------------
                  HL-Gap            0.0751192 Eh            2.0441 eV

     #   Z          covCN         q      C6AA      α(0)
     1   6 C        3.753    -0.101    22.495     6.763
     2   6 C        3.800    -0.051    21.489     6.600
     3   6 C        3.804    -0.054    21.548     6.609
     4   6 C        3.808    -0.064    21.717     6.634
     5   6 C        2.969     0.015    27.667     8.628
     6   6 C        2.926    -0.036    28.892     8.815
     7   6 C        2.920    -0.039    28.964     8.825
     8   6 C        2.914     0.062    26.616     8.460
     9   7 N        2.852    -0.037    21.955     6.959
    10   6 C        3.165     0.124    24.961     8.165
    11   6 C        2.973    -0.004    28.112     8.697
    12   6 C        2.922    -0.030    28.746     8.792
    13   6 C        2.919    -0.036    28.907     8.817
    14   6 C        2.982     0.011    27.764     8.643
    15   6 C        2.913    -0.036    28.883     8.813
    16   6 C        2.913    -0.036    28.899     8.815
    17   6 C        2.982     0.012    27.741     8.640
    18   6 C        2.920    -0.037    28.924     8.819
    19   6 C        2.914    -0.029    28.728     8.789
    20   6 C        2.920    -0.034    28.856     8.809
    21   6 C        2.982     0.012    27.732     8.638
    22   6 C        2.914    -0.036    28.901     8.816
    23   6 C        2.913    -0.035    28.864     8.810
    24   6 C        2.983     0.007    27.867     8.659
    25   6 C        2.996     0.003    27.944     8.671
    26   6 C        2.998     0.004    27.934     8.670
    27   7 N        1.910    -0.292    28.409     7.903
    28   6 C        3.172     0.051    26.495     8.408
    29   6 C        2.973     0.011    27.774     8.645
    30   6 C        2.923    -0.037    28.928     8.820
    31   6 C        2.919    -0.031    28.764     8.795
    32   6 C        2.920    -0.033    28.813     8.802
    33   6 C        2.918    -0.030    28.748     8.792
    34   6 C        2.927    -0.030    28.751     8.793
    35   6 C        3.068     0.012    27.672     8.626
    36   6 C        2.972     0.009    27.802     8.649
    37   6 C        2.924    -0.033    28.833     8.806
    38   6 C        2.919    -0.029    28.734     8.790
    39   6 C        2.920    -0.031    28.781     8.797
    40   6 C        2.919    -0.029    28.713     8.787
    41   6 C        2.925    -0.033    28.814     8.803
    42   6 C        2.921    -0.042    29.038     8.837
    43   6 C        2.926    -0.036    28.889     8.814
    44   1 H        0.925     0.034     2.529     2.487
    45   1 H        0.925     0.033     2.538     2.491
    46   1 H        0.925     0.034     2.537     2.491
    47   1 H        0.924     0.028     2.617     2.530
    48   1 H        0.924     0.029     2.594     2.519
    49   1 H        0.924     0.035     2.517     2.481
    50   1 H        0.924     0.033     2.546     2.495
    51   1 H        0.924     0.040     2.451     2.448
    52   1 H        0.924     0.039     2.465     2.455
    53   1 H        0.926     0.038     2.477     2.461
    54   1 H        0.926     0.038     2.477     2.461
    55   1 H        0.926     0.045     2.388     2.416
    56   1 H        0.926     0.035     2.511     2.478
    57   1 H        0.926     0.032     2.555     2.499
    58   1 H        0.926     0.031     2.566     2.505
    59   1 H        0.926     0.030     2.583     2.513
    60   1 H        0.926     0.030     2.585     2.514
    61   1 H        0.926     0.029     2.595     2.519
    62   1 H        0.926     0.030     2.589     2.516
    63   1 H        0.926     0.028     2.610     2.526
    64   1 H        0.926     0.025     2.661     2.551
    65   1 H        0.926     0.025     2.654     2.548
    66   1 H        0.926     0.026     2.643     2.542
    67   1 H        0.926     0.028     2.612     2.527
    68   1 H        0.926     0.049     2.332     2.388
    69   1 H        0.926     0.025     2.664     2.552
    70   1 H        0.926     0.029     2.604     2.523
    71   1 H        0.926     0.030     2.587     2.515
    72   1 H        0.926     0.031     2.566     2.505
    73   1 H        0.926     0.033     2.544     2.494
    74   1 H        0.926     0.037     2.495     2.470
    75   1 H        0.926     0.038     2.479     2.462

molecular dipole:
                 x           y           z       tot (Debye)
 q only:       -1.042      -0.987       0.101
   full:       -1.071      -1.375       0.122       4.441

 projected vibrational frequencies (cm⁻¹)
eigval :       -0.00    -0.00    -0.00    -0.00     0.00     0.00
eigval :       12.87    17.79    22.97    25.42    32.05    38.21
eigval :       43.78    53.18    64.44    73.03    81.68    85.32
eigval :       92.62   101.28   109.39   115.20   135.28   152.98
eigval :      174.75   192.03   206.56   211.32   216.90   225.46
eigval :      232.41   244.80   247.60   258.42   270.01   289.69
eigval :      323.54   342.06   356.29   371.13   375.85   380.57
eigval :      384.96   388.56   392.29   407.99   425.16   459.04
eigval :      464.60   465.39   477.44   480.10   481.43   495.60
eigval :      503.63   514.97   520.76   545.73   569.70   578.68
eigval :      587.03   590.31   607.00   616.46   633.78   643.88
eigval :      653.66   656.28   669.76   672.59   679.69   682.52
eigval :      687.49   693.17   696.25   724.33   743.03   756.63
eigval :      762.65   764.77   775.29   781.66   801.41   809.52
eigval :      819.41   820.91   837.21   843.09   851.50   867.19
eigval :      872.46   878.01   878.51   887.37   901.44   901.89
eigval :      914.24   914.83   915.75   920.45   924.26   926.59
eigval :      928.99   929.61   930.02   931.39   932.16   943.98
eigval :      959.89   969.56   979.88   995.63  1011.24  1025.73
eigval :     1050.78  1074.68  1082.50  1083.88  1085.80  1096.86
eigval :     1108.92  1118.83  1120.11  1121.60  1125.32  1133.10
eigval :     1144.16  1161.21  1170.06  1181.30  1181.98  1182.19
eigval :     1193.63  1195.71  1197.69  1200.20  1201.50  1204.77
eigval :     1215.93  1224.70  1233.43  1240.13  1243.96  1261.28
eigval :     1271.96  1277.01  1283.00  1283.24  1284.61  1305.14
eigval :     1309.46  1315.96  1316.80  1322.55  1324.22  1332.38
eigval :     1339.88  1358.80  1365.05  1369.93  1389.02  1394.50
eigval :     1405.86  1413.68  1417.07  1417.12  1419.68  1431.10
eigval :     1435.66  1450.70  1455.16  1482.61  1484.54  1488.59
eigval :     1489.55  1493.72  1499.39  1501.64  1504.18  1505.54
eigval :     1540.37  1548.95  1559.53  1562.71  1578.41  1579.25
eigval :     1580.54  1582.31  1597.66  1600.17  1604.37  1606.79
eigval :     1607.06  2960.06  2968.49  2969.88  2979.68  2983.95
eigval :     2987.65  3026.64  3038.15  3043.31  3065.33  3067.72
eigval :     3067.90  3070.69  3072.07  3072.54  3074.31  3075.43
eigval :     3075.86  3078.18  3079.92  3081.40  3081.89  3083.69
eigval :     3086.04  3087.46  3091.09  3091.53  3093.60  3094.24
eigval :     3094.44  3095.61  3103.16

   temp. (K)  partition function   enthalpy   heat capacity  entropy
                                   cal/mol     cal/K/mol   cal/K/mol   J/K/mol
 298.15  VIB  0.404E+16            20337.164    128.862    126.214
         ROT  0.465E+08              888.752      2.981     38.067
         INT  0.188E+24            21225.917    131.843    164.281
         TR   0.126E+29             1481.254      4.968     44.794
         TOT                       22707.1707   136.8114   209.0750   874.7696

       T/K    H(0)-H(T)+PV         H(T)/Eh          T*S/Eh         G(T)/Eh
   ------------------------------------------------------------------------
    298.15    0.361862E-01    0.633524E+00    0.993383E-01    0.534185E+00
   ------------------------------------------------------------------------

         :::::::::::::::::::::::::::::::::::::::::::::::::::::
         ::                  THERMODYNAMIC                  ::
         :::::::::::::::::::::::::::::::::::::::::::::::::::::
         :: total free energy        -109.496871597764 Eh   ::
         ::.................................................::
         :: total energy             -110.031056868452 Eh   ::
         :: zero point energy           0.597337349814 Eh   ::
         :: G(RRHO) w/o ZPVE           -0.063152079126 Eh   ::
         :: G(RRHO) contrib.            0.534185270688 Eh   ::
         :::::::::::::::::::::::::::::::::::::::::::::::::::::

           -------------------------------------------------
          | TOTAL ENERGY             -110.031056868452 Eh   |
          | TOTAL ENTHALPY           -109.397533338846 Eh   |
          | TOTAL FREE ENERGY        -109.496871597764 Eh   |
          | GRADIENT NORM               0.000052831838 Eh/α |
          | HOMO-LUMO GAP               2.044097026419 eV   |
           -------------------------------------------------

 * finished run on 2025/08/24 at 05:09:05.664
