   * xtb version 6.7.1 (edcfbbe) compiled by 'albert@albert-system' on 2024-07-22

   ID    Z sym.   atoms
    1    7 N      1, 7, 13, 28
    2    6 C      2-6, 8-12, 14-27, 29-44
    3    1 H      45-68

          program call               : xtb data2507/gas/CBPMCN/CBPMCN.xyz --gfn 2 --ohess vtight --parallel 40 --molden --ceasefiles --namespace data2507/gas/CBPMCN/CBPMCN_gas_S0_preOpt
          :  Hamiltonian                  GFN2-xTB          :
 * total energy  :  -109.6113797 Eh     change       -0.2550394E-08 Eh
 * total energy  :  -109.6247865 Eh     change       -0.1340682E-01 Eh
 * total energy  :  -109.6279524 Eh     change       -0.3165892E-02 Eh
 * total energy  :  -109.6286389 Eh     change       -0.6864744E-03 Eh
 * total energy  :  -109.6290249 Eh     change       -0.3860202E-03 Eh
 * total energy  :  -109.6291883 Eh     change       -0.1633870E-03 Eh
 * total energy  :  -109.6293399 Eh     change       -0.1516430E-03 Eh
 * total energy  :  -109.6294742 Eh     change       -0.1342561E-03 Eh
 * total energy  :  -109.6296084 Eh     change       -0.1342351E-03 Eh
 * total energy  :  -109.6297528 Eh     change       -0.1444137E-03 Eh
 * total energy  :  -109.6319452 Eh     change       -0.1196489E-05 Eh
 * total energy  :  -109.6319461 Eh     change       -0.9849141E-06 Eh
 * total energy  :  -109.6319471 Eh     change       -0.9385934E-06 Eh
 * total energy  :  -109.6319479 Eh     change       -0.8518694E-06 Eh
 * total energy  :  -109.6319486 Eh     change       -0.7015782E-06 Eh
 * total energy  :  -109.6319492 Eh     change       -0.5226483E-06 Eh
 * total energy  :  -109.6319496 Eh     change       -0.4507040E-06 Eh
 * total energy  :  -109.6319501 Eh     change       -0.4481829E-06 Eh
 * total energy  :  -109.6319501 Eh     change       -0.3993918E-08 Eh
   *** GEOMETRY OPTIMIZATION CONVERGED AFTER 68 ITERATIONS ***

 final structure:
================
68
 xtb: 6.7.1 (edcfbbe)
N            0.28658848567593        6.58457896653158       -0.31660608817467
C           -0.14315225557768        5.52362060791215       -0.25944799306736
C           -0.67096660880895        4.21371150232266       -0.18944667434094
C           -0.30352383233594        3.37069813325379        0.86039692525395
C           -0.81413654725292        2.09103623255492        0.92389412461416
C           -1.69332277303304        1.64198782194266       -0.05945720144644
N           -2.15732652631698        0.31947050131992       -0.01800026411947
C           -1.33792984211513       -0.79407401565124       -0.04338100865843
C            0.11350601827918       -0.72824113624042       -0.09875701541825
C            0.78801692297177        0.19117760913919       -0.90098474536205
C            2.16617388952870        0.23931942626500       -0.90133759558958
C            2.90148401930904       -0.62619199242997       -0.09386579094833
N            4.29540108310953       -0.53806434416546       -0.06190444524105
C            5.18442373777839       -1.59049422788390       -0.17908934327332
C            4.93775199455181       -2.93475441297939       -0.41725869396259
C            6.02516517312888       -3.78137660296331       -0.52039140868567
C            7.32994220384624       -3.30868303228714       -0.40071946587606
C            7.58218884791439       -1.96763422218401       -0.19149162334090
C            6.50559889346269       -1.09734564597896       -0.08425892979976
C            6.40048786406604        0.32277684124768        0.10528448783981
C            7.33598418855712        1.33389673371078        0.27999669006347
C            6.88681995399008        2.62621956145894        0.46470417492574
C            5.52417330132595        2.91319336118666        0.49373622918108
C            4.57479317344708        1.92357830055179        0.32293905969443
C            5.02040295302047        0.62711332601491        0.10921156725163
C            2.23170255765971       -1.57317350411416        0.67943388430544
C            0.85423678635322       -1.62817405003698        0.66712210851652
N           -2.02043721948789       -1.90674439039868       -0.02168981654495
C           -3.33134661374081       -1.54498338533423        0.01301857494461
C           -4.47067681567988       -2.39669064162276        0.00294458265505
C           -4.33493555281477       -3.78746282934419       -0.05918450663184
C           -5.44721852798040       -4.58985803955909       -0.10681758273341
C           -6.71281666333833       -4.00654608652824       -0.09723984440265
C           -6.85759396399986       -2.64062602516157       -0.02964505045440
C           -5.74553147901612       -1.78667559425264        0.03111434734776
C           -5.86422199021392       -0.34333663177301        0.14380074275228
C           -7.11214238541289        0.28404307617895        0.26707258898250
C           -7.23311146340302        1.64399401730683        0.42686132501059
C           -6.09631983094656        2.44326318524727        0.49165356652683
C           -4.85540113349747        1.86977972842751        0.36511409532060
C           -4.71114115213716        0.48905998488565        0.16707693981624
C           -3.45069080792398       -0.15723493971068        0.02839264487998
C           -2.06163143576329        2.48448747721416       -1.10833609459917
C           -1.55642587135566        3.76589049016165       -1.17217910293795
H            0.37754273827506        3.72613538470513        1.61899041124697
H           -0.53632069280400        1.42949407647895        1.73050966299053
H            0.23780917024901        0.85288910406977       -1.55328806301276
H            2.68354969598517        0.93787612811441       -1.54140456142604
H            3.93199146232009       -3.30932065317910       -0.53284855364806
H            5.85893273192259       -4.83292469993081       -0.70198315822962
H            8.15258357194526       -4.00311544326850       -0.48405071867848
H            8.59345016950035       -1.59732104429444       -0.11698859563779
H            8.39155880564372        1.10804581736617        0.27511714834491
H            7.59749732181011        3.42792841998700        0.59870208349583
H            5.20143330536114        3.93101581125094        0.65587530335016
H            3.52091298702612        2.15555188564343        0.36602058303989
H            2.79768426682061       -2.24589162866428        1.30563280765372
H            0.32728032555226       -2.35533523491397        1.26482847176803
H           -3.33686017889372       -4.19674327164908       -0.07625930865300
H           -5.34812794873382       -5.66399339853808       -0.15720477615414
H           -7.59123587508926       -4.63388774733689       -0.14325096234248
H           -7.85681096537803       -2.23510948711842       -0.02836224893795
H           -8.01299096968629       -0.30748135253658        0.24920683630117
H           -8.21183083655733        2.09095083495385        0.51885007749896
H           -6.18768686582524        3.50806389068872        0.64643245533669
H           -3.97698989941403        2.49132197791925        0.44112462888187
H           -2.74136711507101        2.12358459446920       -1.86616626872696
H           -1.83484896072809        4.42373390154852       -1.98175962870384

          :  Hamiltonian                  GFN2-xTB          :
         :: gradient norm              0.000066641742 Eh/a0 ::
         :: HOMO-LUMO gap              1.972895369916 eV    ::
         :: SCC energy              -111.722194467349 Eh    ::
         :: -> dispersion             -0.099010418145 Eh    ::
         :: repulsion energy           2.090244403764 Eh    ::

    * Orbital Energies and Occupations

         #    Occupation            Energy/Eh            Energy/eV
      -------------------------------------------------------------
         1        2.0000           -0.6983785             -19.0038
       ...           ...                  ...                  ...
        90        2.0000           -0.4241871             -11.5427
        91        2.0000           -0.4214695             -11.4688
        92        2.0000           -0.4206187             -11.4456
        93        2.0000           -0.4189109             -11.3991
        94        2.0000           -0.4153623             -11.3026
        95        2.0000           -0.4141489             -11.2696
        96        2.0000           -0.4070701             -11.0769
        97        2.0000           -0.4046386             -11.0108
        98        2.0000           -0.3877782             -10.5520
        99        2.0000           -0.3858070             -10.4983
       100        2.0000           -0.3804982             -10.3539
       101        2.0000           -0.3741844             -10.1821
       102        2.0000           -0.3638920              -9.9020 (HOMO)
       103                         -0.2913894              -7.9291 (LUMO)
       104                         -0.2667666              -7.2591
       105                         -0.2632416              -7.1632
       106                         -0.2542545              -6.9186
       107                         -0.2499130              -6.8005
       108                         -0.2449797              -6.6662
       109                         -0.2411171              -6.5611
       110                         -0.2237404              -6.0883
       111                         -0.2182078              -5.9377
       112                         -0.2174831              -5.9180
       113                         -0.2002946              -5.4503
       ...                                ...                  ...
       200                          1.1610033              31.5925
      -------------------------------------------------------------
                  HL-Gap            0.0725026 Eh            1.9729 eV

     #   Z          covCN         q      C6AA      α(0)
     1   7 N        0.911    -0.224    25.891     7.359
     2   6 C        1.912     0.112    28.327     8.595
     3   6 C        2.973     0.019    27.570     8.613
     4   6 C        2.926    -0.018    28.455     8.748
     5   6 C        2.921    -0.036    28.899     8.816
     6   6 C        2.912     0.077    26.282     8.407
     7   7 N        2.841    -0.047    22.138     6.988
     8   6 C        3.190     0.128    24.747     8.114
     9   6 C        2.974    -0.002    28.079     8.692
    10   6 C        2.922    -0.033    28.833     8.806
    11   6 C        2.922    -0.043    29.079     8.843
    12   6 C        2.913     0.067    26.505     8.442
    13   7 N        2.802    -0.043    22.061     6.976
    14   6 C        3.072     0.046    26.886     8.502
    15   6 C        2.910    -0.051    29.260     8.870
    16   6 C        2.924    -0.033    28.818     8.803
    17   6 C        2.920    -0.040    28.994     8.830
    18   6 C        2.913    -0.032    28.808     8.801
    19   6 C        3.068    -0.016    28.342     8.729
    20   6 C        3.067    -0.016    28.338     8.729
    21   6 C        2.913    -0.032    28.805     8.801
    22   6 C        2.920    -0.040    28.991     8.830
    23   6 C        2.924    -0.033    28.822     8.804
    24   6 C        2.910    -0.051    29.254     8.869
    25   6 C        3.073     0.046    26.895     8.503
    26   6 C        2.920    -0.042    29.043     8.838
    27   6 C        2.927    -0.027    28.673     8.781
    28   7 N        1.893    -0.284    28.227     7.876
    29   6 C        3.209     0.058    26.102     8.318
    30   6 C        2.986     0.003    27.946     8.672
    31   6 C        2.922    -0.031    28.763     8.795
    32   6 C        2.917    -0.029    28.730     8.790
    33   6 C        2.917    -0.032    28.789     8.799
    34   6 C        2.922    -0.034    28.853     8.809
    35   6 C        2.979    -0.001    28.040     8.686
    36   6 C        2.980     0.003    27.955     8.673
    37   6 C        2.922    -0.033    28.819     8.804
    38   6 C        2.917    -0.032    28.800     8.800
    39   6 C        2.917    -0.031    28.774     8.796
    40   6 C        2.919    -0.040    28.991     8.830
    41   6 C        2.978    -0.002    28.076     8.692
    42   6 C        3.069     0.020    27.500     8.599
    43   6 C        2.920    -0.034    28.857     8.809
    44   6 C        2.926    -0.019    28.484     8.752
    45   1 H        0.926     0.051     2.312     2.378
    46   1 H        0.926     0.047     2.355     2.400
    47   1 H        0.926     0.029     2.603     2.523
    48   1 H        0.926     0.044     2.395     2.420
    49   1 H        0.926     0.029     2.594     2.519
    50   1 H        0.926     0.031     2.575     2.509
    51   1 H        0.926     0.029     2.594     2.519
    52   1 H        0.926     0.032     2.556     2.500
    53   1 H        0.926     0.033     2.550     2.497
    54   1 H        0.926     0.030     2.583     2.513
    55   1 H        0.926     0.031     2.570     2.507
    56   1 H        0.926     0.023     2.690     2.565
    57   1 H        0.926     0.048     2.341     2.393
    58   1 H        0.926     0.056     2.248     2.345
    59   1 H        0.926     0.052     2.301     2.372
    60   1 H        0.926     0.032     2.555     2.499
    61   1 H        0.926     0.030     2.583     2.513
    62   1 H        0.926     0.032     2.555     2.500
    63   1 H        0.926     0.036     2.497     2.471
    64   1 H        0.926     0.031     2.568     2.506
    65   1 H        0.926     0.029     2.600     2.521
    66   1 H        0.926     0.022     2.706     2.573
    67   1 H        0.926     0.052     2.298     2.371
    68   1 H        0.926     0.051     2.303     2.373

molecular dipole:
                 x           y           z       tot (Debye)
 q only:       -0.368      -0.515       0.089
   full:       -0.747      -0.503       0.099       2.304

 projected vibrational frequencies (cm⁻¹)
eigval :       -0.00    -0.00    -0.00     0.00     0.00     0.00
eigval :        8.71    14.06    18.74    25.84    31.87    45.24
eigval :       57.85    59.95    72.62    83.99    96.90   104.40
eigval :      109.71   121.60   124.04   131.88   148.89   173.31
eigval :      177.82   203.64   213.34   220.50   246.25   260.85
eigval :      264.81   272.18   277.86   300.99   342.80   368.33
eigval :      372.49   379.17   385.63   393.64   398.52   407.08
eigval :      415.28   424.15   425.53   434.93   438.65   463.77
eigval :      466.93   499.37   515.18   518.26   523.89   532.43
eigval :      535.02   535.15   541.24   547.77   574.85   582.62
eigval :      585.92   596.68   607.80   616.29   641.12   644.01
eigval :      653.28   670.79   673.37   675.54   682.37   690.53
eigval :      697.71   707.04   711.18   735.05   740.04   757.53
eigval :      765.95   770.25   778.78   781.57   782.99   808.22
eigval :      822.95   826.55   862.53   866.79   869.40   874.84
eigval :      875.59   880.88   897.98   903.34   903.76   907.78
eigval :      914.80   916.35   920.17   921.81   924.05   926.11
eigval :      927.90   928.06   928.55   935.28   939.38   973.57
eigval :     1006.57  1012.11  1016.15  1031.68  1068.30  1071.12
eigval :     1074.89  1085.70  1108.39  1117.62  1128.07  1132.01
eigval :     1135.23  1151.59  1153.35  1171.52  1176.97  1180.73
eigval :     1181.22  1182.86  1183.25  1185.70  1203.29  1205.41
eigval :     1230.95  1236.35  1245.09  1254.12  1257.82  1260.40
eigval :     1265.12  1283.54  1297.35  1301.24  1303.80  1310.50
eigval :     1318.13  1324.52  1339.35  1345.99  1357.25  1361.42
eigval :     1369.41  1376.03  1400.59  1407.25  1408.56  1419.66
eigval :     1427.94  1429.23  1430.43  1436.49  1475.51  1477.36
eigval :     1487.14  1487.65  1514.19  1518.25  1546.42  1551.90
eigval :     1557.77  1565.63  1571.36  1575.86  1585.25  1589.18
eigval :     1594.47  1595.32  1599.25  1605.15  1614.57  2376.25
eigval :     3074.58  3075.73  3078.06  3078.53  3081.41  3083.56
eigval :     3084.77  3085.90  3088.36  3088.43  3089.51  3091.04
eigval :     3091.83  3094.59  3096.73  3098.03  3098.28  3098.90
eigval :     3100.54  3102.13  3105.87  3107.85  3108.08  3112.71

   temp. (K)  partition function   enthalpy   heat capacity  entropy
                                   cal/mol     cal/K/mol   cal/K/mol   J/K/mol
 298.15  VIB  0.535E+15            19281.221    124.353    119.118
         ROT  0.673E+08              888.752      2.981     38.800
         INT  0.360E+23            20169.974    127.334    157.918
         TR   0.128E+29             1481.254      4.968     44.836
         TOT                       21651.2277   132.3024   202.7540   848.3229

       T/K    H(0)-H(T)+PV         H(T)/Eh          T*S/Eh         G(T)/Eh
   ------------------------------------------------------------------------
    298.15    0.345034E-01    0.546588E+00    0.963350E-01    0.450253E+00
   ------------------------------------------------------------------------

         :::::::::::::::::::::::::::::::::::::::::::::::::::::
         ::                  THERMODYNAMIC                  ::
         :::::::::::::::::::::::::::::::::::::::::::::::::::::
         :: total free energy        -109.181697073495 Eh   ::
         ::.................................................::
         :: total energy             -109.631950063585 Eh   ::
         :: zero point energy           0.512084543691 Eh   ::
         :: G(RRHO) w/o ZPVE           -0.061831553601 Eh   ::
         :: G(RRHO) contrib.            0.450252990090 Eh   ::
         :::::::::::::::::::::::::::::::::::::::::::::::::::::

           -------------------------------------------------
          | TOTAL ENERGY             -109.631950063585 Eh   |
          | TOTAL ENTHALPY           -109.085362092255 Eh   |
          | TOTAL FREE ENERGY        -109.181697073495 Eh   |
          | GRADIENT NORM               0.000066673605 Eh/α |
          | HOMO-LUMO GAP               1.972896286057 eV   |
           -------------------------------------------------

 * finished run on 2025/09/09 at 04:32:59.718
