   * xtb version 6.7.1 (edcfbbe) compiled by 'albert@albert-system' on 2024-07-22

   ID    Z sym.   atoms
    1    7 N      1, 7, 13, 28
    2    6 C      2-6, 8-12, 14-27, 29-44
    3    1 H      45-68

          program call               : xtb data2507/gas/CBPMCN/CBPMCN_gas_T1_crest.xyz --gfn 2 --spinpol --tblite --uhf 2 --ohess vtight --parallel 40 --molden --ceasefiles --namespace data2507/gas/CBPMCN/CBPMCN_gas_T1_finalOpt
 * total energy  :  -109.5507409 Eh     change        0.1789566E-07 Eh
 * total energy  :  -109.5507478 Eh     change       -0.6940863E-05 Eh
 * total energy  :  -109.5507480 Eh     change       -0.2232495E-06 Eh
 * total energy  :  -109.5507515 Eh     change       -0.3478440E-05 Eh
 * total energy  :  -109.5507522 Eh     change       -0.7453823E-06 Eh
 * total energy  :  -109.5507517 Eh     change        0.5127259E-06 Eh
 * total energy  :  -109.5507529 Eh     change       -0.1177127E-05 Eh
 * total energy  :  -109.5507537 Eh     change       -0.7731997E-06 Eh
 * total energy  :  -109.5507545 Eh     change       -0.8287257E-06 Eh
 * total energy  :  -109.5507554 Eh     change       -0.8886856E-06 Eh
 * total energy  :  -109.5507561 Eh     change       -0.6705206E-06 Eh
 * total energy  :  -109.5507569 Eh     change       -0.8164042E-06 Eh
 * total energy  :  -109.5507571 Eh     change       -0.2154611E-06 Eh
 * total energy  :  -109.5507574 Eh     change       -0.2890941E-06 Eh
 * total energy  :  -109.5507574 Eh     change       -0.4797975E-07 Eh
   *** GEOMETRY OPTIMIZATION CONVERGED AFTER 15 ITERATIONS ***

 final structure:
================
68
 xtb: 6.7.1 (edcfbbe)
N           -0.36227238561822        6.86731539025332       -0.61888229375191
C           -0.67505462080007        5.76583313264558       -0.51307506035435
C           -1.05425260765914        4.41903254629707       -0.38439790600580
C           -0.59152580555834        3.65557800094260        0.69750068636951
C           -0.95392326728383        2.33656044405512        0.81756517778020
C           -1.80028470521259        1.74603689711277       -0.13399416202466
N           -2.13799367258703        0.40212433500454       -0.01616637262649
C           -1.20861835530490       -0.65042301278606        0.17153780795696
C            0.18809547923610       -0.58713445366270        0.08162341779654
C            0.93284576701664        0.47509501543324       -0.50702935393326
C            2.29809782731966        0.44818540528601       -0.52526446459670
C            3.01154294214308       -0.63447803032291        0.01887107481033
N            4.39917923637626       -0.63340353763164        0.02034994021504
C            5.21610151235778       -1.68961546028046       -0.34130464930078
C            4.87782056326305       -2.93562702374053       -0.85167435855402
C            5.90563897281465       -3.80490601671803       -1.16732126020784
C            7.24014763729165       -3.44618173602571       -0.99567732758279
C            7.58435294366013       -2.19329826603173       -0.52243496631018
C            6.57023257286540       -1.30506292394114       -0.19846570808768
C            6.56201351628375        0.05297614234401        0.27505461467110
C            7.56434007201889        0.94879093407792        0.61483852674975
C            7.20340768600643        2.20167433111776        1.07547662479093
C            5.86376653978023        2.55417210602840        1.21770298575810
C            4.84774125127636        1.67670672585388        0.88708191905325
C            5.20346099102841        0.42941492920461        0.39212041833737
C            2.28927029093547       -1.72584692552719        0.54460074852440
C            0.92779788171545       -1.70598181112176        0.56978541415096
N           -1.85321782170060       -1.82284067585169        0.35537371752833
C           -3.14177687048346       -1.57587640829856        0.21588330468498
C           -4.21235945265545       -2.51784546448574        0.23309527656035
C           -3.95544483734281       -3.88497998438766        0.35378061946960
C           -4.99025805192884       -4.79398099679361        0.31330615785047
C           -6.28882820377934       -4.33430273612300        0.13868177961758
C           -6.55277369495207       -2.98246215995159        0.02763937851234
C           -5.53002764695300       -2.02951177814805        0.08493104329293
C           -5.77779421257245       -0.59510116412006        0.02975005272155
C           -7.07402747429535       -0.08315890993815        0.02798059327380
C           -7.33244824516352        1.27393459304400        0.03586054783786
C           -6.27622774920780        2.18160623299851        0.07745529620464
C           -4.98468405074171        1.72554628195652        0.06940375187267
C           -4.69094682942843        0.34282780937550        0.01717703455661
C           -3.38581051177055       -0.17707771212856        0.00897637853146
C           -2.26431506516043        2.51028719073449       -1.21508923820931
C           -1.89478008633196        3.82701553842329       -1.34060654010755
H            0.04672804769678        4.11685801062305        1.43650447529285
H           -0.60344990312523        1.74384637804312        1.64930742275376
H            0.42064599260078        1.27905786315317       -1.00848548189905
H            2.84526235817580        1.24220802674071       -1.01177324501996
H            3.84884283794633       -3.21514655953933       -1.01604949401003
H            5.66731153286411       -4.78120311018541       -1.56193342386811
H            8.01448129254666       -4.15390082041251       -1.25066833375593
H            8.61908711139868       -1.90650030457824       -0.41295593314452
H            8.60274055891435        0.66822043045023        0.52588927914809
H            7.96831153801697        2.91538876859166        1.34176123209571
H            5.61202803669582        3.53217805534875        1.59927853751852
H            3.81368764053785        1.95238139805370        1.02484017217423
H            2.83106853009189       -2.55543381607825        0.97313745710312
H            0.36625353141631       -2.52220917586100        0.99387903030715
H           -2.92955620189195       -4.19790178477963        0.46912795804892
H           -4.79536783557262       -5.85159660331437        0.40707682996448
H           -7.10628634788319       -5.03896929660047        0.08990715517180
H           -7.57752035777785       -2.67714122432838       -0.11117804554985
H           -7.91652883619729       -0.75581732379119        0.03589310683922
H           -8.35198936055398        1.62825375036356        0.03101357112887
H           -6.47424843018375        3.24209368945112        0.12230298736849
H           -4.17560382434134        2.43382925606841        0.13274309135056
H           -2.89924438772533        2.04587218997439       -1.95555677690562
H           -2.23849963944696        4.41355589083420       -2.17964370043859

 projected vibrational frequencies (cm⁻¹)
eigval :       -0.00    -0.00    -0.00     0.00     0.00     0.00
eigval :       11.83    13.79    17.95    26.31    33.79    44.83
eigval :       60.23    62.16    69.33    86.61   103.16   106.01
eigval :      113.82   121.19   130.47   136.39   156.47   176.39
eigval :      181.64   198.71   203.06   220.85   252.08   256.95
eigval :      265.20   272.10   275.58   296.01   320.68   361.16
eigval :      375.59   378.18   379.83   394.54   395.75   400.83
eigval :      402.04   414.83   420.01   423.69   437.58   439.06
eigval :      454.21   474.30   491.15   511.67   515.85   524.85
eigval :      529.36   536.02   537.37   541.75   568.93   576.83
eigval :      582.30   588.41   591.10   611.17   616.44   634.25
eigval :      642.13   656.14   664.08   665.93   668.45   673.88
eigval :      675.88   699.16   709.66   726.91   730.04   753.13
eigval :      755.96   769.56   773.45   775.26   779.09   796.63
eigval :      805.63   812.32   833.29   847.07   859.58   865.96
eigval :      871.78   872.87   895.07   895.47   902.07   902.86
eigval :      908.61   910.84   912.28   913.91   916.19   917.24
eigval :      918.82   922.32   925.07   926.09   928.72   943.28
eigval :      984.65   992.70  1003.14  1010.82  1045.31  1070.10
eigval :     1073.37  1080.85  1090.12  1103.86  1112.87  1129.80
eigval :     1132.93  1135.93  1147.50  1153.98  1168.62  1175.78
eigval :     1178.70  1179.03  1179.74  1181.58  1192.42  1203.60
eigval :     1213.26  1230.44  1235.50  1240.00  1247.31  1249.37
eigval :     1255.13  1259.94  1283.17  1285.34  1293.45  1307.55
eigval :     1317.67  1323.25  1330.12  1334.02  1348.53  1348.91
eigval :     1355.68  1362.13  1388.26  1395.56  1402.79  1412.58
eigval :     1416.75  1417.31  1423.61  1428.29  1444.84  1455.16
eigval :     1460.17  1469.82  1472.94  1478.76  1483.29  1484.57
eigval :     1508.98  1540.82  1552.23  1556.81  1560.39  1569.33
eigval :     1576.53  1579.96  1582.85  1590.47  1601.49  2334.69
eigval :     3077.07  3081.61  3081.95  3082.53  3083.37  3083.98
eigval :     3084.49  3087.87  3088.89  3089.51  3089.88  3091.76
eigval :     3094.65  3095.45  3095.56  3097.22  3100.10  3101.18
eigval :     3102.04  3107.44  3111.29  3117.67  3120.68  3126.07

   temp. (K)  partition function   enthalpy   heat capacity  entropy
                                   cal/mol     cal/K/mol   cal/K/mol   J/K/mol
 298.15  VIB  0.397E+15            19487.690    126.191    119.666
         ROT  0.704E+08              888.752      2.981     38.891
         INT  0.280E+23            20376.442    129.172    158.557
         TR   0.128E+29             1481.254      4.968     44.836
         TOT                       21857.6961   134.1399   203.3930   850.9961

       T/K    H(0)-H(T)+PV         H(T)/Eh          T*S/Eh         G(T)/Eh
   ------------------------------------------------------------------------
    298.15    0.348325E-01    0.543035E+00    0.966386E-01    0.446396E+00
   ------------------------------------------------------------------------

         :::::::::::::::::::::::::::::::::::::::::::::::::::::
         ::                  THERMODYNAMIC                  ::
         :::::::::::::::::::::::::::::::::::::::::::::::::::::
         :: total free energy        -109.104361244716 Eh   ::
         ::.................................................::
         :: total energy             -109.550757470421 Eh   ::
         :: zero point energy           0.508202327074 Eh   ::
         :: G(RRHO) w/o ZPVE           -0.061806101369 Eh   ::
         :: G(RRHO) contrib.            0.446396225705 Eh   ::
         :::::::::::::::::::::::::::::::::::::::::::::::::::::

           -------------------------------------------------
          | TOTAL ENERGY             -109.550757470421 Eh   |
          | TOTAL ENTHALPY           -109.007722687462 Eh   |
          | TOTAL FREE ENERGY        -109.104361244716 Eh   |
          | GRADIENT NORM               0.000078563350 Eh/α |
           -------------------------------------------------

 * finished run on 2025/09/09 at 04:40:04.175
