   * xtb version 6.7.1 (edcfbbe) compiled by 'albert@albert-system' on 2024-07-22

   ID    Z sym.   atoms
    1    7 N      1, 7, 13, 28
    2    6 C      2-6, 8-12, 14-27, 29-44
    3    1 H      45-68

          program call               : xtb data2507/gas/CBPMCN/CBPMCN_gas_S0_finalOpt.xtbopt.xyz --gfn 2 --spinpol --tblite --uhf 2 --ohess vtight --parallel 40 --molden --ceasefiles --namespace data2507/gas/CBPMCN/CBPMCN_gas_T1_preOpt
 * total energy  :  -109.5399845 Eh     change       -0.1262484E-07 Eh
 * total energy  :  -109.5454717 Eh     change       -0.5487129E-02 Eh
 * total energy  :  -109.5480343 Eh     change       -0.2562645E-02 Eh
 * total energy  :  -109.5486738 Eh     change       -0.6395174E-03 Eh
 * total energy  :  -109.5492985 Eh     change       -0.6246703E-03 Eh
 * total energy  :  -109.5495958 Eh     change       -0.2973084E-03 Eh
 * total energy  :  -109.5497796 Eh     change       -0.1837530E-03 Eh
 * total energy  :  -109.5499007 Eh     change       -0.1211249E-03 Eh
 * total energy  :  -109.5500152 Eh     change       -0.1145530E-03 Eh
 * total energy  :  -109.5500804 Eh     change       -0.6516699E-04 Eh
 * total energy  :  -109.5506984 Eh     change       -0.3876977E-05 Eh
 * total energy  :  -109.5507017 Eh     change       -0.3260257E-05 Eh
 * total energy  :  -109.5507045 Eh     change       -0.2808560E-05 Eh
 * total energy  :  -109.5507073 Eh     change       -0.2747986E-05 Eh
 * total energy  :  -109.5507098 Eh     change       -0.2571301E-05 Eh
 * total energy  :  -109.5507124 Eh     change       -0.2549001E-05 Eh
 * total energy  :  -109.5507151 Eh     change       -0.2687157E-05 Eh
 * total energy  :  -109.5507174 Eh     change       -0.2369954E-05 Eh
 * total energy  :  -109.5507175 Eh     change       -0.2340741E-07 Eh
   *** GEOMETRY OPTIMIZATION CONVERGED AFTER 68 ITERATIONS ***

 final structure:
================
68
 xtb: 6.7.1 (edcfbbe)
N           -0.02342459165950        6.82147064600122       -0.65165068518880
C           -0.39540451232809        5.73886157535826       -0.54215223407524
C           -0.84632827164048        4.41504189267211       -0.40786559296212
C           -0.40622364333827        3.62522960150245        0.66449999909484
C           -0.83699620033122        2.32758251610981        0.78935838566312
C           -1.73087422454184        1.78517834054948       -0.14776137175435
N           -2.13050241753212        0.45892928254511       -0.02858042560854
C           -1.24550275499942       -0.63085956070359        0.16057873120712
C            0.15248673620141       -0.61712870700726        0.06325050718689
C            0.92229698280172        0.40172829887541       -0.56786992313041
C            2.28626913466444        0.34151768298841       -0.58274654264501
C            2.97319756599600       -0.73137154027909        0.01285708388076
N            4.36030077766850       -0.75356855232587        0.02875309014974
C            5.16556606033424       -1.83883360181443       -0.26790839978832
C            4.81549359198565       -3.10658710503301       -0.71265092338846
C            5.83424453892258       -4.00578952892051       -0.96838898428263
C            7.17186726691494       -3.65611477058626       -0.80276264710279
C            7.52859911154638       -2.38320920864003       -0.39716650600759
C            6.52368201612190       -1.46508713914634       -0.13364051143993
C            6.53059765270622       -0.08298123071658        0.26397611969450
C            7.54300370560980        0.81704648536313        0.56005119349621
C            7.19646928361440        2.09836504380856        0.94764119571864
C            5.86087281807089        2.47523084877311        1.06252667889277
C            4.83511218173014        1.59403330807609        0.77463706105582
C            5.17659151376414        0.31714614387509        0.34981870745569
C            2.22424446875066       -1.78539642833633        0.57635212711966
C            0.86299417852563       -1.73549435550323        0.59171343387189
N           -1.93586638268720       -1.77407928653512        0.35570236300524
C           -3.21419500744852       -1.47420444949672        0.22075892627866
C           -4.32312277622718       -2.37054116740817        0.24091719855605
C           -4.12362134445320       -3.74799440438105        0.35325998820575
C           -5.19580359413061       -4.61252163519733        0.30949148052166
C           -6.47427588551133       -4.09803425061390        0.13966517849564
C           -6.68163771491750       -2.73555254116380        0.03800017180075
C           -5.61984623840475       -1.82685146653396        0.09992179327468
C           -5.80790963704803       -0.38298342237425        0.05499364216189
C           -7.08119951634021        0.18296728342679        0.07629471840503
C           -7.28170170538693        1.54985782060894        0.09227910194558
C           -6.18751661584789        2.41192317785547        0.11759791048586
C           -4.91658728137310        1.90177670073785        0.08829497240565
C           -4.68276723496884        0.50800025784212        0.03027102759629
C           -3.40104466972810       -0.06690191496257        0.00933393025439
C           -2.17320856644871        2.57631170492288       -1.21866717590482
C           -1.73579039302634        3.87157381144610       -1.34870436361906
H            0.26928013713464        4.04962378381398        1.39245704616325
H           -0.50515427530612        1.71583108761396        1.61490296021362
H            0.42849311251471        1.19392935426569       -1.10560634148189
H            2.85259227019845        1.09946731314937       -1.10350657633072
H            3.78477174353552       -3.38159452560464       -0.87330055844958
H            5.58615329632992       -4.99934608726835       -1.31039132880500
H            7.93875241276419       -4.38736999499968       -1.00919019817268
H            8.56601514046882       -2.10416478851425       -0.29320844022165
H            8.57798406857761        0.51828512641381        0.49339967545098
H            7.96930843947591        2.81604506669651        1.17784864718864
H            5.61983910175378        3.47593499337923        1.38799699555001
H            3.80437942728881        1.89069348179425        0.89199092148902
H            2.74482073974974       -2.60848915162342        1.04190343136752
H            0.28136958899833       -2.52248480729874        1.04331610540197
H           -3.11148054904877       -4.10447693766114        0.46360530682999
H           -5.04517065685427       -5.67794919496167        0.39609853357564
H           -7.32043936441607       -4.76766225901485        0.08695123895352
H           -7.69259708747501       -2.38637224338037       -0.09876698809008
H           -7.95097759809126       -0.45376112819965        0.09779167342460
H           -8.28524704696377        1.94701458933524        0.10618046760523
H           -6.33976524458299        3.47972543101795        0.16745300084306
H           -4.07726517979806        2.57498535328385        0.14055736695290
H           -2.84440620621302        2.14838187848155       -1.94909022286376
H           -2.06283777736090        4.47787715849956       -2.18033665276296

 projected vibrational frequencies (cm⁻¹)
eigval :       -0.00    -0.00    -0.00    -0.00    -0.00    -0.00
eigval :       11.67    14.36    18.34    26.63    33.96    45.02
eigval :       60.89    62.57    70.90    86.99   103.86   106.11
eigval :      113.66   121.18   130.37   137.01   157.68   177.63
eigval :      181.42   199.99   203.28   221.16   252.44   256.26
eigval :      265.69   272.38   276.09   296.60   320.66   360.90
eigval :      375.16   378.38   380.20   395.10   395.75   400.29
eigval :      402.76   415.37   420.13   423.62   437.93   439.31
eigval :      454.72   475.33   491.17   511.59   515.82   524.93
eigval :      529.32   536.09   537.38   542.07   568.73   577.19
eigval :      582.27   588.73   590.91   611.14   616.60   634.20
eigval :      642.03   656.26   663.88   666.06   668.63   673.92
eigval :      675.98   699.19   709.67   726.90   729.86   753.38
eigval :      755.97   769.69   773.73   775.21   779.25   797.09
eigval :      807.33   812.57   834.38   847.34   860.06   866.37
eigval :      872.29   873.01   895.11   895.71   902.33   902.92
eigval :      908.95   910.97   912.45   914.03   916.74   917.40
eigval :      918.90   922.52   925.95   926.84   929.47   943.04
eigval :      984.68   992.69  1003.28  1010.81  1045.45  1070.50
eigval :     1073.72  1081.19  1090.40  1103.92  1113.08  1130.14
eigval :     1132.80  1136.26  1147.89  1154.03  1168.43  1175.78
eigval :     1178.60  1179.10  1179.70  1181.56  1192.38  1203.55
eigval :     1214.38  1230.44  1235.78  1240.04  1247.13  1249.43
eigval :     1255.05  1260.24  1282.96  1285.31  1293.23  1307.20
eigval :     1317.84  1323.15  1329.83  1333.65  1348.44  1348.82
eigval :     1355.60  1362.20  1388.23  1395.98  1402.70  1412.19
eigval :     1416.56  1417.64  1423.10  1428.35  1444.67  1454.59
eigval :     1460.03  1470.14  1472.78  1478.09  1483.07  1483.99
eigval :     1508.91  1540.57  1551.80  1556.65  1559.67  1569.32
eigval :     1576.26  1579.59  1582.68  1590.37  1601.36  2333.75
eigval :     3076.78  3081.49  3081.83  3082.47  3083.47  3083.93
eigval :     3084.91  3087.95  3089.15  3089.36  3090.31  3091.57
eigval :     3094.52  3095.29  3095.46  3097.22  3099.46  3101.23
eigval :     3102.25  3107.25  3110.70  3116.57  3117.73  3125.27

   temp. (K)  partition function   enthalpy   heat capacity  entropy
                                   cal/mol     cal/K/mol   cal/K/mol   J/K/mol
 298.15  VIB  0.348E+15            19471.331    126.199    119.481
         ROT  0.699E+08              888.752      2.981     38.876
         INT  0.243E+23            20360.083    129.180    158.357
         TR   0.128E+29             1481.254      4.968     44.836
         TOT                       21841.3371   134.1485   203.1932   850.1602

       T/K    H(0)-H(T)+PV         H(T)/Eh          T*S/Eh         G(T)/Eh
   ------------------------------------------------------------------------
    298.15    0.348064E-01    0.543045E+00    0.965436E-01    0.446502E+00
   ------------------------------------------------------------------------

         :::::::::::::::::::::::::::::::::::::::::::::::::::::
         ::                  THERMODYNAMIC                  ::
         :::::::::::::::::::::::::::::::::::::::::::::::::::::
         :: total free energy        -109.104215779653 Eh   ::
         ::.................................................::
         :: total energy             -109.550717460021 Eh   ::
         :: zero point energy           0.508238922985 Eh   ::
         :: G(RRHO) w/o ZPVE           -0.061737242618 Eh   ::
         :: G(RRHO) contrib.            0.446501680367 Eh   ::
         :::::::::::::::::::::::::::::::::::::::::::::::::::::

           -------------------------------------------------
          | TOTAL ENERGY             -109.550717460021 Eh   |
          | TOTAL ENTHALPY           -109.007672150836 Eh   |
          | TOTAL FREE ENERGY        -109.104215779653 Eh   |
          | GRADIENT NORM               0.000073991500 Eh/α |
           -------------------------------------------------

 * finished run on 2025/09/09 at 04:36:46.006
