   * xtb version 6.7.1 (edcfbbe) compiled by 'albert@albert-system' on 2024-07-22

   ID    Z sym.   atoms
    1    7 N      1, 7, 13, 28
    2    6 C      2-6, 8-12, 14-27, 29-44
    3    1 H      45-68

          program call               : xtb data2507/gas/CBPMCN/CBPMCN_gas_S0_crest.xyz --gfn 2 --ohess vtight --parallel 40 --molden --ceasefiles --namespace data2507/gas/CBPMCN/CBPMCN_gas_S0_finalOpt
          :  Hamiltonian                  GFN2-xTB          :
 * total energy  :  -109.6319484 Eh     change       -0.1807976E-08 Eh
 * total energy  :  -109.6319505 Eh     change       -0.2076258E-05 Eh
 * total energy  :  -109.6319525 Eh     change       -0.1995278E-05 Eh
 * total energy  :  -109.6319553 Eh     change       -0.2828289E-05 Eh
 * total energy  :  -109.6319565 Eh     change       -0.1244330E-05 Eh
 * total energy  :  -109.6319577 Eh     change       -0.1123152E-05 Eh
 * total energy  :  -109.6319578 Eh     change       -0.1106353E-06 Eh
 * total energy  :  -109.6319585 Eh     change       -0.7040605E-06 Eh
 * total energy  :  -109.6319595 Eh     change       -0.1019196E-05 Eh
 * total energy  :  -109.6319604 Eh     change       -0.9195604E-06 Eh
 * total energy  :  -109.6319694 Eh     change       -0.1790554E-06 Eh
 * total energy  :  -109.6319695 Eh     change       -0.1090017E-06 Eh
 * total energy  :  -109.6319696 Eh     change       -0.1722942E-06 Eh
 * total energy  :  -109.6319698 Eh     change       -0.1775212E-06 Eh
 * total energy  :  -109.6319700 Eh     change       -0.2204418E-06 Eh
 * total energy  :  -109.6319703 Eh     change       -0.3003343E-06 Eh
 * total energy  :  -109.6319707 Eh     change       -0.3164932E-06 Eh
 * total energy  :  -109.6319709 Eh     change       -0.1906514E-06 Eh
 * total energy  :  -109.6319709 Eh     change       -0.8642364E-07 Eh
   *** GEOMETRY OPTIMIZATION CONVERGED AFTER 34 ITERATIONS ***

 final structure:
================
68
 xtb: 6.7.1 (edcfbbe)
N            0.27647247423646        6.58959262137772       -0.43727573071672
C           -0.14046100256329        5.52466510035736       -0.36169666489063
C           -0.65426695134477        4.21051756613582       -0.26953775765500
C           -0.31284298815969        3.40390825709721        0.81705071662365
C           -0.81223931462286        2.12102718822968        0.90332708923275
C           -1.65445413962826        1.63315106415921       -0.09363067026791
N           -2.11447928639449        0.31013043424924       -0.02360922910880
C           -1.29675080327431       -0.80446364248273       -0.00085326020045
C            0.15513422897684       -0.75803444950745       -0.03857231489340
C            0.86103856852359        0.15998874490231       -0.81518414681791
C            2.24024434825101        0.16923517791719       -0.80554561669113
C            2.94592106773269       -0.73762597403677       -0.01764928658189
N            4.34237669815565       -0.70079860106639        0.01374388788230
C            5.18984355587345       -1.78167175288211       -0.14444151726438
C            4.89002860374218       -3.10706192723905       -0.42376718470062
C            5.94349195012778       -3.99029762921167       -0.56479644375903
C            7.26625759298424       -3.57139385612700       -0.44192650478018
C            7.57116459991768       -2.24867557836808       -0.19037188058782
C            6.52946147032788       -1.34223021280408       -0.04461639016351
C            6.47961350132144        0.07384278332263        0.19195262318396
C            7.45364146407160        1.04277254517962        0.39303461403873
C            7.05464702244975        2.34430293051083        0.62286469889282
C            5.70402835144624        2.68152836599154        0.66955515050280
C            4.71685625374552        1.73463027237525        0.47293151356439
C            5.11206360470090        0.42982960358421        0.21568604542731
C            2.24460728892300       -1.67985464226546        0.73330694743217
C            0.86663022901176       -1.69318115148910        0.71412874378211
N           -1.98321392731983       -1.91498741548811        0.04611054114157
C           -3.29294963280802       -1.55060982578772        0.04921310065242
C           -4.43342528079501       -2.40093036971770        0.05098804511995
C           -4.29878071426080       -3.79313380367083        0.04279017936705
C           -5.41140049073757       -4.59572373249102        0.00769313613232
C           -6.67603245634709       -4.01118426342168       -0.02472154515054
C           -6.81973848815349       -2.64353668990718       -0.01066455674940
C           -5.70744103745202       -1.78898078911228        0.03605340074529
C           -5.82535544765336       -0.34228179395394        0.09345222842296
C           -7.07450498174597        0.29033081390019        0.16738077295483
C           -7.19675275538530        1.65529653623790        0.27477997009652
C           -6.06022134413054        2.45520328634991        0.33493772489023
C           -4.81788322324476        1.87632378020597        0.25554736369120
C           -4.67138493996590        0.48928070790208        0.11010689309654
C           -3.40958007541113       -0.16279818073000        0.01757684355451
C           -1.99550143635318        2.43865926920522       -1.18022478413080
C           -1.50106711193517        3.72284919102860       -1.26732192189557
H            0.33879797562193        3.79016608909718        1.58630630481821
H           -0.55438477703761        1.48693262255998        1.73813276197251
H            0.33610707072111        0.85031758504087       -1.45829387709429
H            2.78116304644644        0.86793653314515       -1.42580593691807
H            3.86965811190151       -3.43902208029361       -0.54171066685148
H            5.73589846066559       -5.02819993841052       -0.77936213375168
H            8.06114473719362       -4.29320589225985       -0.55626953950868
H            8.59640924464748       -1.91969789795482       -0.11297915491553
H            8.49989645631239        0.77771019326200        0.37369958667463
H            7.79593226985339        3.11373766226526        0.77862148295558
H            5.42128430834106        3.70509127450078        0.86654009662670
H            3.67259036597367        2.00408893415192        0.52936480511467
H            2.78777394733252       -2.38346881559428        1.34566098862110
H            0.31469906805796       -2.41716439746291        1.29267678750736
H           -3.30119871991446       -4.20371502408174        0.05714375736964
H           -5.31320613836873       -5.67109392700664       -0.00047233431202
H           -7.55462197039263       -4.63893179544323       -0.06103460345365
H           -7.81828606886556       -2.23745771416849       -0.04003936142065
H           -7.97575697317247       -0.30061190437217        0.15139587517290
H           -8.17648474257992        2.10616849851488        0.32907755685002
H           -6.15288566683830        3.52503702169989        0.44883079444920
H           -3.94061036685538        2.49981509763011        0.32737525285317
H           -2.64678520161872        2.04719087220917       -1.94778306012891
H           -1.75894595395730        4.35258931741182       -2.10554417585518

          :  Hamiltonian                  GFN2-xTB          :
         :: gradient norm              0.000082448686 Eh/a0 ::
         :: HOMO-LUMO gap              1.961327601931 eV    ::
         :: SCC energy              -111.722104442771 Eh    ::
         :: -> dispersion             -0.098789010618 Eh    ::
         :: repulsion energy           2.090133505110 Eh    ::

    * Orbital Energies and Occupations

         #    Occupation            Energy/Eh            Energy/eV
      -------------------------------------------------------------
         1        2.0000           -0.6983322             -19.0026
       ...           ...                  ...                  ...
        90        2.0000           -0.4240149             -11.5380
        91        2.0000           -0.4215099             -11.4699
        92        2.0000           -0.4205014             -11.4424
        93        2.0000           -0.4187397             -11.3945
        94        2.0000           -0.4153564             -11.3024
        95        2.0000           -0.4141563             -11.2698
        96        2.0000           -0.4069077             -11.0725
        97        2.0000           -0.4045501             -11.0084
        98        2.0000           -0.3877600             -10.5515
        99        2.0000           -0.3857566             -10.4970
       100        2.0000           -0.3803336             -10.3494
       101        2.0000           -0.3742065             -10.1827
       102        2.0000           -0.3636295              -9.8949 (HOMO)
       103                         -0.2915520              -7.9335 (LUMO)
       104                         -0.2674384              -7.2774
       105                         -0.2634218              -7.1681
       106                         -0.2542977              -6.9198
       107                         -0.2497906              -6.7971
       108                         -0.2449344              -6.6650
       109                         -0.2408029              -6.5526
       110                         -0.2235598              -6.0834
       111                         -0.2178347              -5.9276
       112                         -0.2175570              -5.9200
       113                         -0.2001176              -5.4455
       ...                                ...                  ...
       200                          1.1607297              31.5851
      -------------------------------------------------------------
                  HL-Gap            0.0720775 Eh            1.9613 eV

     #   Z          covCN         q      C6AA      α(0)
     1   7 N        0.911    -0.224    25.887     7.359
     2   6 C        1.912     0.112    28.327     8.595
     3   6 C        2.973     0.020    27.567     8.612
     4   6 C        2.926    -0.018    28.453     8.748
     5   6 C        2.921    -0.036    28.894     8.815
     6   6 C        2.912     0.077    26.278     8.406
     7   7 N        2.841    -0.047    22.139     6.988
     8   6 C        3.188     0.128    24.765     8.118
     9   6 C        2.974    -0.002    28.081     8.692
    10   6 C        2.922    -0.034    28.843     8.807
    11   6 C        2.921    -0.043    29.076     8.843
    12   6 C        2.913     0.067    26.506     8.442
    13   7 N        2.802    -0.043    22.062     6.976
    14   6 C        3.073     0.046    26.885     8.501
    15   6 C        2.910    -0.051    29.260     8.870
    16   6 C        2.924    -0.033    28.818     8.803
    17   6 C        2.920    -0.040    28.996     8.830
    18   6 C        2.913    -0.032    28.809     8.801
    19   6 C        3.068    -0.016    28.343     8.730
    20   6 C        3.067    -0.016    28.339     8.729
    21   6 C        2.913    -0.032    28.805     8.801
    22   6 C        2.920    -0.040    28.993     8.830
    23   6 C        2.924    -0.033    28.823     8.804
    24   6 C        2.910    -0.051    29.255     8.869
    25   6 C        3.074     0.046    26.893     8.503
    26   6 C        2.920    -0.042    29.037     8.837
    27   6 C        2.927    -0.027    28.673     8.781
    28   7 N        1.894    -0.285    28.237     7.878
    29   6 C        3.207     0.058    26.109     8.321
    30   6 C        2.986     0.003    27.947     8.672
    31   6 C        2.922    -0.031    28.763     8.795
    32   6 C        2.917    -0.029    28.730     8.790
    33   6 C        2.918    -0.032    28.789     8.799
    34   6 C        2.922    -0.034    28.853     8.809
    35   6 C        2.979    -0.001    28.040     8.686
    36   6 C        2.980     0.003    27.954     8.673
    37   6 C        2.922    -0.033    28.820     8.804
    38   6 C        2.917    -0.032    28.800     8.800
    39   6 C        2.917    -0.031    28.774     8.796
    40   6 C        2.919    -0.040    28.993     8.830
    41   6 C        2.978    -0.002    28.077     8.692
    42   6 C        3.069     0.020    27.498     8.598
    43   6 C        2.920    -0.034    28.855     8.809
    44   6 C        2.926    -0.019    28.483     8.752
    45   1 H        0.926     0.051     2.310     2.377
    46   1 H        0.926     0.048     2.351     2.398
    47   1 H        0.926     0.029     2.606     2.525
    48   1 H        0.926     0.044     2.399     2.422
    49   1 H        0.926     0.029     2.595     2.519
    50   1 H        0.926     0.031     2.576     2.510
    51   1 H        0.926     0.029     2.595     2.519
    52   1 H        0.926     0.032     2.557     2.501
    53   1 H        0.926     0.032     2.551     2.498
    54   1 H        0.926     0.030     2.586     2.515
    55   1 H        0.926     0.031     2.576     2.510
    56   1 H        0.926     0.023     2.685     2.563
    57   1 H        0.926     0.048     2.341     2.393
    58   1 H        0.926     0.057     2.232     2.336
    59   1 H        0.926     0.051     2.302     2.373
    60   1 H        0.926     0.032     2.554     2.499
    61   1 H        0.926     0.030     2.583     2.513
    62   1 H        0.926     0.032     2.555     2.500
    63   1 H        0.926     0.036     2.496     2.471
    64   1 H        0.926     0.031     2.568     2.506
    65   1 H        0.926     0.029     2.600     2.521
    66   1 H        0.926     0.022     2.708     2.573
    67   1 H        0.926     0.052     2.298     2.371
    68   1 H        0.926     0.051     2.303     2.373

molecular dipole:
                 x           y           z       tot (Debye)
 q only:       -0.377      -0.518       0.094
   full:       -0.751      -0.501       0.094       2.307

 projected vibrational frequencies (cm⁻¹)
eigval :       -0.00    -0.00    -0.00     0.00     0.00     0.00
eigval :        9.33    13.97    18.79    25.76    31.88    44.95
eigval :       57.92    58.62    71.78    83.99    96.97   104.35
eigval :      109.79   121.51   124.56   131.75   148.41   173.27
eigval :      178.21   203.60   211.89   220.12   246.83   260.84
eigval :      264.92   272.04   277.61   300.73   342.94   368.99
eigval :      371.97   379.93   385.44   393.61   398.47   407.18
eigval :      414.78   424.06   425.30   434.67   438.40   464.51
eigval :      466.50   498.76   515.04   518.23   524.11   532.48
eigval :      534.85   535.09   541.23   547.55   574.99   582.55
eigval :      585.88   596.73   608.06   616.27   641.10   644.18
eigval :      652.81   670.61   673.24   675.26   682.32   690.23
eigval :      697.91   706.89   710.94   735.05   740.04   757.53
eigval :      765.85   770.13   778.76   781.45   782.90   807.90
eigval :      822.80   826.52   862.29   866.81   869.10   874.62
eigval :      875.45   880.45   898.01   903.18   903.64   907.69
eigval :      914.72   915.97   920.16   921.67   924.02   925.96
eigval :      927.58   927.97   928.47   934.83   939.38   973.53
eigval :     1006.63  1012.15  1016.10  1031.59  1068.35  1070.94
eigval :     1074.66  1085.73  1108.54  1117.60  1127.73  1131.71
eigval :     1135.55  1151.54  1153.15  1171.45  1176.94  1180.58
eigval :     1181.24  1182.89  1183.32  1185.80  1203.39  1205.87
eigval :     1230.76  1236.39  1245.05  1254.13  1257.86  1260.23
eigval :     1265.29  1283.64  1297.84  1301.58  1304.33  1310.37
eigval :     1318.88  1325.45  1339.22  1346.18  1357.30  1361.54
eigval :     1369.59  1376.00  1400.43  1407.19  1408.61  1419.64
eigval :     1427.96  1429.25  1430.33  1436.53  1475.55  1476.71
eigval :     1486.88  1487.71  1513.90  1517.40  1544.76  1551.25
eigval :     1557.80  1565.41  1570.50  1575.82  1585.02  1589.28
eigval :     1594.28  1594.93  1599.28  1605.05  1614.63  2376.09
eigval :     3074.55  3075.85  3077.96  3078.59  3081.35  3083.45
eigval :     3085.88  3086.22  3088.39  3088.48  3089.68  3090.92
eigval :     3091.99  3094.49  3096.59  3097.96  3098.42  3098.97
eigval :     3100.68  3102.24  3105.85  3108.91  3109.31  3112.85

   temp. (K)  partition function   enthalpy   heat capacity  entropy
                                   cal/mol     cal/K/mol   cal/K/mol   J/K/mol
 298.15  VIB  0.523E+15            19286.350    124.336    119.102
         ROT  0.681E+08              888.752      2.981     38.823
         INT  0.356E+23            20175.102    127.317    157.925
         TR   0.128E+29             1481.254      4.968     44.836
         TOT                       21656.3559   132.2855   202.7611   848.3526

       T/K    H(0)-H(T)+PV         H(T)/Eh          T*S/Eh         G(T)/Eh
   ------------------------------------------------------------------------
    298.15    0.345116E-01    0.546575E+00    0.963384E-01    0.450236E+00
   ------------------------------------------------------------------------

         :::::::::::::::::::::::::::::::::::::::::::::::::::::
         ::                  THERMODYNAMIC                  ::
         :::::::::::::::::::::::::::::::::::::::::::::::::::::
         :: total free energy        -109.181734457776 Eh   ::
         ::.................................................::
         :: total energy             -109.631970937657 Eh   ::
         :: zero point energy           0.512063234539 Eh   ::
         :: G(RRHO) w/o ZPVE           -0.061826754658 Eh   ::
         :: G(RRHO) contrib.            0.450236479882 Eh   ::
         :::::::::::::::::::::::::::::::::::::::::::::::::::::

           -------------------------------------------------
          | TOTAL ENERGY             -109.631970937657 Eh   |
          | TOTAL ENTHALPY           -109.085396103165 Eh   |
          | TOTAL FREE ENERGY        -109.181734457776 Eh   |
          | GRADIENT NORM               0.000082261641 Eh/α |
          | HOMO-LUMO GAP               1.961328390006 eV   |
           -------------------------------------------------

 * finished run on 2025/09/09 at 04:36:37.249
