   * xtb version 6.7.1 (edcfbbe) compiled by 'albert@albert-system' on 2024-07-22

   ID    Z sym.   atoms
    1    6 C      1-15, 17-29, 31-40
    2    8 O      16
    3    7 N      30
    4    1 H      41-73

          program call               : xtb data2507/toluene/SIR-A/SIR-A.xyz --gfn 2 --gbsa toluene --ohess vtight --parallel 40 --molden --ceasefiles --namespace data2507/toluene/SIR-A/SIR-A_toluene_S0_preOpt
      * Solvation model:               GBSA
        Solvent                        toluene
        Solvent mass                       9.2140E+01 g/mol
          :  Hamiltonian                  GFN2-xTB          :
 * total energy  :  -105.2727174 Eh     change       -0.1205791E-08 Eh
 * total energy  :  -105.2871089 Eh     change       -0.1439152E-01 Eh
 * total energy  :  -105.2918340 Eh     change       -0.4725099E-02 Eh
 * total energy  :  -105.2926176 Eh     change       -0.7836179E-03 Eh
 * total energy  :  -105.2929795 Eh     change       -0.3618400E-03 Eh
 * total energy  :  -105.2930868 Eh     change       -0.1073755E-03 Eh
 * total energy  :  -105.2931352 Eh     change       -0.4832497E-04 Eh
 * total energy  :  -105.2931404 Eh     change       -0.5257467E-05 Eh
 * total energy  :  -105.2931413 Eh     change       -0.8553126E-06 Eh
 * total energy  :  -105.2931409 Eh     change        0.3999039E-06 Eh
 * total energy  :  -105.2931504 Eh     change       -0.2506026E-06 Eh
 * total energy  :  -105.2931506 Eh     change       -0.2061440E-06 Eh
 * total energy  :  -105.2931507 Eh     change       -0.1558740E-06 Eh
 * total energy  :  -105.2931506 Eh     change        0.8022769E-07 Eh
 * total energy  :  -105.2931508 Eh     change       -0.1238554E-06 Eh
 * total energy  :  -105.2931507 Eh     change        0.6408798E-07 Eh
 * total energy  :  -105.2931508 Eh     change       -0.1000338E-06 Eh
 * total energy  :  -105.2931508 Eh     change        0.4772696E-07 Eh
 * total energy  :  -105.2931508 Eh     change       -0.7488178E-07 Eh
   *** GEOMETRY OPTIMIZATION CONVERGED AFTER 30 ITERATIONS ***

 final structure:
================
73
 xtb: 6.7.1 (edcfbbe)
C           -2.19907719789990        4.99741915997263       -0.00796989698662
C           -1.47681846199696        3.68416655826351        0.00605166807978
C           -0.08836930385139        3.62533311088003       -0.00442256273138
C            0.57288628169635        2.41545268549863       -0.01251192178043
C           -0.13349626314417        1.20922052999565       -0.01127626187818
C           -1.52906699039746        1.25837098545152       -0.00139709859113
C           -2.17385654527719        2.48539905736514        0.00650270481251
C           -2.38163264118166        0.00004089306626        0.00175295227143
C           -3.21266874810430        0.00020725254973       -1.25835928352288
C           -2.55426109902379        0.00029412145273       -2.48420588721840
C           -3.25860685282833        0.00044876763591       -3.67186330710283
C           -4.64768481919174        0.00052025698048       -3.65890821085071
C           -5.31283203010660        0.00043328046946       -2.45323797314639
C           -4.60832350632803        0.00027786483365       -1.24476829660846
C           -5.37681082372322        0.00018081537765        0.01145288349580
O           -6.60436616645060        0.00027573140978        0.01560933488756
C           -4.60007683198592       -0.00005272533317        1.26268710626935
C           -5.29676386558929       -0.00019491593350        2.47569299657333
C           -4.62384949613959       -0.00041199794988        3.67705147859471
C           -3.23471701011458       -0.00048623259702        3.68102490292016
C           -2.53804062995197       -0.00034167951577        2.48885826440087
C           -3.20433030612706       -0.00013062244045        1.26725687541372
C           -1.52902689668269       -1.25825795934992       -0.00178438655507
C           -2.17377974086812       -2.48530848421561        0.00569174579285
C           -1.47670476547932       -3.68405439642173        0.00465367278845
C           -2.19892156721635       -4.99732517871458       -0.00985055039925
C           -0.08825942703084       -3.62517309581534       -0.00600542777879
C            0.57295941739906       -2.41526979418699       -0.01363519577325
C           -0.13345841242588       -1.20905930347565       -0.01173420663978
N            0.54152369342444        0.00009346098582       -0.01816799912923
C            1.96766252854590        0.00009964488946       -0.02531507456165
C            2.66403719831644        0.00111837839227       -1.22411803251016
C            4.04860694851494        0.00106714932073       -1.22715145478294
C            4.77394570675256       -0.00001996257531       -0.04112850723531
C            6.29445303206470       -0.00018305426210       -0.00082074318485
C            6.77439826944049        1.25604340200868        0.74156665577057
C            6.92281786621268        0.00105618225649       -1.39769674749916
C            6.77414149265140       -1.25788948234687        0.73922186845751
C            4.05650586317857       -0.00101875888069        1.15393071151997
C            2.67542069471368       -0.00095222932451        1.16935335868182
H           -2.34721543811472        5.33264733761871       -1.03567464170662
H           -1.62600877878133        5.75987963300658        0.51517706979038
H           -3.17692412753328        4.90566381684191        0.45977879689249
H            0.48608281143677        4.54053912584954       -0.00488024451209
H            1.65190669872408        2.39764046313541       -0.01838960293834
H           -3.25554960407710        2.49946809504368        0.01450664138578
H           -1.47423780548503        0.00023360099274       -2.49831855380489
H           -2.72714609792055        0.00051390979814       -4.61210792156326
H           -5.20165240988471        0.00064589975181       -4.58566493480366
H           -6.39266810419988        0.00048952418114       -2.40695619987364
H           -6.37689296892994       -0.00012058437935        2.43634400233670
H           -5.17184287634481       -0.00051441254372        4.60734931791488
H           -2.69722252316029       -0.00065336016779        4.61779664435515
H           -1.45794392873269       -0.00039216088473        2.49607071866292
H           -3.25547199084715       -2.49940894179816        0.01378892547634
H           -1.62572146918925       -5.76001529697242        0.51281639881995
H           -3.17668007327842       -4.90582843694488        0.45813267011598
H           -2.34725124925095       -5.33206928525433       -1.03768577435192
H            0.48622209199067       -4.54036001578607       -0.00698992603390
H            1.65197774202323       -2.39742731351710       -0.01969314612427
H            2.11972852375896        0.00195127059214       -2.15738042000187
H            4.55251199775482        0.00187859325878       -2.17942375941211
H            6.41445707422616        2.15170482981199        0.23872951732772
H            6.41619984600627        1.27355408040604        1.76716294490979
H            7.86173600188912        1.28514679050440        0.76092225191036
H            6.63470754306715       -0.88520525897063       -1.95859901194436
H            8.00710047611612        0.00089990984203       -1.30574515107571
H            6.63482610236266        0.88838440591200       -1.95697083227446
H            7.86147371251618       -1.28721523377795        0.75857686180313
H            6.41408046622274       -2.15253838635747        0.23467072057646
H            6.41588503499116       -1.27728028552639        1.76476515281193
H            4.57850141907776       -0.00186387359986        2.09846052980959
H            2.13946930977220       -0.00174085578316        2.10740080125765

          :  Hamiltonian                  GFN2-xTB          :
         :: gradient norm              0.000025113468 Eh/a0 ::
         :: HOMO-LUMO gap              1.392797442074 eV    ::
         :: SCC energy              -107.161149271867 Eh    ::
         :: -> dispersion             -0.101841071795 Eh    ::
         :: -> Gsolv                  -0.044392648859 Eh    ::
         :: repulsion energy           1.867998434409 Eh    ::

    * Orbital Energies and Occupations

         #    Occupation            Energy/Eh            Energy/eV
      -------------------------------------------------------------
         1        2.0000           -0.7024905             -19.1157
       ...           ...                  ...                  ...
        86        2.0000           -0.4204755             -11.4417
        87        2.0000           -0.4167447             -11.3402
        88        2.0000           -0.4160847             -11.3222
        89        2.0000           -0.4138614             -11.2617
        90        2.0000           -0.4101718             -11.1613
        91        2.0000           -0.4091237             -11.1328
        92        2.0000           -0.4013931             -10.9225
        93        2.0000           -0.3972703             -10.8103
        94        2.0000           -0.3968794             -10.7996
        95        2.0000           -0.3958908             -10.7727
        96        2.0000           -0.3953384             -10.7577
        97        2.0000           -0.3871556             -10.5350
        98        2.0000           -0.3444665              -9.3734 (HOMO)
        99                         -0.2932821              -7.9806 (LUMO)
       100                         -0.2403781              -6.5410
       101                         -0.2333592              -6.3500
       102                         -0.2321768              -6.3179
       103                         -0.2299006              -6.2559
       104                         -0.2281104              -6.2072
       105                         -0.2222381              -6.0474
       106                         -0.2210627              -6.0154
       107                         -0.2165892              -5.8937
       108                         -0.1896439              -5.1605
       109                         -0.1787635              -4.8644
       ...                                ...                  ...
       193                          0.6916649              18.8212
      -------------------------------------------------------------
                  HL-Gap            0.0511844 Eh            1.3928 eV

     #   Z          covCN         q      C6AA      α(0)
     1   6 C        3.757    -0.108    22.608     6.779
     2   6 C        2.964     0.004    27.935     8.669
     3   6 C        2.925    -0.043    29.063     8.841
     4   6 C        2.922    -0.060    29.482     8.904
     5   6 C        2.925     0.057    26.720     8.477
     6   6 C        2.989    -0.014    28.345     8.733
     7   6 C        2.931    -0.046    29.149     8.854
     8   6 C        3.928     0.015    20.257     6.396
     9   6 C        2.987     0.018    27.600     8.618
    10   6 C        2.924    -0.032    28.794     8.800
    11   6 C        2.919    -0.022    28.547     8.762
    12   6 C        2.917    -0.030    28.753     8.793
    13   6 C        2.925    -0.019    28.490     8.753
    14   6 C        2.976    -0.023    28.579     8.769
    15   6 C        2.832     0.223    23.307     7.911
    16   8 O        0.858    -0.446    22.626     6.377
    17   6 C        2.976    -0.023    28.583     8.770
    18   6 C        2.925    -0.019    28.495     8.754
    19   6 C        2.917    -0.030    28.754     8.793
    20   6 C        2.919    -0.022    28.546     8.762
    21   6 C        2.924    -0.032    28.792     8.799
    22   6 C        2.987     0.018    27.601     8.618
    23   6 C        2.989    -0.014    28.345     8.733
    24   6 C        2.931    -0.046    29.149     8.854
    25   6 C        2.964     0.004    27.935     8.669
    26   6 C        3.757    -0.108    22.608     6.779
    27   6 C        2.925    -0.043    29.063     8.841
    28   6 C        2.922    -0.060    29.482     8.904
    29   6 C        2.925     0.057    26.720     8.477
    30   7 N        2.752    -0.074    22.677     7.073
    31   6 C        2.926     0.062    26.615     8.460
    32   6 C        2.920    -0.041    29.018     8.834
    33   6 C        2.925    -0.039    28.959     8.825
    34   6 C        2.973     0.011    27.759     8.642
    35   6 C        3.902     0.026    20.078     6.369
    36   6 C        3.761    -0.106    22.578     6.774
    37   6 C        3.761    -0.109    22.631     6.782
    38   6 C        3.761    -0.106    22.578     6.774
    39   6 C        2.927    -0.034    28.852     8.809
    40   6 C        2.920    -0.041    29.015     8.833
    41   1 H        0.924     0.047     2.358     2.401
    42   1 H        0.925     0.045     2.380     2.413
    43   1 H        0.925     0.040     2.448     2.447
    44   1 H        0.926     0.034     2.535     2.490
    45   1 H        0.926     0.032     2.559     2.501
    46   1 H        0.925     0.018     2.758     2.597
    47   1 H        0.926     0.039     2.458     2.452
    48   1 H        0.926     0.047     2.362     2.403
    49   1 H        0.926     0.044     2.397     2.421
    50   1 H        0.926     0.048     2.341     2.393
    51   1 H        0.926     0.048     2.343     2.394
    52   1 H        0.926     0.044     2.398     2.421
    53   1 H        0.926     0.047     2.360     2.402
    54   1 H        0.926     0.039     2.458     2.452
    55   1 H        0.925     0.018     2.758     2.597
    56   1 H        0.925     0.045     2.380     2.413
    57   1 H        0.925     0.040     2.448     2.447
    58   1 H        0.924     0.047     2.358     2.401
    59   1 H        0.926     0.034     2.535     2.490
    60   1 H        0.926     0.032     2.559     2.501
    61   1 H        0.926     0.037     2.492     2.468
    62   1 H        0.926     0.048     2.344     2.394
    63   1 H        0.925     0.034     2.528     2.487
    64   1 H        0.925     0.038     2.471     2.458
    65   1 H        0.925     0.041     2.435     2.440
    66   1 H        0.925     0.038     2.481     2.463
    67   1 H        0.925     0.040     2.454     2.450
    68   1 H        0.925     0.038     2.481     2.463
    69   1 H        0.925     0.041     2.435     2.440
    70   1 H        0.925     0.034     2.528     2.487
    71   1 H        0.925     0.038     2.471     2.458
    72   1 H        0.926     0.041     2.434     2.440
    73   1 H        0.926     0.037     2.495     2.470

molecular dipole:
                 x           y           z       tot (Debye)
 q only:        3.269      -0.000      -0.035
   full:        3.175      -0.000      -0.043       8.070

 projected vibrational frequencies (cm⁻¹)
eigval :       -0.00    -0.00    -0.00    -0.00     0.00     0.00
eigval :       13.81    14.32    16.71    29.09    36.45    42.12
eigval :       50.06    50.69    51.08    56.86    62.18    88.17
eigval :      101.56   105.95   118.51   124.07   127.26   135.41
eigval :      175.59   190.63   209.99   212.87   221.71   222.59
eigval :      233.71   254.38   257.84   271.38   292.27   300.93
eigval :      314.32   316.73   326.86   336.54   343.76   360.53
eigval :      361.09   369.33   376.07   377.65   399.54   413.15
eigval :      418.72   420.19   435.12   439.30   442.76   451.12
eigval :      464.77   467.75   489.17   519.76   520.51   541.15
eigval :      548.48   564.31   578.46   599.63   607.85   612.30
eigval :      624.49   629.96   635.03   647.11   665.39   666.64
eigval :      687.40   702.74   703.84   723.82   738.75   743.82
eigval :      779.22   786.91   802.64   812.90   815.24   821.34
eigval :      859.24   872.51   878.67   883.64   886.66   887.66
eigval :      887.99   898.82   912.89   913.89   917.06   922.90
eigval :      924.42   924.84   930.26   931.12   931.78   932.68
eigval :      953.69   959.86   960.11   961.76   962.33   995.41
eigval :     1013.65  1019.19  1029.65  1034.31  1034.48  1034.51
eigval :     1034.79  1090.64  1094.61  1094.89  1117.27  1138.57
eigval :     1142.02  1142.30  1145.68  1176.27  1177.13  1182.20
eigval :     1184.63  1196.98  1197.73  1214.39  1218.47  1225.41
eigval :     1227.34  1231.39  1237.32  1254.07  1264.77  1265.53
eigval :     1267.74  1274.34  1275.43  1277.04  1289.52  1309.59
eigval :     1325.84  1333.26  1333.91  1335.67  1337.29  1362.05
eigval :     1395.34  1402.69  1402.89  1402.90  1406.88  1418.38
eigval :     1422.03  1422.33  1425.21  1427.39  1461.32  1466.43
eigval :     1479.97  1480.38  1481.56  1482.45  1486.22  1488.36
eigval :     1489.06  1490.35  1499.25  1502.54  1506.45  1511.51
eigval :     1515.68  1565.40  1566.53  1568.50  1575.98  1583.10
eigval :     1589.82  1590.44  1600.32  1604.91  1613.05  1633.64
eigval :     2987.42  2987.51  3021.96  3022.65  3026.21  3026.60
eigval :     3030.16  3030.86  3030.93  3032.21  3033.51  3033.57
eigval :     3037.46  3045.38  3048.35  3066.17  3066.48  3074.10
eigval :     3074.36  3076.52  3076.66  3078.23  3079.90  3079.97
eigval :     3080.99  3086.79  3087.05  3092.76  3094.14  3095.00
eigval :     3097.12  3097.68  3117.12

   temp. (K)  partition function   enthalpy   heat capacity  entropy
                                   cal/mol     cal/K/mol   cal/K/mol   J/K/mol
 298.15  VIB  0.105E+17            20627.637    127.630    128.576
         ROT  0.385E+08              888.752      2.981     37.688
         INT  0.404E+24            21516.390    130.611    166.264
         TR   0.115E+29             1481.254      4.968     44.610
         TOT                       22997.6435   135.5788   210.8744   882.2984

       T/K    H(0)-H(T)+PV         H(T)/Eh          T*S/Eh         G(T)/Eh
   ------------------------------------------------------------------------
    298.15    0.366491E-01    0.623458E+00    0.100193E+00    0.523265E+00
   ------------------------------------------------------------------------

         :::::::::::::::::::::::::::::::::::::::::::::::::::::
         ::                  THERMODYNAMIC                  ::
         :::::::::::::::::::::::::::::::::::::::::::::::::::::
         :: total free energy        -104.769885997097 Eh   ::
         ::.................................................::
         :: total energy             -105.293150837763 Eh   ::
         :: zero point energy           0.586808989771 Eh   ::
         :: G(RRHO) w/o ZPVE           -0.063544149105 Eh   ::
         :: G(RRHO) contrib.            0.523264840666 Eh   ::
         :::::::::::::::::::::::::::::::::::::::::::::::::::::

           -------------------------------------------------
          | TOTAL ENERGY             -105.293150837763 Eh   |
          | TOTAL ENTHALPY           -104.669692770246 Eh   |
          | TOTAL FREE ENERGY        -104.769885997097 Eh   |
          | GRADIENT NORM               0.000025160108 Eh/α |
          | HOMO-LUMO GAP               1.392797284310 eV   |
           -------------------------------------------------

 * finished run on 2025/09/11 at 23:27:33.447
