   * xtb version 6.7.1 (edcfbbe) compiled by 'albert@albert-system' on 2024-07-22

   ID    Z sym.   atoms
    1    6 C      1-15, 17-29, 31-40
    2    8 O      16
    3    7 N      30
    4    1 H      41-73

          program call               : xtb data2507/toluene/SIR-A/SIR-A_toluene_S0_finalOpt.xtbopt.xyz --gfn 2 --uhf 2 --gbsa toluene --ohess vtight --parallel 40 --molden --ceasefiles --namespace data2507/toluene/SIR-A/SIR-A_toluene_T1_preOpt
      * Solvation model:               GBSA
        Solvent                        toluene
        Solvent mass                       9.2140E+01 g/mol
          :  Hamiltonian                  GFN2-xTB          :
 * total energy  :  -105.2131866 Eh     change       -0.1903149E-07 Eh
 * total energy  :  -105.2166312 Eh     change       -0.3444530E-02 Eh
 * total energy  :  -105.2174380 Eh     change       -0.8068052E-03 Eh
 * total energy  :  -105.2174753 Eh     change       -0.3736926E-04 Eh
 * total energy  :  -105.2174869 Eh     change       -0.1155028E-04 Eh
 * total energy  :  -105.2174910 Eh     change       -0.4137001E-05 Eh
 * total energy  :  -105.2174932 Eh     change       -0.2206416E-05 Eh
 * total energy  :  -105.2174936 Eh     change       -0.4074458E-06 Eh
 * total energy  :  -105.2174945 Eh     change       -0.9060866E-06 Eh
 * total energy  :  -105.2174957 Eh     change       -0.1186631E-05 Eh
 * total energy  :  -105.2175225 Eh     change       -0.1722622E-06 Eh
 * total energy  :  -105.2175229 Eh     change       -0.3633095E-06 Eh
 * total energy  :  -105.2175234 Eh     change       -0.5165622E-06 Eh
 * total energy  :  -105.2175240 Eh     change       -0.5624916E-06 Eh
 * total energy  :  -105.2175244 Eh     change       -0.4528526E-06 Eh
 * total energy  :  -105.2175246 Eh     change       -0.1745186E-06 Eh
 * total energy  :  -105.2175247 Eh     change       -0.1551166E-06 Eh
 * total energy  :  -105.2175249 Eh     change       -0.1418445E-06 Eh
 * total energy  :  -105.2175249 Eh     change       -0.4860645E-07 Eh
   *** GEOMETRY OPTIMIZATION CONVERGED AFTER 43 ITERATIONS ***

 final structure:
================
73
 xtb: 6.7.1 (edcfbbe)
C           -1.51776077519502        4.99459315808621       -0.09889227117632
C           -0.81878565740791        3.67462888127761       -0.08250779569212
C            0.57784152415344        3.61341044681843       -0.10930488023272
C            1.23580313305225        2.40847687385687       -0.08280393991596
C            0.51865482196923        1.20239607987836       -0.02425994040763
C           -0.88472370261088        1.25117074261392       -0.01593645025988
C           -1.52317043810707        2.48234473603561       -0.04046078550164
C           -1.72660504873867        0.00267555438789        0.00518519958871
C           -2.57916579500932       -0.01391977935544       -1.25733124139570
C           -1.92204177934886       -0.02770800611028       -2.47455534657698
C           -2.62245342759448       -0.04608906963441       -3.67128762536306
C           -4.01317424468229       -0.05046525735805       -3.64765185622615
C           -4.68191055766196       -0.03561881695126       -2.44943634965651
C           -3.98128001120013       -0.01633743942976       -1.22417465053760
C           -4.73870067458930        0.00091022663121        0.00404065386511
O           -6.01231323888408       -0.00115346965682        0.00356216838655
C           -3.98221668839097        0.02117960547378        1.23277632698546
C           -4.68381032379282        0.04069924827249        2.45748594628653
C           -4.01601564428429        0.05942567776351        3.65616775301420
C           -2.62530358684654        0.05896008796082        3.68085914905726
C           -1.92394583682688        0.03988230658838        2.48469601022986
C           -2.58013695751771        0.02206140132026        1.26702774774415
C           -0.88989016304938       -1.24937432212489        0.02719537100522
C           -1.53332452096965       -2.47800748680737        0.04770768243499
C           -0.83389473875311       -3.67318945085180        0.08988015416331
C           -1.53846036959710       -4.99023065918688        0.10191381551367
C            0.56290145145856       -3.61773660256206        0.12098663613572
C            1.22579552657016       -2.41541128337086        0.09895590709391
C            0.51364191917117       -1.20636882350056        0.04056456633622
N            1.18324446046932       -0.00336769932698        0.01041338878711
C            2.61014093951445       -0.00553854194094        0.01375089392498
C            3.31096683506113       -0.26023363279182       -1.15786806011856
C            4.69182497088548       -0.25578665196780       -1.14560624686269
C            5.41289120549011       -0.00044237812401        0.02016401889439
C            6.93241379302991       -0.00306600693386       -0.02451233152103
C            7.56351629342883        0.30347769610291        1.33696562492995
C            7.40294030717981        1.06551998988020       -1.02293357046456
C            7.41604006199318       -1.38880079582966       -0.47776423500704
C            4.69109225024225        0.24929140548772        1.18239086139310
C            3.30680322794249        0.24837902179603        1.18546420355046
H           -1.16287503229583        5.60313912420058       -0.92942049205970
H           -1.30992854888228        5.53908700731423        0.82237534055112
H           -2.59293050514544        4.86474405600882       -0.18958582978316
H            1.14738126181369        4.52962149342250       -0.15358499279968
H            2.31360642511859        2.38610776799475       -0.11103802655596
H           -2.60372148388918        2.49590051523381       -0.02935097432578
H           -0.84058761785875       -0.02379558394608       -2.48968000044583
H           -2.08981472880049       -0.05672700805845       -4.61011187900549
H           -4.57214439960998       -0.06505596867799       -4.57286950784218
H           -5.76192689572443       -0.03792620208794       -2.40138798424639
H           -5.76379301052769        0.04007865154671        2.40860934328039
H           -4.57571794272235        0.07409838171518        4.58094064996585
H           -2.09340183700343        0.07290368012127        4.62005590433999
H           -0.84251021942532        0.03857475870696        2.50064254693402
H           -2.61385268947639       -2.48730633028980        0.03303460709749
H           -1.32647804297748       -5.53611423697421       -0.81754193556645
H           -1.19198890241870       -5.59982814630473        0.93521483703908
H           -2.61366638639845       -4.85581078344223        0.18513438995308
H            1.12853868652244       -4.53636953296157        0.16498312187745
H            2.30362317309192       -2.39734206999616        0.13011904379885
H            2.77123090977259       -0.45940708814351       -2.07179205891420
H            5.21036526293876       -0.45464644822278       -2.07021661679019
H            7.27301580040852        1.28981431008599        1.69161152936609
H            7.28278643579974       -0.44177529331257        2.07771906231097
H            8.64741550972144        0.28838608630751        1.24330005089707
H            7.04723552569548        0.85735268560143       -2.02812436816405
H            8.48992289485713        1.09759924210761       -1.04790800299220
H            7.03673830816029        2.04652422725421       -0.72650706335058
H            8.50322603473626       -1.41292005564428       -0.50282424330940
H            7.04878351110458       -1.63475977330158       -1.47023969468808
H            7.07109587314745       -2.15432071176409        0.21459597012416
H            5.19755007582464        0.45001253358752        2.11136492164564
H            2.76407281603810        0.44588944388163        2.09804850382151

          :  Hamiltonian                  GFN2-xTB          :
         :: gradient norm              0.000058980614 Eh/a0 ::
         :: HOMO-LUMO gap              0.788981761539 eV    ::
         :: SCC energy              -107.075980428258 Eh    ::
         :: -> dispersion             -0.101652236234 Eh    ::
         :: -> Gsolv                  -0.057607730248 Eh    ::
         :: repulsion energy           1.858455496607 Eh    ::

    * Orbital Energies and Occupations

         #    Occupation            Energy/Eh            Energy/eV
      -------------------------------------------------------------
         1        2.0000           -0.6932640             -18.8647
       ...           ...                  ...                  ...
        87        2.0000           -0.4221741             -11.4879
        88        2.0000           -0.4200552             -11.4303
        89        2.0000           -0.4113800             -11.1942
        90        2.0000           -0.4080579             -11.1038
        91        2.0000           -0.4073582             -11.0848
        92        2.0000           -0.4046504             -11.0111
        93        2.0000           -0.3957391             -10.7686
        94        2.0000           -0.3955696             -10.7640
        95        2.0000           -0.3933089             -10.7025
        96        2.0000           -0.3915657             -10.6550
        97        1.9722           -0.3674619              -9.9991
        98        1.0278           -0.3607105              -9.8154
        99        1.0000           -0.2761915              -7.5156 (HOMO)
       100        0.0000           -0.2471974              -6.7266 (LUMO)
       101                         -0.2414638              -6.5706
       102                         -0.2385867              -6.4923
       103                         -0.2367084              -6.4412
       104                         -0.2348999              -6.3920
       105                         -0.2176485              -5.9225
       106                         -0.2171662              -5.9094
       107                         -0.2135272              -5.8104
       108                         -0.2090239              -5.6878
       109                         -0.1569300              -4.2703
       110                         -0.1127306              -3.0676
       ...                                ...                  ...
       193                          0.6856938              18.6587
      -------------------------------------------------------------
                  HL-Gap            0.0289941 Eh            0.7890 eV

     #   Z          covCN         q      C6AA      α(0)
     1   6 C        3.758    -0.114    22.731     6.797
     2   6 C        2.964     0.026    27.416     8.588
     3   6 C        2.923    -0.036    28.886     8.814
     4   6 C        2.918    -0.049    29.215     8.864
     5   6 C        2.928     0.059    26.688     8.472
     6   6 C        2.986     0.004    27.922     8.668
     7   6 C        2.928    -0.039    28.963     8.826
     8   6 C        3.929     0.021    20.166     6.382
     9   6 C        2.985    -0.005    28.132     8.700
    10   6 C        2.923    -0.039    28.966     8.826
    11   6 C        2.918    -0.048    29.196     8.861
    12   6 C        2.915    -0.036    28.894     8.815
    13   6 C        2.925    -0.034    28.854     8.809
    14   6 C        2.976    -0.021    28.537     8.763
    15   6 C        2.837     0.162    24.500     8.111
    16   8 O        0.857    -0.524    24.333     6.614
    17   6 C        2.976    -0.021    28.537     8.763
    18   6 C        2.925    -0.034    28.854     8.809
    19   6 C        2.915    -0.036    28.894     8.815
    20   6 C        2.918    -0.048    29.196     8.861
    21   6 C        2.923    -0.039    28.966     8.826
    22   6 C        2.985    -0.005    28.132     8.700
    23   6 C        2.986     0.004    27.923     8.668
    24   6 C        2.928    -0.039    28.964     8.826
    25   6 C        2.964     0.026    27.417     8.589
    26   6 C        3.758    -0.114    22.731     6.797
    27   6 C        2.923    -0.036    28.886     8.814
    28   6 C        2.918    -0.049    29.215     8.864
    29   6 C        2.928     0.059    26.687     8.472
    30   7 N        2.753    -0.010    21.448     6.878
    31   6 C        2.930     0.053    26.806     8.491
    32   6 C        2.919    -0.038    28.933     8.821
    33   6 C        2.928    -0.031    28.766     8.796
    34   6 C        2.972     0.017    27.625     8.621
    35   6 C        3.903     0.027    20.061     6.367
    36   6 C        3.761    -0.111    22.669     6.787
    37   6 C        3.761    -0.108    22.610     6.778
    38   6 C        3.761    -0.108    22.610     6.778
    39   6 C        2.926    -0.035    28.872     8.812
    40   6 C        2.919    -0.037    28.932     8.821
    41   1 H        0.925     0.062     2.179     2.308
    42   1 H        0.925     0.063     2.161     2.299
    43   1 H        0.925     0.048     2.346     2.395
    44   1 H        0.926     0.055     2.264     2.353
    45   1 H        0.926     0.053     2.285     2.364
    46   1 H        0.926     0.035     2.515     2.480
    47   1 H        0.925     0.021     2.720     2.579
    48   1 H        0.926     0.028     2.616     2.529
    49   1 H        0.926     0.026     2.639     2.540
    50   1 H        0.926     0.025     2.664     2.552
    51   1 H        0.926     0.025     2.664     2.552
    52   1 H        0.926     0.026     2.638     2.540
    53   1 H        0.926     0.028     2.616     2.529
    54   1 H        0.925     0.021     2.719     2.579
    55   1 H        0.926     0.035     2.516     2.480
    56   1 H        0.925     0.063     2.161     2.299
    57   1 H        0.925     0.062     2.178     2.308
    58   1 H        0.925     0.048     2.346     2.395
    59   1 H        0.926     0.055     2.263     2.352
    60   1 H        0.926     0.053     2.283     2.363
    61   1 H        0.926     0.045     2.388     2.416
    62   1 H        0.926     0.051     2.312     2.378
    63   1 H        0.925     0.039     2.458     2.452
    64   1 H        0.925     0.039     2.459     2.452
    65   1 H        0.925     0.041     2.436     2.441
    66   1 H        0.925     0.040     2.447     2.446
    67   1 H        0.925     0.043     2.414     2.430
    68   1 H        0.925     0.036     2.503     2.474
    69   1 H        0.925     0.043     2.414     2.430
    70   1 H        0.925     0.040     2.447     2.446
    71   1 H        0.925     0.036     2.501     2.473
    72   1 H        0.926     0.057     2.229     2.335
    73   1 H        0.926     0.045     2.386     2.415

molecular dipole:
                 x           y           z       tot (Debye)
 q only:        7.117      -0.002      -0.002
   full:        6.909      -0.003      -0.009      17.560

 projected vibrational frequencies (cm⁻¹)
eigval :       -0.00    -0.00     0.00     0.00     0.00     0.00
eigval :      -39.74    12.49    13.74    15.38    29.27    34.86
eigval :       40.84    55.24    58.57    64.64    71.93    79.49
eigval :       99.76   103.55   124.56   127.14   130.83   136.42
eigval :      173.54   183.90   211.19   212.80   217.64   220.36
eigval :      232.63   256.11   258.39   269.69   294.02   296.09
eigval :      306.67   312.59   315.09   331.73   339.12   356.83
eigval :      360.19   360.93   374.01   377.31   401.09   405.27
eigval :      419.04   422.57   432.38   438.94   442.49   454.24
eigval :      462.66   483.36   487.59   519.11   530.90   534.42
eigval :      544.15   555.46   555.73   579.72   589.57   607.29
eigval :      612.02   618.90   620.06   633.92   655.98   661.14
eigval :      677.79   693.62   696.14   703.23   737.03   744.08
eigval :      752.31   760.40   783.54   811.63   814.51   820.60
eigval :      853.19   854.33   855.64   869.32   876.58   878.73
eigval :      885.77   886.26   887.54   893.79   911.18   911.34
eigval :      913.35   916.91   917.31   919.61   927.25   928.09
eigval :      938.15   957.82   959.15   961.59   963.27   995.28
eigval :     1012.57  1016.92  1022.30  1023.86  1027.21  1033.61
eigval :     1034.25  1079.59  1087.97  1088.83  1107.80  1134.50
eigval :     1139.08  1142.34  1143.70  1164.32  1168.55  1173.67
eigval :     1180.77  1190.35  1192.85  1201.02  1205.88  1212.77
eigval :     1218.13  1224.62  1230.81  1231.87  1252.81  1253.63
eigval :     1256.79  1262.28  1270.49  1276.75  1287.05  1309.81
eigval :     1316.68  1322.70  1342.88  1345.08  1345.24  1349.38
eigval :     1385.54  1394.41  1396.78  1397.89  1402.23  1405.93
eigval :     1410.54  1417.94  1421.99  1426.31  1432.15  1439.99
eigval :     1450.24  1466.08  1466.31  1467.48  1470.87  1474.31
eigval :     1476.87  1480.50  1487.91  1488.83  1496.91  1501.64
eigval :     1511.16  1514.16  1514.42  1519.27  1531.93  1547.68
eigval :     1553.01  1565.83  1583.29  1583.68  1591.99  1597.49
eigval :     3000.13  3000.59  3019.28  3019.57  3023.81  3024.05
eigval :     3027.69  3028.01  3032.05  3033.61  3039.05  3045.91
eigval :     3049.11  3049.23  3049.35  3060.62  3060.80  3061.27
eigval :     3061.31  3074.67  3075.08  3084.86  3084.94  3085.16
eigval :     3086.68  3087.16  3087.52  3088.73  3088.92  3100.65
eigval :     3107.50  3108.29  3123.95

   temp. (K)  partition function   enthalpy   heat capacity  entropy
                                   cal/mol     cal/K/mol   cal/K/mol   J/K/mol
 298.15  VIB  0.242E+16            20246.693    127.745    125.247
         ROT  0.384E+08              888.752      2.981     37.688
         INT  0.929E+23            21135.445    130.726    162.935
         TR   0.115E+29             1481.254      4.968     44.610
         TOT                       22616.6993   135.6944   207.5451   868.3685

       T/K    H(0)-H(T)+PV         H(T)/Eh          T*S/Eh         G(T)/Eh
   ------------------------------------------------------------------------
    298.15    0.360420E-01    0.619501E+00    0.986114E-01    0.520889E+00
   ------------------------------------------------------------------------

         :::::::::::::::::::::::::::::::::::::::::::::::::::::
         ::                  THERMODYNAMIC                  ::
         :::::::::::::::::::::::::::::::::::::::::::::::::::::
         :: total free energy        -104.696635658998 Eh   ::
         ::.................................................::
         :: total energy             -105.217524927081 Eh   ::
         :: zero point energy           0.583458615798 Eh   ::
         :: G(RRHO) w/o ZPVE           -0.062569347715 Eh   ::
         :: G(RRHO) contrib.            0.520889268083 Eh   ::
         :::::::::::::::::::::::::::::::::::::::::::::::::::::

           -------------------------------------------------
          | TOTAL ENERGY             -105.217524927081 Eh   |
          | TOTAL ENTHALPY           -104.598024306827 Eh   |
          | TOTAL FREE ENERGY        -104.696635658998 Eh   |
          | GRADIENT NORM               0.000059271807 Eh/α |
          | HOMO-LUMO GAP               0.788970328141 eV   |
           -------------------------------------------------

 * finished run on 2025/09/11 at 23:31:33.292
