   * xtb version 6.7.1 (edcfbbe) compiled by 'albert@albert-system' on 2024-07-22

   ID    Z sym.   atoms
    1    6 C      1-15, 17-29, 31-40
    2    8 O      16
    3    7 N      30
    4    1 H      41-73

          program call               : xtb data2507/toluene/SIR-A/SIR-A_toluene_S0_crest.xyz --gfn 2 --gbsa toluene --ohess vtight --parallel 40 --molden --ceasefiles --namespace data2507/toluene/SIR-A/SIR-A_toluene_S0_finalOpt
      * Solvation model:               GBSA
        Solvent                        toluene
        Solvent mass                       9.2140E+01 g/mol
          :  Hamiltonian                  GFN2-xTB          :
 * total energy  :  -105.2929692 Eh     change       -0.1913378E-08 Eh
 * total energy  :  -105.2930396 Eh     change       -0.7040805E-04 Eh
 * total energy  :  -105.2930632 Eh     change       -0.2353237E-04 Eh
 * total energy  :  -105.2930696 Eh     change       -0.6461999E-05 Eh
 * total energy  :  -105.2930753 Eh     change       -0.5649361E-05 Eh
 * total energy  :  -105.2930786 Eh     change       -0.3311411E-05 Eh
 * total energy  :  -105.2930817 Eh     change       -0.3151919E-05 Eh
 * total energy  :  -105.2930862 Eh     change       -0.4445739E-05 Eh
 * total energy  :  -105.2930895 Eh     change       -0.3284435E-05 Eh
 * total energy  :  -105.2930882 Eh     change        0.1286931E-05 Eh
 * total energy  :  -105.2930929 Eh     change       -0.9933417E-06 Eh
 * total energy  :  -105.2930937 Eh     change       -0.7700259E-06 Eh
 * total energy  :  -105.2930945 Eh     change       -0.7942164E-06 Eh
 * total energy  :  -105.2930953 Eh     change       -0.8204731E-06 Eh
 * total energy  :  -105.2930962 Eh     change       -0.9135539E-06 Eh
 * total energy  :  -105.2930972 Eh     change       -0.1000538E-05 Eh
 * total energy  :  -105.2930984 Eh     change       -0.1155261E-05 Eh
 * total energy  :  -105.2930999 Eh     change       -0.1458938E-05 Eh
 * total energy  :  -105.2930999 Eh     change       -0.7756725E-08 Eh
   *** GEOMETRY OPTIMIZATION CONVERGED AFTER 22 ITERATIONS ***

 final structure:
================
73
 xtb: 6.7.1 (edcfbbe)
C           -1.54655914916800        5.00445863361080       -0.12682005680153
C           -0.83126146495892        3.68755758053250       -0.11527070478985
C            0.55742296047669        3.62585507639877       -0.14001465817962
C            1.21746376877124        2.41619696496463       -0.10663844254895
C            0.51057461655781        1.21141592644486       -0.04241322822144
C           -0.88456539635605        1.26342449323604       -0.03360360628448
C           -1.52879224261898        2.49089733108382       -0.06560848267002
C           -1.74021992228022        0.00851003576050       -0.00118862280173
C           -2.58438542227454       -0.01111896284306       -1.25219201995994
C           -1.93895234311622       -0.00854390024405       -2.48487414866388
C           -2.65577151723063       -0.03116307412930       -3.66486492253081
C           -4.04437703414168       -0.05830602329716       -3.63702117029419
C           -4.69673226152797       -0.06059114906568       -2.42437329447672
C           -3.97960103141446       -0.03654277073572       -1.22360784046505
C           -4.73451198107599       -0.03643094597372        0.04084661577366
O           -5.96166480384776       -0.06581533348273        0.05818590417451
C           -3.94502443595410        0.00323371390935        1.28333863303968
C           -4.62903031718255        0.01726479080838        2.50344925537349
C           -3.94383282610102        0.05461013496067        3.69724221440585
C           -2.55494920441273        0.07754621765975        3.68628980820300
C           -1.87068956163563        0.06274125694983        2.48702789415390
C           -2.54952969359516        0.02671241004595        1.27293481517339
C           -0.89077093249174       -1.25188473028203        0.00967376833613
C           -1.54095450707668       -2.47666509978653        0.02727658629788
C           -0.84947711546955       -3.67706310779143        0.06198045495633
C           -1.56941898427256       -4.99150738984608        0.06024847258950
C            0.53969779704069       -3.62239784857569        0.08815584954351
C            1.20544065784028       -2.41576054018138        0.06942921087417
C            0.50452440998344       -1.20668663553042        0.01905442522437
N            1.18387816707051        0.00076837672099       -0.00538051657578
C            2.60856730907511       -0.00103303189686        0.00563265041671
C            3.32106532290754       -0.26074654267625       -1.15781066499516
C            4.70202647231283       -0.25994923262341       -1.13711584778552
C            5.41558046355775        0.00386383397627        0.03093884350376
C            6.93632729961115       -0.00536238459438       -0.00230896124095
C            7.55893553370913        0.33141924852551        1.35606778662435
C            7.42316545745858        1.03533677142368       -1.02195351425807
C            7.41637225996344       -1.40428440641915       -0.41728730931225
C            4.68580913570914        0.26279559475519        1.18564274599256
C            3.30143383164594        0.25866982468857        1.17829472964333
H           -1.05722392327105        5.70322626817961       -0.80262874139107
H           -1.54035773144983        5.44362357927231        0.87177700885764
H           -2.58175644622351        4.87988787232411       -0.43593990428943
H            1.13227176009742        4.53953861399822       -0.18863210727574
H            2.29605930044092        2.39797910926753       -0.13443838529457
H           -2.61047387937692        2.50472178008235       -0.05396651091259
H           -0.85927168827578        0.01261751086306       -2.51047478742448
H           -2.13445323276229       -0.02804364003412       -4.61075329876961
H           -4.60798309596715       -0.07681808473491       -4.55776385918845
H           -5.77583614441235       -0.08053599468148       -2.36644709151352
H           -5.70934327101970       -0.00189360526885        2.47560920764315
H           -4.48208367534895        0.06563119114582        4.63314247087012
H           -2.00785411292197        0.10622982736079        4.61706057916903
H           -0.79073986988491        0.07879030766888        2.48305990929668
H           -2.62270035463846       -2.48517776638047        0.01696750404591
H           -1.49894983632996       -5.45757360739567       -0.92340124866908
H           -1.12776241088942       -5.67324153947217        0.78498828016353
H           -2.62174832524343       -4.85672308837241        0.29896989955784
H            1.10976890045680       -4.53957345308000        0.12593738726924
H            2.28408498269059       -2.40314559748100        0.09747363178822
H            2.78818172028005       -0.46709592361296       -2.07478632532117
H            5.22719713177826       -0.46784208161214       -2.05667936509605
H            7.26317029089564        1.32441373399353        1.68728479984022
H            7.27386614168072       -0.39779956982766        2.11103034747581
H            8.64357471312333        0.31624169464405        1.26975685750130
H            7.07693650861588        0.80323242084116       -2.02524758885949
H            8.51066812405333        1.06224922994861       -1.03623999107723
H            7.05742443963717        2.02496086153107       -0.75472238061695
H            8.50366074038915       -1.43490284187790       -0.43774272719758
H            7.04983315879725       -1.67335849401237       -1.40416095379480
H            7.06386437985819       -2.14998468348262        0.29283953905469
H            5.18596024274533        0.47174900777974        2.11672782857156
H            2.75348232358734        0.46380324334606        2.08663335354485

          :  Hamiltonian                  GFN2-xTB          :
         :: gradient norm              0.000094885425 Eh/a0 ::
         :: HOMO-LUMO gap              1.394138582056 eV    ::
         :: SCC energy              -107.160994165736 Eh    ::
         :: -> dispersion             -0.101875449520 Eh    ::
         :: -> Gsolv                  -0.044346100490 Eh    ::
         :: repulsion energy           1.867894299110 Eh    ::

    * Orbital Energies and Occupations

         #    Occupation            Energy/Eh            Energy/eV
      -------------------------------------------------------------
         1        2.0000           -0.7025043             -19.1161
       ...           ...                  ...                  ...
        86        2.0000           -0.4204496             -11.4410
        87        2.0000           -0.4167369             -11.3400
        88        2.0000           -0.4159274             -11.3180
        89        2.0000           -0.4138467             -11.2613
        90        2.0000           -0.4106277             -11.1737
        91        2.0000           -0.4082846             -11.1100
        92        2.0000           -0.4013172             -10.9204
        93        2.0000           -0.3973999             -10.8138
        94        2.0000           -0.3970995             -10.8056
        95        2.0000           -0.3957444             -10.7688
        96        2.0000           -0.3952625             -10.7556
        97        2.0000           -0.3871923             -10.5360
        98        2.0000           -0.3445301              -9.3751 (HOMO)
        99                         -0.2932964              -7.9810 (LUMO)
       100                         -0.2404814              -6.5438
       101                         -0.2333437              -6.3496
       102                         -0.2321660              -6.3176
       103                         -0.2297887              -6.2529
       104                         -0.2278068              -6.1989
       105                         -0.2222227              -6.0470
       106                         -0.2208766              -6.0104
       107                         -0.2168435              -5.9006
       108                         -0.1895809              -5.1588
       109                         -0.1787614              -4.8643
       ...                                ...                  ...
       193                          0.6914518              18.8154
      -------------------------------------------------------------
                  HL-Gap            0.0512337 Eh            1.3941 eV

     #   Z          covCN         q      C6AA      α(0)
     1   6 C        3.757    -0.108    22.610     6.779
     2   6 C        2.964     0.004    27.930     8.669
     3   6 C        2.925    -0.043    29.065     8.841
     4   6 C        2.922    -0.059    29.478     8.904
     5   6 C        2.925     0.057    26.725     8.478
     6   6 C        2.989    -0.014    28.346     8.733
     7   6 C        2.931    -0.046    29.145     8.854
     8   6 C        3.928     0.015    20.255     6.396
     9   6 C        2.987     0.018    27.600     8.618
    10   6 C        2.924    -0.032    28.791     8.799
    11   6 C        2.919    -0.022    28.545     8.761
    12   6 C        2.917    -0.030    28.752     8.793
    13   6 C        2.925    -0.019    28.493     8.754
    14   6 C        2.976    -0.023    28.582     8.770
    15   6 C        2.832     0.223    23.308     7.911
    16   8 O        0.858    -0.446    22.629     6.378
    17   6 C        2.976    -0.023    28.581     8.769
    18   6 C        2.925    -0.019    28.492     8.754
    19   6 C        2.917    -0.030    28.752     8.793
    20   6 C        2.919    -0.022    28.546     8.761
    21   6 C        2.924    -0.032    28.794     8.800
    22   6 C        2.987     0.018    27.602     8.618
    23   6 C        2.989    -0.014    28.343     8.733
    24   6 C        2.931    -0.046    29.147     8.854
    25   6 C        2.964     0.004    27.933     8.669
    26   6 C        3.757    -0.108    22.608     6.779
    27   6 C        2.925    -0.043    29.067     8.841
    28   6 C        2.922    -0.059    29.478     8.904
    29   6 C        2.925     0.057    26.722     8.477
    30   7 N        2.752    -0.073    22.664     7.071
    31   6 C        2.926     0.062    26.621     8.461
    32   6 C        2.920    -0.041    29.024     8.835
    33   6 C        2.927    -0.034    28.856     8.809
    34   6 C        2.972     0.011    27.769     8.644
    35   6 C        3.902     0.026    20.079     6.369
    36   6 C        3.761    -0.109    22.630     6.781
    37   6 C        3.761    -0.106    22.578     6.774
    38   6 C        3.761    -0.106    22.575     6.773
    39   6 C        2.925    -0.039    28.962     8.825
    40   6 C        2.921    -0.041    29.026     8.835
    41   1 H        0.925     0.046     2.371     2.408
    42   1 H        0.924     0.047     2.352     2.399
    43   1 H        0.925     0.039     2.458     2.452
    44   1 H        0.926     0.034     2.530     2.488
    45   1 H        0.926     0.032     2.552     2.498
    46   1 H        0.925     0.018     2.759     2.598
    47   1 H        0.926     0.039     2.458     2.452
    48   1 H        0.926     0.047     2.361     2.403
    49   1 H        0.926     0.044     2.397     2.421
    50   1 H        0.926     0.048     2.343     2.394
    51   1 H        0.926     0.048     2.342     2.393
    52   1 H        0.926     0.044     2.397     2.421
    53   1 H        0.926     0.047     2.360     2.402
    54   1 H        0.926     0.039     2.457     2.451
    55   1 H        0.925     0.018     2.766     2.601
    56   1 H        0.924     0.048     2.351     2.398
    57   1 H        0.925     0.046     2.367     2.406
    58   1 H        0.925     0.039     2.466     2.456
    59   1 H        0.926     0.034     2.527     2.486
    60   1 H        0.926     0.033     2.547     2.496
    61   1 H        0.926     0.037     2.495     2.470
    62   1 H        0.926     0.041     2.439     2.442
    63   1 H        0.925     0.038     2.482     2.464
    64   1 H        0.925     0.038     2.482     2.464
    65   1 H        0.925     0.039     2.456     2.451
    66   1 H        0.925     0.038     2.471     2.458
    67   1 H        0.925     0.041     2.438     2.442
    68   1 H        0.925     0.034     2.529     2.487
    69   1 H        0.925     0.041     2.435     2.440
    70   1 H        0.925     0.038     2.473     2.459
    71   1 H        0.925     0.034     2.529     2.487
    72   1 H        0.926     0.048     2.348     2.396
    73   1 H        0.926     0.037     2.495     2.470

molecular dipole:
                 x           y           z       tot (Debye)
 q only:        3.258       0.041      -0.024
   full:        3.169       0.039      -0.031       8.056

 projected vibrational frequencies (cm⁻¹)
eigval :       -0.00    -0.00     0.00     0.00     0.00     0.00
eigval :       -5.39    12.20    18.77    19.75    24.16    28.00
eigval :       31.80    40.95    55.21    58.48    61.54    85.86
eigval :      102.53   103.29   116.51   122.88   126.46   135.88
eigval :      172.19   187.79   208.59   211.73   217.68   219.81
eigval :      232.30   255.26   256.62   270.65   292.30   299.34
eigval :      314.26   316.42   324.08   335.57   342.70   360.18
eigval :      362.16   368.29   375.71   380.07   398.06   412.85
eigval :      418.23   421.13   433.96   438.91   443.29   451.62
eigval :      465.18   467.58   489.19   519.16   522.03   540.17
eigval :      547.51   563.50   579.00   599.48   607.70   612.11
eigval :      624.11   629.17   634.65   646.41   665.13   666.73
eigval :      687.44   702.39   704.27   723.20   738.01   743.45
eigval :      778.47   786.87   802.18   813.61   816.50   821.40
eigval :      859.33   872.60   878.25   881.89   884.89   886.37
eigval :      887.85   898.97   915.01   915.76   916.45   923.16
eigval :      923.87   924.40   929.48   929.86   931.32   931.96
eigval :      953.57   959.32   960.44   961.75   963.47   996.89
eigval :     1014.23  1018.87  1028.82  1031.66  1033.18  1033.65
eigval :     1034.84  1090.40  1093.64  1094.42  1117.01  1137.58
eigval :     1141.28  1142.22  1144.50  1176.17  1176.56  1182.90
eigval :     1184.92  1196.09  1199.84  1214.23  1218.05  1225.24
eigval :     1226.40  1231.45  1236.52  1253.03  1264.06  1266.30
eigval :     1267.26  1273.19  1275.16  1277.81  1288.97  1310.28
eigval :     1325.14  1331.48  1333.76  1336.70  1337.62  1361.45
eigval :     1395.51  1400.97  1402.23  1402.94  1406.67  1417.63
eigval :     1421.58  1422.27  1425.01  1426.40  1461.05  1466.15
eigval :     1478.59  1480.29  1481.50  1483.66  1485.53  1487.91
eigval :     1488.09  1490.30  1498.96  1501.85  1505.26  1511.07
eigval :     1515.55  1564.74  1566.48  1568.76  1575.94  1583.10
eigval :     1589.58  1590.18  1600.04  1605.28  1613.17  1632.81
eigval :     2988.42  2992.04  3021.88  3021.90  3022.00  3025.40
eigval :     3025.46  3026.36  3029.78  3031.94  3036.51  3037.54
eigval :     3037.99  3045.33  3048.54  3059.73  3065.97  3074.70
eigval :     3074.94  3076.27  3076.49  3077.57  3079.46  3079.73
eigval :     3080.27  3086.59  3086.99  3092.79  3094.03  3094.88
eigval :     3097.44  3098.62  3117.46

   temp. (K)  partition function   enthalpy   heat capacity  entropy
                                   cal/mol     cal/K/mol   cal/K/mol   J/K/mol
 298.15  VIB  0.160E+18            20753.222    126.739    130.424
         ROT  0.385E+08              888.752      2.981     37.689
         INT  0.616E+25            21641.975    129.720    168.112
         TR   0.115E+29             1481.254      4.968     44.610
         TOT                       23123.2285   134.6880   212.7224   890.0304

       T/K    H(0)-H(T)+PV         H(T)/Eh          T*S/Eh         G(T)/Eh
   ------------------------------------------------------------------------
    298.15    0.368492E-01    0.623326E+00    0.101071E+00    0.522255E+00
   ------------------------------------------------------------------------

         :::::::::::::::::::::::::::::::::::::::::::::::::::::
         ::                  THERMODYNAMIC                  ::
         :::::::::::::::::::::::::::::::::::::::::::::::::::::
         :: total free energy        -104.770844670093 Eh   ::
         ::.................................................::
         :: total energy             -105.293099861193 Eh   ::
         :: zero point energy           0.586477238947 Eh   ::
         :: G(RRHO) w/o ZPVE           -0.064222047846 Eh   ::
         :: G(RRHO) contrib.            0.522255191100 Eh   ::
         :::::::::::::::::::::::::::::::::::::::::::::::::::::

           -------------------------------------------------
          | TOTAL ENERGY             -105.293099861193 Eh   |
          | TOTAL ENTHALPY           -104.669773412060 Eh   |
          | TOTAL FREE ENERGY        -104.770844670093 Eh   |
          | GRADIENT NORM               0.000094819663 Eh/α |
          | HOMO-LUMO GAP               1.394140204617 eV   |
           -------------------------------------------------

 * finished run on 2025/09/11 at 23:31:27.116
