   * xtb version 6.7.1 (edcfbbe) compiled by 'albert@albert-system' on 2024-07-22

   ID    Z sym.   atoms
    1    6 C      1-15, 17-29, 31-40
    2    8 O      16
    3    7 N      30
    4    1 H      41-73

          program call               : xtb data2507/toluene/SIR-A/SIR-A_toluene_T1_crest.xyz --gfn 2 --uhf 2 --gbsa toluene --ohess vtight --parallel 40 --molden --ceasefiles --namespace data2507/toluene/SIR-A/SIR-A_toluene_T1_finalOpt
      * Solvation model:               GBSA
        Solvent                        toluene
        Solvent mass                       9.2140E+01 g/mol
          :  Hamiltonian                  GFN2-xTB          :
 * total energy  :  -105.2173304 Eh     change       -0.1018410E-07 Eh
 * total energy  :  -105.2174785 Eh     change       -0.1480966E-03 Eh
 * total energy  :  -105.2175214 Eh     change       -0.4289640E-04 Eh
 * total energy  :  -105.2175259 Eh     change       -0.4466091E-05 Eh
 * total energy  :  -105.2175235 Eh     change        0.2386179E-05 Eh
 * total energy  :  -105.2175269 Eh     change       -0.3344267E-05 Eh
 * total energy  :  -105.2175280 Eh     change       -0.1157639E-05 Eh
 * total energy  :  -105.2175285 Eh     change       -0.5220626E-06 Eh
 * total energy  :  -105.2175292 Eh     change       -0.6489986E-06 Eh
 * total energy  :  -105.2175297 Eh     change       -0.4793269E-06 Eh
 * total energy  :  -105.2175325 Eh     change       -0.6055633E-06 Eh
 * total energy  :  -105.2175333 Eh     change       -0.7881660E-06 Eh
 * total energy  :  -105.2175345 Eh     change       -0.1285031E-05 Eh
 * total energy  :  -105.2175368 Eh     change       -0.2237902E-05 Eh
 * total energy  :  -105.2175394 Eh     change       -0.2657020E-05 Eh
 * total energy  :  -105.2175409 Eh     change       -0.1467619E-05 Eh
 * total energy  :  -105.2175419 Eh     change       -0.9730045E-06 Eh
 * total energy  :  -105.2175427 Eh     change       -0.7784899E-06 Eh
 * total energy  :  -105.2175427 Eh     change       -0.4506887E-08 Eh
   *** GEOMETRY OPTIMIZATION CONVERGED AFTER 22 ITERATIONS ***

 final structure:
================
73
 xtb: 6.7.1 (edcfbbe)
C           -1.51128167121964        4.98977707785050        0.06963366519517
C           -0.81364541766807        3.66920963767496        0.04612733148765
C            0.58322822250972        3.60729833744292        0.05944306354748
C            1.24000177509380        2.40160133765130        0.04265864716918
C            0.52143621459124        1.19541679869102        0.00887689932001
C           -0.88185395634957        1.24525073344400        0.00792386361166
C           -1.51916342314299        2.47720000738483        0.02311785703304
C           -1.72501637449406       -0.00273129503229       -0.00035851975360
C           -2.57324551451236        0.00583125588912       -1.26619957106588
C           -1.91220362256605       -0.00369456728966       -2.48134914350555
C           -2.60858219857466        0.00817038192600       -3.68050871156202
C           -3.99919322822621        0.03113227834946       -3.66150644112202
C           -4.67175429945970        0.04012653521693       -2.46540250813047
C           -3.97528132584000        0.02698981990359       -1.23765082077630
C           -4.73694707046957        0.03534304573907       -0.01203895042621
O           -6.01038586687533        0.05460119674370       -0.01681135363894
C           -3.98485957613821        0.01948266881279        1.21954253627002
C           -4.69071200341463        0.02523284971029        2.44191206838008
C           -4.02720722097230        0.01132536759529        3.64306706385750
C           -2.63675617217607       -0.00955318669668        3.67254529099954
C           -1.93125430954568       -0.01501093553279        2.47866756336050
C           -2.58301785852450       -0.00107845880837        1.25851007993982
C           -0.88943409955673       -1.25553553932375       -0.00493114309924
C           -1.53362836696392       -2.48401818986444       -0.00789585961459
C           -0.83486092994166       -3.68006279714052       -0.02994754537137
C           -1.53944559770420       -4.99715838370344       -0.03136016810109
C            0.56217825594886       -3.62611489169213       -0.05707506911420
C            1.22578541461067       -2.42406707591818       -0.05330862178560
C            0.51418329858174       -1.21379460713550       -0.01862240004177
N            1.18479279418857       -0.01120528801213       -0.01010431338938
C            2.61215735249080       -0.01439217276320       -0.01666427364787
C            3.30612703875859        0.18977036901798       -1.19957441802686
C            4.69046558693509        0.19170155350008       -1.19934297367430
C            5.41486941362143       -0.00748575804252       -0.02904844168484
C            6.93443436855379       -0.00239533312487        0.01309915785022
C            7.40005381473135        1.11966305179634        0.95353653031281
C            7.56235642272364        0.23509764696852       -1.36359621403746
C            7.42592920193544       -1.35990964238586        0.53750864637739
C            4.69640713421715       -0.21406030232959        1.14788956275207
C            3.31552722900442       -0.21918656187003        1.16315078989257
H           -1.18020809683370        5.60883433706028       -0.76326103108793
H           -1.27538418409537        5.52213404673733        0.99093279373831
H           -2.58868509712284        4.86209401502701        0.00726343785130
H            1.15357054937322        4.52371041713356        0.08558781408897
H            2.31801717645745        2.37845132064917        0.05886739900696
H           -2.59973996701488        2.49146822306838        0.01951818937308
H           -0.83088202371077       -0.02127265919242       -2.49302180738784
H           -2.07289857437369        0.00021069209506       -4.61761523723195
H           -4.55505827762122        0.04146643952296       -4.58864898875316
H           -5.75179370709968        0.05727845258312       -2.42081544119799
H           -5.77039827701716        0.04155665424378        2.38929239541684
H           -4.59012777815404        0.01688022199586        4.56599148257966
H           -2.10822775894414       -0.02023530021972        4.61369941090697
H           -0.84993179937405       -0.02948927320840        2.49811166258843
H           -2.61421158732382       -2.49205241347528        0.00498626976712
H           -1.26036243965761       -5.57370356271708       -0.91271882080754
H           -1.25563716736399       -5.57734521986287        0.84626524079279
H           -2.61771138752053       -4.86194154056690       -0.02773130563869
H            1.12712052188625       -4.54586221846364       -0.08331796177880
H            2.30374728198690       -2.40681089717944       -0.07988784357196
H            2.76162575623684        0.34833947675785       -2.11864282430832
H            5.19487737290183        0.35324429355444       -2.13703243836356
H            7.02871684828889        2.08172112087780        0.60581364629167
H            7.04519929161775        0.96283722523413        1.96834991683927
H            8.48686345782166        1.15839507045313        0.97640662639490
H            7.28150778066243       -0.54797357866185       -2.06424072467920
H            8.64645659547173        0.22691538081268       -1.27139369080857
H            7.26943169851567        1.20134846455044       -1.76796643594497
H            8.51332803410126       -1.37834187185856        0.55792509145038
H            7.08070013136229       -2.16285366369593       -0.11092524295188
H            7.06524679860714       -1.55364970820916        1.54379361359148
H            5.21690986934691       -0.37286844594373        2.07913162542424
H            2.77791816422754       -0.37969640813850        2.08587549741761

          :  Hamiltonian                  GFN2-xTB          :
         :: gradient norm              0.000056314719 Eh/a0 ::
         :: HOMO-LUMO gap              0.788881022988 eV    ::
         :: SCC energy              -107.075996505921 Eh    ::
         :: -> dispersion             -0.101642065862 Eh    ::
         :: -> Gsolv                  -0.057608496435 Eh    ::
         :: repulsion energy           1.858453845697 Eh    ::

    * Orbital Energies and Occupations

         #    Occupation            Energy/Eh            Energy/eV
      -------------------------------------------------------------
         1        2.0000           -0.6932392             -18.8640
       ...           ...                  ...                  ...
        87        2.0000           -0.4221559             -11.4874
        88        2.0000           -0.4200924             -11.4313
        89        2.0000           -0.4113873             -11.1944
        90        2.0000           -0.4080047             -11.1024
        91        2.0000           -0.4073794             -11.0854
        92        2.0000           -0.4047041             -11.0126
        93        2.0000           -0.3957513             -10.7689
        94        2.0000           -0.3955824             -10.7643
        95        2.0000           -0.3933217             -10.7028
        96        2.0000           -0.3915782             -10.6554
        97        1.9724           -0.3674865              -9.9998
        98        1.0276           -0.3607220              -9.8157
        99        1.0000           -0.2762048              -7.5159 (HOMO)
       100        0.0000           -0.2472137              -6.7270 (LUMO)
       101                         -0.2413635              -6.5678
       102                         -0.2385506              -6.4913
       103                         -0.2367300              -6.4418
       104                         -0.2349124              -6.3923
       105                         -0.2176603              -5.9228
       106                         -0.2171798              -5.9098
       107                         -0.2135451              -5.8109
       108                         -0.2091107              -5.6902
       109                         -0.1569417              -4.2706
       110                         -0.1126451              -3.0652
       ...                                ...                  ...
       193                          0.6856650              18.6579
      -------------------------------------------------------------
                  HL-Gap            0.0289911 Eh            0.7889 eV

     #   Z          covCN         q      C6AA      α(0)
     1   6 C        3.758    -0.114    22.731     6.797
     2   6 C        2.964     0.026    27.417     8.589
     3   6 C        2.923    -0.036    28.886     8.814
     4   6 C        2.918    -0.049    29.214     8.863
     5   6 C        2.928     0.059    26.686     8.472
     6   6 C        2.987     0.004    27.922     8.668
     7   6 C        2.928    -0.039    28.964     8.826
     8   6 C        3.929     0.021    20.166     6.382
     9   6 C        2.985    -0.005    28.131     8.700
    10   6 C        2.923    -0.039    28.967     8.826
    11   6 C        2.918    -0.048    29.196     8.861
    12   6 C        2.915    -0.036    28.894     8.815
    13   6 C        2.925    -0.034    28.854     8.809
    14   6 C        2.976    -0.021    28.537     8.763
    15   6 C        2.837     0.162    24.500     8.111
    16   8 O        0.857    -0.524    24.332     6.613
    17   6 C        2.976    -0.021    28.536     8.763
    18   6 C        2.925    -0.034    28.854     8.809
    19   6 C        2.915    -0.036    28.893     8.814
    20   6 C        2.918    -0.048    29.195     8.860
    21   6 C        2.923    -0.039    28.965     8.826
    22   6 C        2.985    -0.005    28.132     8.700
    23   6 C        2.986     0.004    27.923     8.668
    24   6 C        2.928    -0.039    28.962     8.826
    25   6 C        2.964     0.026    27.416     8.588
    26   6 C        3.758    -0.114    22.732     6.797
    27   6 C        2.923    -0.036    28.886     8.814
    28   6 C        2.918    -0.049    29.214     8.863
    29   6 C        2.928     0.059    26.686     8.472
    30   7 N        2.753    -0.010    21.451     6.879
    31   6 C        2.930     0.053    26.807     8.491
    32   6 C        2.919    -0.037    28.931     8.820
    33   6 C        2.926    -0.035    28.873     8.812
    34   6 C        2.972     0.017    27.626     8.621
    35   6 C        3.903     0.027    20.061     6.367
    36   6 C        3.761    -0.108    22.609     6.778
    37   6 C        3.761    -0.111    22.669     6.787
    38   6 C        3.761    -0.108    22.611     6.779
    39   6 C        2.928    -0.031    28.766     8.796
    40   6 C        2.919    -0.037    28.932     8.821
    41   1 H        0.925     0.062     2.172     2.305
    42   1 H        0.925     0.063     2.166     2.301
    43   1 H        0.925     0.048     2.348     2.396
    44   1 H        0.926     0.055     2.263     2.352
    45   1 H        0.926     0.053     2.285     2.364
    46   1 H        0.926     0.035     2.517     2.481
    47   1 H        0.925     0.021     2.719     2.579
    48   1 H        0.926     0.028     2.615     2.529
    49   1 H        0.926     0.026     2.638     2.540
    50   1 H        0.926     0.025     2.663     2.552
    51   1 H        0.926     0.025     2.664     2.552
    52   1 H        0.926     0.026     2.638     2.540
    53   1 H        0.926     0.028     2.616     2.529
    54   1 H        0.925     0.021     2.720     2.579
    55   1 H        0.926     0.035     2.515     2.480
    56   1 H        0.925     0.062     2.171     2.304
    57   1 H        0.925     0.063     2.166     2.302
    58   1 H        0.925     0.048     2.347     2.396
    59   1 H        0.926     0.055     2.262     2.352
    60   1 H        0.926     0.053     2.285     2.364
    61   1 H        0.926     0.045     2.387     2.416
    62   1 H        0.926     0.057     2.229     2.335
    63   1 H        0.925     0.036     2.503     2.474
    64   1 H        0.925     0.040     2.447     2.446
    65   1 H        0.925     0.043     2.414     2.430
    66   1 H        0.925     0.039     2.459     2.452
    67   1 H        0.925     0.041     2.436     2.441
    68   1 H        0.925     0.039     2.458     2.452
    69   1 H        0.925     0.043     2.415     2.430
    70   1 H        0.925     0.036     2.501     2.473
    71   1 H        0.925     0.040     2.447     2.446
    72   1 H        0.926     0.051     2.312     2.378
    73   1 H        0.926     0.045     2.389     2.417

molecular dipole:
                 x           y           z       tot (Debye)
 q only:        7.114      -0.055       0.024
   full:        6.907      -0.055       0.033      17.556

 projected vibrational frequencies (cm⁻¹)
eigval :       -0.00    -0.00    -0.00    -0.00     0.00     0.00
eigval :       11.69    13.57    14.62    29.50    31.36    37.79
eigval :       42.06    51.26    57.79    64.41    66.71    81.58
eigval :      102.97   103.37   125.40   127.46   132.82   136.23
eigval :      176.00   186.99   212.23   213.64   221.41   222.60
eigval :      233.83   255.99   260.16   270.05   294.41   296.85
eigval :      307.02   312.87   317.25   333.06   339.30   357.30
eigval :      360.75   361.21   374.28   376.04   401.20   405.40
eigval :      419.23   422.66   432.18   439.14   442.32   455.21
eigval :      462.68   483.35   487.98   518.14   530.66   534.66
eigval :      543.77   555.43   555.72   578.54   589.57   607.19
eigval :      612.01   618.84   619.85   634.05   655.94   661.21
eigval :      677.87   693.36   695.67   702.85   737.43   744.12
eigval :      752.41   760.64   783.08   812.88   815.82   817.69
eigval :      852.94   854.06   855.80   865.25   876.89   878.97
eigval :      886.14   886.32   888.43   894.30   909.80   910.70
eigval :      910.95   917.51   918.22   919.68   925.35   927.06
eigval :      938.11   957.88   960.27   962.57   965.50   995.70
eigval :     1013.14  1017.75  1022.66  1023.19  1027.23  1034.45
eigval :     1035.37  1079.51  1088.09  1088.93  1107.72  1134.45
eigval :     1139.38  1142.29  1144.31  1164.19  1168.49  1173.72
eigval :     1179.84  1190.24  1193.17  1200.14  1205.83  1212.73
eigval :     1218.03  1225.22  1230.99  1231.51  1252.60  1253.72
eigval :     1256.14  1262.14  1270.95  1276.20  1286.93  1309.60
eigval :     1316.72  1322.79  1343.05  1345.20  1345.47  1349.62
eigval :     1385.48  1394.42  1396.88  1397.54  1403.38  1406.54
eigval :     1410.24  1417.89  1422.02  1427.48  1433.04  1440.10
eigval :     1450.08  1466.22  1466.87  1467.68  1471.19  1474.06
eigval :     1476.76  1480.73  1488.44  1489.24  1497.40  1502.08
eigval :     1511.59  1514.44  1514.85  1519.35  1531.80  1547.69
eigval :     1553.18  1565.87  1583.45  1583.76  1592.28  1597.57
eigval :     3002.44  3003.00  3016.25  3017.45  3023.98  3024.21
eigval :     3028.06  3028.15  3032.39  3033.88  3039.19  3046.36
eigval :     3049.50  3050.16  3050.43  3060.31  3060.78  3061.26
eigval :     3061.31  3074.54  3074.96  3084.81  3085.16  3085.35
eigval :     3087.03  3087.09  3087.47  3088.76  3088.96  3100.63
eigval :     3108.35  3109.16  3123.90

   temp. (K)  partition function   enthalpy   heat capacity  entropy
                                   cal/mol     cal/K/mol   cal/K/mol   J/K/mol
 298.15  VIB  0.180E+17            20775.851    128.802    129.409
         ROT  0.384E+08              888.752      2.981     37.688
         INT  0.692E+24            21664.604    131.782    167.097
         TR   0.115E+29             1481.254      4.968     44.610
         TOT                       23145.8575   136.7506   211.7074   885.7836

       T/K    H(0)-H(T)+PV         H(T)/Eh          T*S/Eh         G(T)/Eh
   ------------------------------------------------------------------------
    298.15    0.368853E-01    0.620492E+00    0.100589E+00    0.519903E+00
   ------------------------------------------------------------------------

         :::::::::::::::::::::::::::::::::::::::::::::::::::::
         ::                  THERMODYNAMIC                  ::
         :::::::::::::::::::::::::::::::::::::::::::::::::::::
         :: total free energy        -104.697640019007 Eh   ::
         ::.................................................::
         :: total energy             -105.217542658967 Eh   ::
         :: zero point energy           0.583606368418 Eh   ::
         :: G(RRHO) w/o ZPVE           -0.063703728458 Eh   ::
         :: G(RRHO) contrib.            0.519902639960 Eh   ::
         :::::::::::::::::::::::::::::::::::::::::::::::::::::

           -------------------------------------------------
          | TOTAL ENERGY             -105.217542658967 Eh   |
          | TOTAL ENTHALPY           -104.597051018851 Eh   |
          | TOTAL FREE ENERGY        -104.697640019007 Eh   |
          | GRADIENT NORM               0.000057341190 Eh/α |
          | HOMO-LUMO GAP               0.788887586720 eV   |
           -------------------------------------------------

 * finished run on 2025/09/11 at 23:36:23.363
