   * xtb version 6.7.1 (edcfbbe) compiled by 'albert@albert-system' on 2024-07-22

   ID    Z sym.   atoms
    1    6 C      1-11, 13, 15-19
    2    7 N      12, 14
    3    1 H      20-29

          program call               : xtb data2507/toluene/PyI/PyI_toluene_S0_crest.xyz --gfn 2 --gbsa toluene --ohess vtight --parallel 40 --molden --ceasefiles --namespace data2507/toluene/PyI/PyI_toluene_S0_finalOpt
      * Solvation model:               GBSA
        Solvent                        toluene
        Solvent mass                       9.2140E+01 g/mol
          :  Hamiltonian                  GFN2-xTB          :
 * total energy  :   -47.4216862 Eh     change       -0.1000018E-08 Eh
 * total energy  :   -47.4216940 Eh     change       -0.7826709E-05 Eh
 * total energy  :   -47.4216956 Eh     change       -0.1616538E-05 Eh
 * total energy  :   -47.4216962 Eh     change       -0.5878500E-06 Eh
 * total energy  :   -47.4216966 Eh     change       -0.3804449E-06 Eh
 * total energy  :   -47.4216968 Eh     change       -0.2114677E-06 Eh
 * total energy  :   -47.4216969 Eh     change       -0.1581406E-06 Eh
 * total energy  :   -47.4216971 Eh     change       -0.1150948E-06 Eh
 * total energy  :   -47.4216971 Eh     change       -0.8774252E-07 Eh
   *** GEOMETRY OPTIMIZATION CONVERGED AFTER 9 ITERATIONS ***

 final structure:
================
29
 xtb: 6.7.1 (edcfbbe)
C            0.59613182058059        3.53176122275619       -0.00261759392455
C            1.80076033751758        2.85680065294394       -0.00066084126240
C            1.84231375348543        1.45914254159396        0.00078832550480
C            3.07968884715689        0.74982537305297        0.00280435624460
C            3.11356853172166       -0.60197609743091        0.00282522862842
C            1.91240042077365       -1.37116642067872        0.00081134766846
C            1.94092270724963       -2.76930631227569       -0.00065286644867
C            0.77169115891509       -3.50251963393517       -0.00272136416351
C           -0.45696233679877       -2.86321976717711       -0.00256019890877
C           -0.52774850146776       -1.47237235080701       -0.00086358401655
C           -1.74172110222618       -0.73305491854532       -0.00005673003439
N           -3.04955416503229       -1.14111268191208        0.00131446665707
C           -3.80549515265519       -0.01089876261042        0.00213850971630
N           -3.09292104571598        1.07756405339255        0.00123098973391
C           -1.79078901608841        0.65882170909467       -0.00008757195017
C           -0.59743109255919        1.44104568778217       -0.00087519863046
C           -0.59895321915272        2.83160202727422       -0.00246444085364
C            0.62921942138601        0.72588762585310        0.00014965962347
C            0.66546972090240       -0.69841431153891        0.00015761815320
H            0.58442861886159        4.61227854202341       -0.00415100743160
H            2.73107417215823        3.40715617961975       -0.00040849864696
H            3.99480751474398        1.32524449657453        0.00424717585754
H            4.05553975908102       -1.13223327571893        0.00426977958518
H            2.89676932676739       -3.27339909221184       -0.00038167728754
H            0.81178164179556       -4.58225839271128       -0.00435591875704
H           -1.36510959322758       -3.44887505753021       -0.00395914142867
H           -3.38418028200661       -2.09083512473064        0.00195866829301
H           -4.87779597232088       -0.03086272602545        0.00353422992098
H           -1.54803116284515        3.34522439647824       -0.00363310554205

          :  Hamiltonian                  GFN2-xTB          :
         :: gradient norm              0.000034619147 Eh/a0 ::
         :: HOMO-LUMO gap              2.481763415258 eV    ::
         :: SCC energy               -48.294325394806 Eh    ::
         :: -> dispersion             -0.037405215952 Eh    ::
         :: -> Gsolv                  -0.019529498695 Eh    ::
         :: repulsion energy           0.872628253659 Eh    ::

    * Orbital Energies and Occupations

         #    Occupation            Energy/Eh            Energy/eV
      -------------------------------------------------------------
         1        2.0000           -0.6948843             -18.9088
       ...           ...                  ...                  ...
        32        2.0000           -0.4580237             -12.4635
        33        2.0000           -0.4546415             -12.3714
        34        2.0000           -0.4448099             -12.1039
        35        2.0000           -0.4425551             -12.0425
        36        2.0000           -0.4357222             -11.8566
        37        2.0000           -0.4318336             -11.7508
        38        2.0000           -0.4140873             -11.2679
        39        2.0000           -0.4128522             -11.2343
        40        2.0000           -0.4116455             -11.2014
        41        2.0000           -0.3994914             -10.8707
        42        2.0000           -0.3892658             -10.5925
        43        2.0000           -0.3846398             -10.4666
        44        2.0000           -0.3641440              -9.9089 (HOMO)
        45                         -0.2729409              -7.4271 (LUMO)
        46                         -0.2472752              -6.7287
        47                         -0.2210758              -6.0158
        48                         -0.2100866              -5.7167
        49                         -0.1864264              -5.0729
        50                         -0.1783512              -4.8532
        51                         -0.1160374              -3.1575
        52                         -0.0990938              -2.6965
        53                         -0.0258299              -0.7029
        54                          0.0061442               0.1672
        55                          0.0925595               2.5187
       ...                                ...                  ...
        86                          0.7290344              19.8380
      -------------------------------------------------------------
                  HL-Gap            0.0912031 Eh            2.4818 eV

     #   Z          covCN         q      C6AA      α(0)
     1   6 C        2.914    -0.030    28.759     8.794
     2   6 C        2.920    -0.039    28.963     8.825
     3   6 C        2.982     0.011    27.765     8.643
     4   6 C        2.913    -0.036    28.889     8.814
     5   6 C        2.913    -0.038    28.945     8.822
     6   6 C        2.982     0.012    27.736     8.639
     7   6 C        2.920    -0.039    28.977     8.827
     8   6 C        2.914    -0.032    28.793     8.799
     9   6 C        2.917    -0.042    29.036     8.836
    10   6 C        2.975    -0.006    28.157     8.704
    11   6 C        3.096     0.026    27.314     8.565
    12   7 N        2.793    -0.106    23.314     7.171
    13   6 C        3.157     0.100    25.497     8.256
    14   7 N        1.895    -0.288    28.311     7.888
    15   6 C        3.224     0.056    26.000     8.286
    16   6 C        2.978    -0.001    28.039     8.686
    17   6 C        2.918    -0.034    28.841     8.807
    18   6 C        2.993    -0.006    28.164     8.705
    19   6 C        2.996    -0.003    28.088     8.694
    20   1 H        0.926     0.035     2.518     2.481
    21   1 H        0.926     0.035     2.513     2.479
    22   1 H        0.926     0.036     2.500     2.473
    23   1 H        0.926     0.036     2.507     2.476
    24   1 H        0.926     0.035     2.514     2.479
    25   1 H        0.926     0.034     2.534     2.489
    26   1 H        0.926     0.026     2.639     2.541
    27   1 H        0.860     0.171     1.266     1.763
    28   1 H        0.926     0.039     2.459     2.452
    29   1 H        0.926     0.045     2.378     2.411

molecular dipole:
                 x           y           z       tot (Debye)
 q only:        0.015      -0.802       0.000
   full:       -0.073      -1.374       0.000       3.497

 projected vibrational frequencies (cm⁻¹)
eigval :       -0.00    -0.00    -0.00    -0.00     0.00     0.00
eigval :       69.29   112.94   116.20   188.93   210.57   244.02
eigval :      286.84   308.92   325.80   369.94   412.54   414.22
eigval :      452.20   469.66   488.18   532.08   535.28   564.72
eigval :      565.91   573.03   592.49   626.64   647.30   680.47
eigval :      700.54   706.47   750.74   762.68   774.53   797.63
eigval :      807.01   839.23   876.66   883.75   888.03   891.93
eigval :      917.32   921.04   925.70   942.33   995.01  1047.97
eigval :     1089.25  1110.28  1132.72  1140.14  1158.51  1176.48
eigval :     1193.82  1196.33  1221.81  1237.73  1278.54  1296.79
eigval :     1314.93  1322.17  1341.19  1374.82  1379.71  1396.14
eigval :     1399.97  1418.03  1469.24  1483.75  1490.47  1521.25
eigval :     1536.47  1561.35  1583.91  1589.16  1607.08  3063.61
eigval :     3066.18  3067.39  3072.89  3076.70  3079.49  3085.13
eigval :     3102.12  3159.49  3463.17

   temp. (K)  partition function   enthalpy   heat capacity  entropy
                                   cal/mol     cal/K/mol   cal/K/mol   J/K/mol
 298.15  VIB   910.                 6133.063     48.318     33.876
         ROT  0.337E+07              888.752      2.981     32.852
         INT  0.307E+10             7021.815     51.299     66.728
         TR   0.365E+28             1481.254      4.968     42.337
         TOT                        8503.0692    56.2674   109.0640   456.3239

       T/K    H(0)-H(T)+PV         H(T)/Eh          T*S/Eh         G(T)/Eh
   ------------------------------------------------------------------------
    298.15    0.135505E-01    0.231059E+00    0.518198E-01    0.179239E+00
   ------------------------------------------------------------------------

         :::::::::::::::::::::::::::::::::::::::::::::::::::::
         ::                  THERMODYNAMIC                  ::
         :::::::::::::::::::::::::::::::::::::::::::::::::::::
         :: total free energy         -47.242458467455 Eh   ::
         ::.................................................::
         :: total energy              -47.421697144124 Eh   ::
         :: zero point energy           0.217508010935 Eh   ::
         :: G(RRHO) w/o ZPVE           -0.038269334266 Eh   ::
         :: G(RRHO) contrib.            0.179238676669 Eh   ::
         :::::::::::::::::::::::::::::::::::::::::::::::::::::

           -------------------------------------------------
          | TOTAL ENERGY              -47.421697144124 Eh   |
          | TOTAL ENTHALPY            -47.190638629840 Eh   |
          | TOTAL FREE ENERGY         -47.242458467455 Eh   |
          | GRADIENT NORM               0.000034608940 Eh/α |
          | HOMO-LUMO GAP               2.481763554719 eV   |
           -------------------------------------------------

 * finished run on 2025/08/26 at 13:09:19.296
