   * xtb version 6.7.1 (edcfbbe) compiled by 'albert@albert-system' on 2024-07-22

   ID    Z sym.   atoms
    1    6 C      1-11, 13, 15-19
    2    7 N      12, 14
    3    1 H      20-29

          program call               : xtb data2507/toluene/PyI/PyI_toluene_T1_crest.xyz --gfn 2 --uhf 2 --gbsa toluene --ohess vtight --parallel 40 --molden --ceasefiles --namespace data2507/toluene/PyI/PyI_toluene_T1_finalOpt
      * Solvation model:               GBSA
        Solvent                        toluene
        Solvent mass                       9.2140E+01 g/mol
          :  Hamiltonian                  GFN2-xTB          :
 * total energy  :   -47.3374770 Eh     change       -0.6535785E-09 Eh
 * total energy  :   -47.3374859 Eh     change       -0.8954529E-05 Eh
 * total energy  :   -47.3374881 Eh     change       -0.2165452E-05 Eh
 * total energy  :   -47.3374887 Eh     change       -0.6398663E-06 Eh
 * total energy  :   -47.3374890 Eh     change       -0.2324707E-06 Eh
 * total energy  :   -47.3374890 Eh     change       -0.6797950E-07 Eh
   *** GEOMETRY OPTIMIZATION CONVERGED AFTER 6 ITERATIONS ***

 final structure:
================
29
 xtb: 6.7.1 (edcfbbe)
C            0.53523097938356        3.56415630924739        0.00095540732919
C            1.75067751063607        2.91509644593570       -0.00000966879451
C            1.82657131481706        1.48437890808730       -0.00049541604765
C            3.04781161444331        0.81988165059911       -0.00146057700225
C            3.10266863406624       -0.57906605276506       -0.00133795829179
C            1.93828836933930       -1.33960281277296       -0.00026495762083
C            1.97939953969848       -2.77194062028456        0.00046588751810
C            0.81811901271509       -3.51670982160329        0.00145590899083
C           -0.41722368769703       -2.90213154058136        0.00139891653088
C           -0.50821897965950       -1.47469258203763        0.00057448011465
C           -1.71402348917859       -0.77631922145999        0.00017750580195
N           -3.02308112136381       -1.19001899412811       -0.00049222183843
C           -3.78937097841410       -0.05865271554208       -0.00096270493414
N           -3.09829922363736        1.03788646679837       -0.00059231637960
C           -1.78472231871068        0.64717791061684        0.00010606686054
C           -0.61978315472910        1.42543737494229        0.00043669276445
C           -0.64764838781440        2.84829250830169        0.00107587962861
C            0.61670508462993        0.73329722237008        0.00005031176771
C            0.67375198783548       -0.68841475302378        0.00014020469473
H            0.50520314390061        4.64459245450366        0.00152488671197
H            2.67402417281556        3.47478922307537       -0.00030282392033
H            3.96487503476730        1.39049506372705       -0.00220528430006
H            4.06157775173841       -1.07640205773761       -0.00195400267928
H            2.94368218577106       -3.25689129185687        0.00031382182092
H            0.87539094708669       -4.59621737544655        0.00208071087786
H           -1.32194627715865       -3.49015710812927        0.00211378253346
H           -3.35356963155726       -2.14052509139745       -0.00058174409177
H           -4.86201582590146       -0.09361982233355       -0.00170688950187
H           -1.60869521092221        3.33618133189528        0.00172329645667

          :  Hamiltonian                  GFN2-xTB          :
         :: gradient norm              0.000079736550 Eh/a0 ::
         :: HOMO-LUMO gap              1.006147378053 eV    ::
         :: SCC energy               -48.192165689435 Eh    ::
         :: -> dispersion             -0.037346872657 Eh    ::
         :: -> Gsolv                  -0.019387894555 Eh    ::
         :: repulsion energy           0.854676655556 Eh    ::

    * Orbital Energies and Occupations

         #    Occupation            Energy/Eh            Energy/eV
      -------------------------------------------------------------
         1        2.0000           -0.6985643             -19.0089
       ...           ...                  ...                  ...
        33        2.0000           -0.4534675             -12.3395
        34        2.0000           -0.4487115             -12.2101
        35        2.0000           -0.4423487             -12.0369
        36        2.0000           -0.4380847             -11.9209
        37        2.0000           -0.4328102             -11.7774
        38        2.0000           -0.4144407             -11.2775
        39        2.0000           -0.4119498             -11.2097
        40        2.0000           -0.4111151             -11.1870
        41        2.0000           -0.3970895             -10.8054
        42        2.0000           -0.3921983             -10.6723
        43        2.0000           -0.3892439             -10.5919
        44        1.0000           -0.3585928              -9.7578
        45        1.0000           -0.2814612              -7.6589 (HOMO)
        46                         -0.2444859              -6.6528 (LUMO)
        47                         -0.2244985              -6.1089
        48                         -0.2143288              -5.8322
        49                         -0.1876219              -5.1055
        50                         -0.1786019              -4.8600
        51                         -0.1197443              -3.2584
        52                         -0.1026432              -2.7931
        53                         -0.0280513              -0.7633
        54                          0.0024126               0.0656
        55                          0.0908324               2.4717
        56                          0.1002667               2.7284
       ...                                ...                  ...
        86                          0.7334408              19.9579
      -------------------------------------------------------------
                  HL-Gap            0.0369753 Eh            1.0061 eV

     #   Z          covCN         q      C6AA      α(0)
     1   6 C        2.906    -0.028    28.697     8.784
     2   6 C        2.917    -0.039    28.965     8.825
     3   6 C        2.976     0.012    27.751     8.641
     4   6 C        2.915    -0.043    29.071     8.841
     5   6 C        2.915    -0.042    29.053     8.839
     6   6 C        2.975     0.010    27.780     8.646
     7   6 C        2.916    -0.043    29.068     8.841
     8   6 C        2.905    -0.029    28.730     8.789
     9   6 C        2.913    -0.046    29.148     8.853
    10   6 C        2.970    -0.012    28.316     8.729
    11   6 C        3.078     0.035    27.141     8.541
    12   7 N        2.775    -0.112    23.437     7.190
    13   6 C        3.141     0.110    25.344     8.238
    14   7 N        1.881    -0.280    28.116     7.860
    15   6 C        3.210     0.062    26.004     8.301
    16   6 C        2.973    -0.001    28.048     8.687
    17   6 C        2.915    -0.035    28.864     8.810
    18   6 C        2.993    -0.007    28.182     8.708
    19   6 C        2.996    -0.003    28.095     8.695
    20   1 H        0.926     0.036     2.500     2.473
    21   1 H        0.926     0.036     2.498     2.472
    22   1 H        0.926     0.033     2.546     2.495
    23   1 H        0.926     0.033     2.551     2.498
    24   1 H        0.926     0.033     2.546     2.495
    25   1 H        0.926     0.032     2.559     2.502
    26   1 H        0.926     0.025     2.665     2.553
    27   1 H        0.860     0.173     1.257     1.757
    28   1 H        0.926     0.045     2.384     2.414
    29   1 H        0.926     0.047     2.356     2.400

molecular dipole:
                 x           y           z       tot (Debye)
 q only:       -0.295      -0.662      -0.000
   full:       -0.385      -1.230       0.000       3.275

 projected vibrational frequencies (cm⁻¹)
eigval :       -0.00    -0.00    -0.00     0.00     0.00     0.00
eigval :       73.05   107.06   115.83   182.26   188.44   242.70
eigval :      270.88   287.96   318.19   369.23   370.49   405.12
eigval :      420.45   464.67   482.69   491.24   503.84   517.78
eigval :      546.89   562.40   569.50   592.06   633.16   645.44
eigval :      684.76   692.42   701.39   723.16   741.14   758.28
eigval :      767.30   800.67   815.15   820.57   852.62   869.21
eigval :      882.58   905.41   908.38   924.62   951.89  1040.11
eigval :     1070.45  1103.09  1113.79  1126.70  1142.49  1153.61
eigval :     1167.07  1176.37  1200.82  1217.59  1252.19  1265.86
eigval :     1273.58  1288.43  1309.29  1328.32  1361.72  1376.14
eigval :     1378.62  1396.64  1428.49  1457.81  1465.63  1475.44
eigval :     1487.84  1491.60  1507.78  1554.07  1593.06  3065.67
eigval :     3068.66  3072.49  3082.23  3083.19  3085.53  3090.94
eigval :     3111.96  3153.38  3471.15

   temp. (K)  partition function   enthalpy   heat capacity  entropy
                                   cal/mol     cal/K/mol   cal/K/mol   J/K/mol
 298.15  VIB  0.133E+04             6473.219     50.500     35.805
         ROT  0.339E+07              888.752      2.981     32.863
         INT  0.451E+10             7361.972     53.481     68.668
         TR   0.365E+28             1481.254      4.968     42.337
         TOT                        8843.2257    58.4488   111.0048   464.4441

       T/K    H(0)-H(T)+PV         H(T)/Eh          T*S/Eh         G(T)/Eh
   ------------------------------------------------------------------------
    298.15    0.140926E-01    0.227445E+00    0.527420E-01    0.174703E+00
   ------------------------------------------------------------------------

         :::::::::::::::::::::::::::::::::::::::::::::::::::::
         ::                  THERMODYNAMIC                  ::
         :::::::::::::::::::::::::::::::::::::::::::::::::::::
         :: total free energy         -47.162786469124 Eh   ::
         ::.................................................::
         :: total energy              -47.337489036310 Eh   ::
         :: zero point energy           0.213351951363 Eh   ::
         :: G(RRHO) w/o ZPVE           -0.038649384177 Eh   ::
         :: G(RRHO) contrib.            0.174702567186 Eh   ::
         :::::::::::::::::::::::::::::::::::::::::::::::::::::

           -------------------------------------------------
          | TOTAL ENERGY              -47.337489036310 Eh   |
          | TOTAL ENTHALPY            -47.110044507823 Eh   |
          | TOTAL FREE ENERGY         -47.162786469124 Eh   |
          | GRADIENT NORM               0.000079767187 Eh/α |
          | HOMO-LUMO GAP               1.006148738181 eV   |
           -------------------------------------------------

 * finished run on 2025/08/26 at 13:09:58.794
