   * xtb version 6.7.1 (edcfbbe) compiled by 'albert@albert-system' on 2024-07-22

   ID    Z sym.   atoms
    1    6 C      1-11, 13, 15-19
    2    7 N      12, 14
    3    1 H      20-29

          program call               : xtb data2507/toluene/PyI/PyI.xyz --gfn 2 --gbsa toluene --ohess vtight --parallel 40 --molden --ceasefiles --namespace data2507/toluene/PyI/PyI_toluene_S0_preOpt
      * Solvation model:               GBSA
        Solvent                        toluene
        Solvent mass                       9.2140E+01 g/mol
          :  Hamiltonian                  GFN2-xTB          :
 * total energy  :   -47.4159421 Eh     change       -0.1442046E-08 Eh
 * total energy  :   -47.4208137 Eh     change       -0.4871607E-02 Eh
 * total energy  :   -47.4216075 Eh     change       -0.7938179E-03 Eh
 * total energy  :   -47.4216672 Eh     change       -0.5967882E-04 Eh
 * total energy  :   -47.4216830 Eh     change       -0.1582913E-04 Eh
 * total energy  :   -47.4216837 Eh     change       -0.6869043E-06 Eh
 * total energy  :   -47.4216838 Eh     change       -0.8334754E-07 Eh
   *** GEOMETRY OPTIMIZATION CONVERGED AFTER 7 ITERATIONS ***

 final structure:
================
29
 xtb: 6.7.1 (edcfbbe)
C            2.95932196801167       -2.07937949637084        0.00000073472999
C            3.26490139425311       -0.73278678434339        0.00000010665557
C            2.25483199921829        0.23409535134339       -0.00000012730786
C            2.55697055051079        1.62795066003108        0.00000021039846
C            1.57586505190192        2.55845721608193        0.00000028246062
C            0.20020130233552        2.18161921769426       -0.00000003393160
C           -0.81886486494649        3.13923238634796       -0.00000068496498
C           -2.14644152655720        2.76218527685375       -0.00000053941531
C           -2.49479077865675        1.42170976611906       -0.00000033767721
C           -1.50947259314946        0.43749261585694        0.00000001169479
C           -1.77353517699161       -0.95916104761059        0.00000005521717
N           -2.95231825845795       -1.65737624281432       -0.00000006576661
C           -2.61903172003048       -2.97561995062050        0.00000049920498
N           -1.33348146606944       -3.17514473412628        0.00000177805807
C           -0.77262659325855       -1.92765604167443        0.00000001455151
C            0.60745581204611       -1.56551037380143       -0.00000025959262
C            1.63904329707515       -2.49798174283764        0.00000037105270
C            0.89788836941482       -0.17565976162766       -0.00000019726659
C           -0.13553692114604        0.80512673320106        0.00000005757431
H            3.75396253137514       -2.81157060407752       -0.00000092820871
H            4.29662551326058       -0.41046956889920       -0.00000050555560
H            3.59726304764991        1.92179192081907        0.00000070338739
H            1.81297362884012        3.61306485431104        0.00000030359866
H           -0.55305570088662        4.18663294203205       -0.00000010579736
H           -2.92110212356558        3.51539280944685        0.00000044743459
H           -3.53797045404847        1.13980518291786       -0.00000016930943
H           -3.88206633382121       -1.27072152341312       -0.00000096152223
H           -3.35189167323393       -3.75869401992026        0.00000060404241
H            1.38488371892664       -3.54682404091910       -0.00000026374510

          :  Hamiltonian                  GFN2-xTB          :
         :: gradient norm              0.000073075371 Eh/a0 ::
         :: HOMO-LUMO gap              2.481764236323 eV    ::
         :: SCC energy               -48.294381933219 Eh    ::
         :: -> dispersion             -0.037405386685 Eh    ::
         :: -> Gsolv                  -0.019515682730 Eh    ::
         :: repulsion energy           0.872698174975 Eh    ::

    * Orbital Energies and Occupations

         #    Occupation            Energy/Eh            Energy/eV
      -------------------------------------------------------------
         1        2.0000           -0.6948812             -18.9087
       ...           ...                  ...                  ...
        32        2.0000           -0.4580176             -12.4633
        33        2.0000           -0.4546455             -12.3715
        34        2.0000           -0.4448110             -12.1039
        35        2.0000           -0.4425482             -12.0423
        36        2.0000           -0.4357195             -11.8565
        37        2.0000           -0.4318342             -11.7508
        38        2.0000           -0.4140801             -11.2677
        39        2.0000           -0.4128517             -11.2343
        40        2.0000           -0.4116456             -11.2014
        41        2.0000           -0.3994924             -10.8707
        42        2.0000           -0.3892638             -10.5924
        43        2.0000           -0.3846343             -10.4664
        44        2.0000           -0.3641413              -9.9088 (HOMO)
        45                         -0.2729382              -7.4270 (LUMO)
        46                         -0.2472679              -6.7285
        47                         -0.2210715              -6.0157
        48                         -0.2100825              -5.7166
        49                         -0.1864178              -5.0727
        50                         -0.1783390              -4.8529
        51                         -0.1160286              -3.1573
        52                         -0.0990815              -2.6961
        53                         -0.0258170              -0.7025
        54                          0.0061240               0.1666
        55                          0.0926128               2.5201
       ...                                ...                  ...
        86                          0.7290786              19.8392
      -------------------------------------------------------------
                  HL-Gap            0.0912032 Eh            2.4818 eV

     #   Z          covCN         q      C6AA      α(0)
     1   6 C        2.914    -0.030    28.759     8.794
     2   6 C        2.920    -0.039    28.963     8.825
     3   6 C        2.982     0.011    27.765     8.643
     4   6 C        2.913    -0.036    28.889     8.814
     5   6 C        2.913    -0.038    28.945     8.822
     6   6 C        2.982     0.012    27.736     8.639
     7   6 C        2.920    -0.039    28.977     8.828
     8   6 C        2.914    -0.032    28.793     8.799
     9   6 C        2.917    -0.042    29.036     8.836
    10   6 C        2.975    -0.006    28.157     8.704
    11   6 C        3.096     0.026    27.314     8.565
    12   7 N        2.793    -0.106    23.314     7.171
    13   6 C        3.157     0.100    25.497     8.256
    14   7 N        1.895    -0.288    28.311     7.888
    15   6 C        3.224     0.057    25.999     8.286
    16   6 C        2.978    -0.001    28.039     8.686
    17   6 C        2.918    -0.034    28.841     8.807
    18   6 C        2.993    -0.006    28.164     8.705
    19   6 C        2.996    -0.003    28.088     8.694
    20   1 H        0.926     0.035     2.518     2.481
    21   1 H        0.926     0.035     2.513     2.479
    22   1 H        0.926     0.036     2.500     2.473
    23   1 H        0.926     0.036     2.507     2.476
    24   1 H        0.926     0.035     2.514     2.479
    25   1 H        0.926     0.034     2.534     2.489
    26   1 H        0.926     0.026     2.639     2.540
    27   1 H        0.860     0.171     1.267     1.763
    28   1 H        0.926     0.039     2.459     2.452
    29   1 H        0.926     0.045     2.378     2.411

molecular dipole:
                 x           y           z       tot (Debye)
 q only:       -0.586       0.548      -0.000
   full:       -1.070       0.865       0.000       3.497

 projected vibrational frequencies (cm⁻¹)
eigval :       -0.00    -0.00    -0.00    -0.00     0.00     0.00
eigval :       70.02   106.15   117.35   185.83   212.25   244.02
eigval :      286.42   309.07   325.22   369.93   412.75   414.21
eigval :      454.61   469.03   487.87   533.64   536.49   565.77
eigval :      571.87   573.40   593.83   624.60   647.22   681.57
eigval :      701.10   705.95   751.48   762.69   777.36   798.54
eigval :      808.32   841.36   879.79   883.82   888.09   893.71
eigval :      919.03   922.56   926.76   942.46   995.03  1049.88
eigval :     1089.54  1109.96  1133.26  1139.78  1158.49  1174.58
eigval :     1192.92  1195.87  1221.42  1236.97  1278.35  1296.79
eigval :     1314.77  1322.17  1341.06  1374.41  1379.58  1396.01
eigval :     1399.64  1417.88  1469.14  1483.60  1490.38  1521.18
eigval :     1536.39  1561.42  1583.90  1589.17  1607.13  3063.71
eigval :     3067.07  3067.43  3072.68  3076.81  3079.57  3085.34
eigval :     3100.56  3159.78  3462.95

   temp. (K)  partition function   enthalpy   heat capacity  entropy
                                   cal/mol     cal/K/mol   cal/K/mol   J/K/mol
 298.15  VIB   939.                 6133.433     48.273     33.942
         ROT  0.337E+07              888.752      2.981     32.852
         INT  0.317E+10             7022.185     51.254     66.794
         TR   0.365E+28             1481.254      4.968     42.337
         TOT                        8503.4390    56.2223   109.1300   456.6000

       T/K    H(0)-H(T)+PV         H(T)/Eh          T*S/Eh         G(T)/Eh
   ------------------------------------------------------------------------
    298.15    0.135511E-01    0.231099E+00    0.518512E-01    0.179248E+00
   ------------------------------------------------------------------------

         :::::::::::::::::::::::::::::::::::::::::::::::::::::
         ::                  THERMODYNAMIC                  ::
         :::::::::::::::::::::::::::::::::::::::::::::::::::::
         :: total free energy         -47.242435502861 Eh   ::
         ::.................................................::
         :: total energy              -47.421683757245 Eh   ::
         :: zero point energy           0.217548358510 Eh   ::
         :: G(RRHO) w/o ZPVE           -0.038300104126 Eh   ::
         :: G(RRHO) contrib.            0.179248254385 Eh   ::
         :::::::::::::::::::::::::::::::::::::::::::::::::::::

           -------------------------------------------------
          | TOTAL ENERGY              -47.421683757245 Eh   |
          | TOTAL ENTHALPY            -47.190584306080 Eh   |
          | TOTAL FREE ENERGY         -47.242435502861 Eh   |
          | GRADIENT NORM               0.000073095790 Eh/α |
          | HOMO-LUMO GAP               2.481764305899 eV   |
           -------------------------------------------------

 * finished run on 2025/08/26 at 13:08:42.641
