   * xtb version 6.7.1 (edcfbbe) compiled by 'albert@albert-system' on 2024-07-22

   ID    Z sym.   atoms
    1    6 C      1-11, 13, 15-19
    2    7 N      12, 14
    3    1 H      20-29

          program call               : xtb data2507/toluene/PyI/PyI_toluene_S0_finalOpt.xtbopt.xyz --gfn 2 --uhf 2 --gbsa toluene --ohess vtight --parallel 40 --molden --ceasefiles --namespace data2507/toluene/PyI/PyI_toluene_T1_preOpt
      * Solvation model:               GBSA
        Solvent                        toluene
        Solvent mass                       9.2140E+01 g/mol
          :  Hamiltonian                  GFN2-xTB          :
 * total energy  :   -47.3294935 Eh     change       -0.1631363E-08 Eh
 * total energy  :   -47.3361518 Eh     change       -0.6658257E-02 Eh
 * total energy  :   -47.3374476 Eh     change       -0.1295800E-02 Eh
 * total energy  :   -47.3374863 Eh     change       -0.3873486E-04 Eh
 * total energy  :   -47.3374959 Eh     change       -0.9584906E-05 Eh
 * total energy  :   -47.3374973 Eh     change       -0.1377299E-05 Eh
 * total energy  :   -47.3374954 Eh     change        0.1922729E-05 Eh
 * total energy  :   -47.3374975 Eh     change       -0.2090370E-05 Eh
 * total energy  :   -47.3374975 Eh     change       -0.3028532E-07 Eh
   *** GEOMETRY OPTIMIZATION CONVERGED AFTER 9 ITERATIONS ***

 final structure:
================
29
 xtb: 6.7.1 (edcfbbe)
C            0.58978476019306        3.55576119324651       -0.00110223166085
C            1.79544455999813        2.88871245273885       -0.00027415734904
C            1.85009071553591        1.45701630961361        0.00026394856310
C            3.06139175382441        0.77451452987329        0.00111959782003
C            3.09547757599763       -0.62509627534750        0.00113856926241
C            1.91991607101253       -1.36832215017225        0.00028554590259
C            1.93976874295660       -2.80113377433320       -0.00023058531113
C            0.76754735880646       -3.52859575970287       -0.00110490366424
C           -0.45856073377850       -2.89576587000207       -0.00115494774385
C           -0.52840192792215       -1.46710978989328       -0.00047232774900
C           -1.72374208490103       -0.75095585858892       -0.00016269024099
N           -3.03880965982460       -1.14510839556912        0.00034017568727
C           -3.78821799215471       -0.00246771909833        0.00066465179573
N           -3.08089083775808        1.08368384721945        0.00030272168446
C           -1.77325370364645        0.67347374313141       -0.00019247189758
C           -0.59684679237796        1.43430880623372       -0.00049515974720
C           -0.60351303950709        2.85742324475241       -0.00113463060121
C            0.62924388951310        0.72390977231197       -0.00011187375719
C            0.66515462448947       -0.69848449298862       -0.00010418677697
H            0.57558926706880        4.63654083526949       -0.00169720233112
H            2.72705062390296        3.43450901284553       -0.00010949576364
H            3.98675279600219        1.33161796508715        0.00169188902758
H            4.04690491907509       -1.13663829561746        0.00172593564112
H            2.89677877254281       -3.30026844206692       -0.00005067076767
H            0.80882165800105       -4.60885538568255       -0.00173519905265
H           -1.37194330735431       -3.47026695970689       -0.00186584553717
H           -3.38321656309431       -2.09068077080337        0.00070595579900
H           -4.86125158040229       -0.02130365380567        0.00120770700760
H           -1.55720367197445        3.35940742378752       -0.00168055630369

          :  Hamiltonian                  GFN2-xTB          :
         :: gradient norm              0.000045466169 Eh/a0 ::
         :: HOMO-LUMO gap              1.006036927537 eV    ::
         :: SCC energy               -48.192116803093 Eh    ::
         :: -> dispersion             -0.037346560714 Eh    ::
         :: -> Gsolv                  -0.019396604436 Eh    ::
         :: repulsion energy           0.854619314129 Eh    ::

    * Orbital Energies and Occupations

         #    Occupation            Energy/Eh            Energy/eV
      -------------------------------------------------------------
         1        2.0000           -0.6985596             -19.0088
       ...           ...                  ...                  ...
        33        2.0000           -0.4534631             -12.3394
        34        2.0000           -0.4487095             -12.2100
        35        2.0000           -0.4423488             -12.0369
        36        2.0000           -0.4380866             -11.9209
        37        2.0000           -0.4328087             -11.7773
        38        2.0000           -0.4144400             -11.2775
        39        2.0000           -0.4119511             -11.2098
        40        2.0000           -0.4111118             -11.1869
        41        2.0000           -0.3970885             -10.8053
        42        2.0000           -0.3921967             -10.6722
        43        2.0000           -0.3892445             -10.5919
        44        1.0000           -0.3585914              -9.7578
        45        1.0000           -0.2814606              -7.6589 (HOMO)
        46                         -0.2444894              -6.6529 (LUMO)
        47                         -0.2245015              -6.1090
        48                         -0.2143330              -5.8323
        49                         -0.1876272              -5.1056
        50                         -0.1786042              -4.8601
        51                         -0.1197556              -3.2587
        52                         -0.1026485              -2.7932
        53                         -0.0280596              -0.7635
        54                          0.0023878               0.0650
        55                          0.0908207               2.4714
        56                          0.1002535               2.7280
       ...                                ...                  ...
        86                          0.7334084              19.9571
      -------------------------------------------------------------
                  HL-Gap            0.0369712 Eh            1.0060 eV

     #   Z          covCN         q      C6AA      α(0)
     1   6 C        2.906    -0.028    28.697     8.784
     2   6 C        2.917    -0.039    28.965     8.825
     3   6 C        2.976     0.012    27.751     8.641
     4   6 C        2.915    -0.043    29.071     8.841
     5   6 C        2.915    -0.042    29.053     8.839
     6   6 C        2.975     0.010    27.781     8.646
     7   6 C        2.916    -0.043    29.068     8.841
     8   6 C        2.905    -0.029    28.730     8.789
     9   6 C        2.913    -0.046    29.148     8.853
    10   6 C        2.970    -0.012    28.317     8.729
    11   6 C        3.078     0.035    27.141     8.541
    12   7 N        2.775    -0.112    23.437     7.190
    13   6 C        3.141     0.110    25.344     8.238
    14   7 N        1.881    -0.280    28.117     7.860
    15   6 C        3.210     0.062    26.004     8.301
    16   6 C        2.973    -0.001    28.048     8.687
    17   6 C        2.915    -0.035    28.864     8.810
    18   6 C        2.993    -0.007    28.182     8.708
    19   6 C        2.996    -0.003    28.095     8.695
    20   1 H        0.926     0.036     2.500     2.472
    21   1 H        0.926     0.036     2.498     2.472
    22   1 H        0.926     0.033     2.546     2.495
    23   1 H        0.926     0.033     2.551     2.498
    24   1 H        0.926     0.033     2.546     2.495
    25   1 H        0.926     0.032     2.559     2.502
    26   1 H        0.926     0.025     2.665     2.553
    27   1 H        0.860     0.173     1.257     1.757
    28   1 H        0.926     0.045     2.384     2.414
    29   1 H        0.926     0.047     2.356     2.400

molecular dipole:
                 x           y           z       tot (Debye)
 q only:       -0.305      -0.658       0.000
   full:       -0.403      -1.224       0.000       3.275

 projected vibrational frequencies (cm⁻¹)
eigval :       -0.00    -0.00    -0.00     0.00     0.00     0.00
eigval :       72.67   107.33   116.20   182.18   188.08   244.40
eigval :      270.78   287.82   319.73   369.39   370.55   405.33
eigval :      420.39   465.31   483.01   490.46   504.02   517.55
eigval :      546.71   562.50   569.83   591.53   633.34   645.43
eigval :      684.78   692.72   701.45   724.12   741.53   758.54
eigval :      767.46   800.51   814.68   821.74   853.08   869.24
eigval :      882.71   904.58   908.55   924.97   952.02  1040.12
eigval :     1071.33  1104.90  1114.36  1127.66  1143.49  1153.92
eigval :     1168.04  1177.92  1201.06  1217.52  1252.18  1266.03
eigval :     1273.96  1288.54  1309.48  1328.55  1361.97  1376.34
eigval :     1378.79  1396.55  1428.48  1457.80  1465.73  1475.50
eigval :     1487.84  1491.55  1507.66  1554.03  1592.96  3065.85
eigval :     3068.38  3072.15  3082.40  3084.43  3085.65  3092.02
eigval :     3114.61  3153.20  3471.15

   temp. (K)  partition function   enthalpy   heat capacity  entropy
                                   cal/mol     cal/K/mol   cal/K/mol   J/K/mol
 298.15  VIB  0.132E+04             6469.485     50.479     35.780
         ROT  0.339E+07              888.752      2.981     32.863
         INT  0.449E+10             7358.237     53.460     68.643
         TR   0.365E+28             1481.254      4.968     42.337
         TOT                        8839.4910    58.4280   110.9797   464.3389

       T/K    H(0)-H(T)+PV         H(T)/Eh          T*S/Eh         G(T)/Eh
   ------------------------------------------------------------------------
    298.15    0.140866E-01    0.227486E+00    0.527300E-01    0.174756E+00
   ------------------------------------------------------------------------

         :::::::::::::::::::::::::::::::::::::::::::::::::::::
         ::                  THERMODYNAMIC                  ::
         :::::::::::::::::::::::::::::::::::::::::::::::::::::
         :: total free energy         -47.162741874810 Eh   ::
         ::.................................................::
         :: total energy              -47.337497492272 Eh   ::
         :: zero point energy           0.213399013443 Eh   ::
         :: G(RRHO) w/o ZPVE           -0.038643395982 Eh   ::
         :: G(RRHO) contrib.            0.174755617462 Eh   ::
         :::::::::::::::::::::::::::::::::::::::::::::::::::::

           -------------------------------------------------
          | TOTAL ENERGY              -47.337497492272 Eh   |
          | TOTAL ENTHALPY            -47.110011853266 Eh   |
          | TOTAL FREE ENERGY         -47.162741874810 Eh   |
          | GRADIENT NORM               0.000045469603 Eh/α |
          | HOMO-LUMO GAP               1.006037521896 eV   |
           -------------------------------------------------

 * finished run on 2025/08/26 at 13:09:19.940
