   * xtb version 6.7.1 (edcfbbe) compiled by 'albert@albert-system' on 2024-07-22

   ID    Z sym.   atoms
    1    6 C      1-4, 6-25, 27-36
    2    8 O      5, 26
    3    1 H      37-70

          program call               : xtb data2507/toluene/BBPA/BBPA_toluene_S0_finalOpt.xtbopt.xyz --gfn 2 --uhf 2 --gbsa toluene --ohess vtight --parallel 40 --molden --ceasefiles --namespace data2507/toluene/BBPA/BBPA_toluene_T1_preOpt
      * Solvation model:               GBSA
        Solvent                        toluene
        Solvent mass                       9.2140E+01 g/mol
          :  Hamiltonian                  GFN2-xTB          :
 * total energy  :   -98.2546443 Eh     change       -0.1665555E-08 Eh
 * total energy  :   -98.2607872 Eh     change       -0.6142930E-02 Eh
 * total energy  :   -98.2621726 Eh     change       -0.1385405E-02 Eh
 * total energy  :   -98.2622874 Eh     change       -0.1147767E-03 Eh
 * total energy  :   -98.2623810 Eh     change       -0.9359208E-04 Eh
 * total energy  :   -98.2624337 Eh     change       -0.5269755E-04 Eh
 * total energy  :   -98.2625155 Eh     change       -0.8179872E-04 Eh
 * total energy  :   -98.2626147 Eh     change       -0.9920328E-04 Eh
 * total energy  :   -98.2627022 Eh     change       -0.8757393E-04 Eh
 * total energy  :   -98.2627540 Eh     change       -0.5178945E-04 Eh
 * total energy  :   -98.2629700 Eh     change       -0.1039043E-05 Eh
 * total energy  :   -98.2629711 Eh     change       -0.1014746E-05 Eh
 * total energy  :   -98.2629716 Eh     change       -0.5296871E-06 Eh
 * total energy  :   -98.2629718 Eh     change       -0.2660264E-06 Eh
 * total energy  :   -98.2629721 Eh     change       -0.2297830E-06 Eh
 * total energy  :   -98.2629723 Eh     change       -0.2304196E-06 Eh
 * total energy  :   -98.2629725 Eh     change       -0.1906060E-06 Eh
 * total energy  :   -98.2629726 Eh     change       -0.1385400E-06 Eh
 * total energy  :   -98.2629727 Eh     change       -0.9336878E-07 Eh
   *** GEOMETRY OPTIMIZATION CONVERGED AFTER 65 ITERATIONS ***

 final structure:
================
70
 xtb: 6.7.1 (edcfbbe)
C            1.53121680267511        1.56552361886672       -4.73242862543895
C            1.13584322472867        0.48544316993872       -3.73212328478433
C            2.29995172855925        0.10868534114059       -2.82007277559039
C            1.89792544343173       -0.97252119053354       -1.81844040588488
O            2.98223601602272       -1.40514672152179       -1.01578109485054
C            3.59318592343806       -0.51580163430477       -0.16557323636104
C            4.98344136163126       -0.59424365187683       -0.11948181998861
C            5.72051226137404        0.22145492353316        0.71634535004643
C            5.07097539294246        1.15070927963155        1.51351028090663
C            3.69371166437254        1.23167465595311        1.48031456320030
C            2.92332909283397        0.39818110366320        0.66506819887100
C            1.46034778087084        0.50002776632338        0.75864843864509
C            0.71579241648204       -0.57692702203517        1.33167371197000
C            1.34476826527427       -1.73166979759715        1.80276597787475
C            0.61923823446307       -2.75656531945890        2.41027774542931
C           -0.74015146302299       -2.62251774063258        2.58681100025544
C           -1.38962365493592       -1.47127934493701        2.14008422812691
C           -0.69739338543510       -0.45134537477601        1.48284271010699
C           -1.35772817623397        0.73109878370840        1.03219936639038
C           -2.81488545169318        0.83139337554668        1.14068184746168
C           -3.40785506183817        1.80518320077593        1.93965363864219
C           -4.78245468433915        1.89486679999644        2.06011852084645
C           -5.58759229129756        1.01125766528610        1.36342861843114
C           -5.02477686400952        0.04232783659532        0.54719487822440
C           -3.64467823558713       -0.06155404032702        0.42743937957276
O           -3.00144236264957       -0.95246354658680       -0.37438234773469
C           -3.75938476486163       -1.88960707598343       -1.11695888836041
C           -2.78770684251890       -2.81888742802886       -1.83794374107146
C           -2.02328511808457       -3.71075736920402       -0.86158925603540
C           -1.03673801632000       -4.62470950583411       -1.57694060111333
C           -0.60953181453239        1.81960743126232        0.49019433416395
C           -1.23105396716502        2.97675479648148        0.01269955842834
C           -0.49465143580692        4.03073388480246       -0.53032879834399
C            0.87503763340591        3.93163628298673       -0.62947476508683
C            1.51903580308617        2.77075539294422       -0.19933594399964
C            0.80908647226654        1.70939487205795        0.36823377236664
H            1.85824943838597        2.46401806275516       -4.21399541801475
H            0.68691955786213        1.82360225801712       -5.36750879132246
H            2.34535254466414        1.21922527445934       -5.36568281560672
H            0.79835782513224       -0.40302792949719       -4.27102413361874
H            0.30287399653159        0.84048173942308       -3.12065211729065
H            2.63564188261719        0.99213953851779       -2.27131963925841
H            3.13969082775537       -0.25515824437428       -3.41741730282954
H            1.58193773618205       -1.87857566249925       -2.34236252146698
H            1.06640876873387       -0.61624948926534       -1.19989817593659
H            5.46702411620322       -1.31614597673102       -0.76054739334598
H            6.79677926086175        0.13896739029638        0.73700977777961
H            5.63420345518966        1.80195739394799        2.16495840377360
H            3.17796340329288        1.93228680724046        2.12170448109611
H            2.41455652598288       -1.83347172720334        1.70084738224637
H            1.13404387191281       -3.64308070091085        2.75013782815375
H           -1.31058748786057       -3.40057260195330        3.07273876562284
H           -2.44976740471171       -1.36450688658367        2.31362557564458
H           -2.76852893089997        2.47878910506757        2.49192751990799
H           -5.22171109661844        2.64710358392521        2.69779417543234
H           -6.66256318424752        1.07217617404587        1.44704960267102
H           -5.67375251259699       -0.62632810943113        0.00377044098377
H           -4.40373272472782       -2.47221609220382       -0.44453828964306
H           -4.39120877383359       -1.36287770653566       -1.84611845642895
H           -3.35487267897102       -3.43389837965685       -2.53916558301241
H           -2.08256857348323       -2.20904865509099       -2.40533935948825
H           -1.48913020016344       -3.07752172961973       -0.15115811953415
H           -2.73531598689160       -4.31845480909331       -0.29722661063607
H           -1.55628937836195       -5.27906559239748       -2.27431933833473
H           -0.30801853618979       -4.03925090769192       -2.13266020040802
H           -0.50199961507703       -5.24097719368252       -0.85793972358197
H           -2.30628030509370        3.05638988922367        0.05817777954782
H           -1.00871834787532        4.91557862794232       -0.87589772711960
H            1.45715570629340        4.73737346487331       -1.05205663318414
H            2.59019265796609        2.69196673506224       -0.31119565256174

          :  Hamiltonian                  GFN2-xTB          :
         :: gradient norm              0.000031353991 Eh/a0 ::
         :: HOMO-LUMO gap              1.582096051122 eV    ::
         :: SCC energy               -99.901739855679 Eh    ::
         :: -> dispersion             -0.089803246616 Eh    ::
         :: -> Gsolv                  -0.037031827127 Eh    ::
         :: repulsion energy           1.638767124321 Eh    ::

    * Orbital Energies and Occupations

         #    Occupation            Energy/Eh            Energy/eV
      -------------------------------------------------------------
         1        2.0000           -0.7169401             -19.5089
       ...           ...                  ...                  ...
        80        2.0000           -0.4252523             -11.5717
        81        2.0000           -0.4236614             -11.5284
        82        2.0000           -0.4176451             -11.3647
        83        2.0000           -0.4126264             -11.2281
        84        2.0000           -0.4056796             -11.0391
        85        2.0000           -0.4020348             -10.9399
        86        2.0000           -0.4010260             -10.9125
        87        2.0000           -0.3999061             -10.8820
        88        2.0000           -0.3990087             -10.8576
        89        2.0000           -0.3807293             -10.3602
        90        2.0000           -0.3794899             -10.3264
        91        1.0000           -0.3481653              -9.4741
        92        1.0000           -0.2861284              -7.7859 (HOMO)
        93                         -0.2279874              -6.2039 (LUMO)
        94                         -0.2266204              -6.1667
        95                         -0.2255571              -6.1377
        96                         -0.2216572              -6.0316
        97                         -0.2199790              -5.9859
        98                         -0.2164618              -5.8902
        99                         -0.1766089              -4.8058
       100                         -0.1730238              -4.7082
       101                         -0.0974159              -2.6508
       102                         -0.0965193              -2.6264
       103                         -0.0933201              -2.5394
       ...                                ...                  ...
       178                          0.7080273              19.2664
      -------------------------------------------------------------
                  HL-Gap            0.0581409 Eh            1.5821 eV

     #   Z          covCN         q      C6AA      α(0)
     1   6 C        3.752    -0.103    22.530     6.769
     2   6 C        3.801    -0.053    21.530     6.606
     3   6 C        3.801    -0.064    21.733     6.637
     4   6 C        3.689     0.083    19.382     6.301
     5   8 O        1.704    -0.311    19.190     5.914
     6   6 C        2.858     0.138    24.981     8.192
     7   6 C        2.920    -0.054    29.353     8.885
     8   6 C        2.918    -0.033    28.822     8.804
     9   6 C        2.916    -0.041    29.011     8.832
    10   6 C        2.928    -0.035    28.861     8.810
    11   6 C        2.971    -0.012    28.313     8.728
    12   6 C        2.973    -0.006    28.171     8.706
    13   6 C        2.977     0.008    27.845     8.656
    14   6 C        2.920    -0.037    28.910     8.817
    15   6 C        2.913    -0.032    28.799     8.800
    16   6 C        2.913    -0.032    28.801     8.800
    17   6 C        2.921    -0.034    28.842     8.807
    18   6 C        2.976     0.011    27.774     8.645
    19   6 C        2.973    -0.004    28.122     8.699
    20   6 C        2.974    -0.007    28.202     8.711
    21   6 C        2.924    -0.035    28.872     8.812
    22   6 C        2.915    -0.043    29.075     8.842
    23   6 C        2.920    -0.034    28.841     8.807
    24   6 C        2.915    -0.070    29.753     8.945
    25   6 C        2.864     0.141    24.932     8.185
    26   8 O        1.705    -0.286    18.742     5.845
    27   6 C        3.691     0.085    19.347     6.294
    28   6 C        3.802    -0.064    21.724     6.636
    29   6 C        3.801    -0.052    21.507     6.603
    30   6 C        3.752    -0.103    22.526     6.768
    31   6 C        2.976     0.007    27.849     8.656
    32   6 C        2.920    -0.040    28.996     8.830
    33   6 C        2.913    -0.032    28.802     8.800
    34   6 C        2.913    -0.032    28.809     8.801
    35   6 C        2.921    -0.039    28.973     8.827
    36   6 C        2.976     0.007    27.865     8.659
    37   1 H        0.925     0.037     2.488     2.467
    38   1 H        0.925     0.039     2.463     2.454
    39   1 H        0.925     0.039     2.463     2.454
    40   1 H        0.924     0.034     2.529     2.487
    41   1 H        0.924     0.030     2.588     2.516
    42   1 H        0.924     0.036     2.505     2.475
    43   1 H        0.924     0.043     2.409     2.427
    44   1 H        0.924     0.047     2.355     2.400
    45   1 H        0.924     0.032     2.556     2.500
    46   1 H        0.926     0.044     2.392     2.419
    47   1 H        0.926     0.040     2.453     2.449
    48   1 H        0.926     0.038     2.472     2.459
    49   1 H        0.926     0.037     2.483     2.464
    50   1 H        0.926     0.028     2.618     2.530
    51   1 H        0.926     0.029     2.605     2.524
    52   1 H        0.926     0.029     2.598     2.521
    53   1 H        0.926     0.026     2.644     2.543
    54   1 H        0.926     0.038     2.472     2.459
    55   1 H        0.926     0.036     2.500     2.473
    56   1 H        0.926     0.037     2.496     2.470
    57   1 H        0.926     0.036     2.506     2.476
    58   1 H        0.923     0.032     2.557     2.501
    59   1 H        0.923     0.031     2.574     2.509
    60   1 H        0.924     0.046     2.365     2.405
    61   1 H        0.924     0.050     2.322     2.383
    62   1 H        0.924     0.038     2.471     2.458
    63   1 H        0.924     0.032     2.558     2.501
    64   1 H        0.925     0.038     2.476     2.461
    65   1 H        0.925     0.034     2.530     2.487
    66   1 H        0.925     0.037     2.493     2.469
    67   1 H        0.926     0.031     2.578     2.511
    68   1 H        0.926     0.029     2.595     2.519
    69   1 H        0.926     0.029     2.600     2.521
    70   1 H        0.926     0.028     2.610     2.526

molecular dipole:
                 x           y           z       tot (Debye)
 q only:       -0.525       0.025      -0.569
   full:       -0.803       0.032      -0.540       2.461

 projected vibrational frequencies (cm⁻¹)
eigval :       -0.00    -0.00    -0.00     0.00     0.00     0.00
eigval :       18.16    24.09    29.01    32.97    39.37    46.45
eigval :       52.38    58.26    64.96    70.68    76.36    78.19
eigval :       82.04   109.61   110.54   121.67   129.30   142.62
eigval :      157.01   179.40   182.93   197.35   200.63   216.71
eigval :      225.03   229.53   234.33   263.38   267.85   280.20
eigval :      285.38   295.04   337.50   350.67   379.37   385.97
eigval :      388.47   397.31   412.16   421.88   442.67   450.16
eigval :      464.22   471.84   477.74   485.11   500.69   511.66
eigval :      551.30   573.81   580.11   580.56   585.51   598.28
eigval :      603.82   611.86   660.12   668.60   687.94   700.22
eigval :      716.07   718.48   740.76   754.68   768.82   771.34
eigval :      773.69   778.60   789.78   819.18   833.19   835.46
eigval :      838.46   858.99   877.45   879.04   882.59   884.13
eigval :      891.40   896.06   898.89   903.43   903.90   907.30
eigval :      910.61   913.85   919.69   920.93   942.45   943.08
eigval :      950.71   979.11   996.77  1015.80  1067.32  1075.82
eigval :     1086.48  1094.17  1097.94  1098.59  1099.94  1102.30
eigval :     1105.29  1110.42  1117.21  1128.99  1137.22  1138.59
eigval :     1148.23  1163.44  1171.91  1177.37  1179.88  1181.39
eigval :     1185.21  1191.14  1213.22  1219.15  1223.75  1226.58
eigval :     1232.24  1242.18  1245.66  1254.30  1255.72  1263.31
eigval :     1270.59  1275.35  1276.35  1281.03  1291.18  1293.22
eigval :     1302.10  1305.17  1313.54  1331.80  1335.88  1340.88
eigval :     1363.63  1367.67  1369.28  1371.42  1379.20  1405.91
eigval :     1410.95  1411.72  1412.18  1423.73  1427.60  1445.17
eigval :     1454.02  1459.81  1467.52  1478.66  1479.88  1480.84
eigval :     1484.70  1494.65  1497.08  1498.75  1500.21  1501.00
eigval :     1502.23  1517.97  1528.90  1552.73  1558.43  1559.99
eigval :     1573.91  1580.61  2869.90  2894.81  2920.19  2959.69
eigval :     2962.30  2963.98  2973.49  2977.24  2979.54  2983.27
eigval :     2994.11  2997.03  3025.47  3029.08  3032.35  3033.38
eigval :     3038.48  3039.73  3071.75  3072.14  3072.94  3075.61
eigval :     3079.43  3079.99  3080.25  3080.70  3087.91  3088.55
eigval :     3089.82  3091.12  3095.24  3096.50  3097.03  3102.14

   temp. (K)  partition function   enthalpy   heat capacity  entropy
                                   cal/mol     cal/K/mol   cal/K/mol   J/K/mol
 298.15  VIB  0.878E+15            19491.658    119.070    122.903
         ROT  0.255E+08              888.752      2.981     36.872
         INT  0.224E+23            20380.410    122.051    159.775
         TR   0.100E+29             1481.254      4.968     44.340
         TOT                       21861.6642   127.0188   204.1147   854.0157

       T/K    H(0)-H(T)+PV         H(T)/Eh          T*S/Eh         G(T)/Eh
   ------------------------------------------------------------------------
    298.15    0.348388E-01    0.606757E+00    0.969815E-01    0.509776E+00
   ------------------------------------------------------------------------

         :::::::::::::::::::::::::::::::::::::::::::::::::::::
         ::                  THERMODYNAMIC                  ::
         :::::::::::::::::::::::::::::::::::::::::::::::::::::
         :: total free energy         -97.753196834862 Eh   ::
         ::.................................................::
         :: total energy              -98.262972729431 Eh   ::
         :: zero point energy           0.571918576464 Eh   ::
         :: G(RRHO) w/o ZPVE           -0.062142681895 Eh   ::
         :: G(RRHO) contrib.            0.509775894569 Eh   ::
         :::::::::::::::::::::::::::::::::::::::::::::::::::::

           -------------------------------------------------
          | TOTAL ENERGY              -98.262972729431 Eh   |
          | TOTAL ENTHALPY            -97.656215373415 Eh   |
          | TOTAL FREE ENERGY         -97.753196834862 Eh   |
          | GRADIENT NORM               0.000031388481 Eh/α |
          | HOMO-LUMO GAP               1.582095443574 eV   |
           -------------------------------------------------

 * finished run on 2025/07/20 at 08:49:10.340
