   * xtb version 6.7.1 (edcfbbe) compiled by 'albert@albert-system' on 2024-07-22

   ID    Z sym.   atoms
    1    6 C      1-4, 6-25, 27-36
    2    8 O      5, 26
    3    1 H      37-70

          program call               : xtb data2507/toluene/BBPA/BBPA.xyz --gfn 2 --gbsa toluene --ohess vtight --parallel 40 --molden --ceasefiles --namespace data2507/toluene/BBPA/BBPA_toluene_S0_preOpt
      * Solvation model:               GBSA
        Solvent                        toluene
        Solvent mass                       9.2140E+01 g/mol
          :  Hamiltonian                  GFN2-xTB          :
 * total energy  :   -98.3128237 Eh     change       -0.9719372E-09 Eh
 * total energy  :   -98.3243736 Eh     change       -0.1154988E-01 Eh
 * total energy  :   -98.3270526 Eh     change       -0.2678959E-02 Eh
 * total energy  :   -98.3274270 Eh     change       -0.3743820E-03 Eh
 * total energy  :   -98.3277559 Eh     change       -0.3289110E-03 Eh
 * total energy  :   -98.3279246 Eh     change       -0.1687066E-03 Eh
 * total energy  :   -98.3281508 Eh     change       -0.2262289E-03 Eh
 * total energy  :   -98.3283621 Eh     change       -0.2112695E-03 Eh
 * total energy  :   -98.3285589 Eh     change       -0.1967930E-03 Eh
 * total energy  :   -98.3287302 Eh     change       -0.1713272E-03 Eh
 * total energy  :   -98.3306971 Eh     change       -0.1926903E-06 Eh
 * total energy  :   -98.3306973 Eh     change       -0.2514461E-06 Eh
 * total energy  :   -98.3306976 Eh     change       -0.2387231E-06 Eh
 * total energy  :   -98.3306977 Eh     change       -0.1807887E-06 Eh
 * total energy  :   -98.3306979 Eh     change       -0.1453638E-06 Eh
 * total energy  :   -98.3306981 Eh     change       -0.1780479E-06 Eh
 * total energy  :   -98.3306983 Eh     change       -0.2060774E-06 Eh
 * total energy  :   -98.3306984 Eh     change       -0.1484139E-06 Eh
 * total energy  :   -98.3306984 Eh     change       -0.1299810E-08 Eh
   *** GEOMETRY OPTIMIZATION CONVERGED AFTER 94 ITERATIONS ***

 final structure:
================
70
 xtb: 6.7.1 (edcfbbe)
C            5.78960768447522        2.51037934780556        2.12045715357530
C            5.02327962158444        2.47127395168052        0.80321059136946
C            4.06302629110546        1.28565702448207        0.74495519347485
C            3.28367934702073        1.25917832447347       -0.57121546544298
O            2.34488533333139        0.20157879391327       -0.63296015043158
C            2.77169352456087       -1.07600575754912       -0.85511734935790
C            4.06892137423066       -1.44562631099351       -1.19126327966326
C            4.37931985269165       -2.77523776951625       -1.42791802540262
C            3.40700554284213       -3.75277351558974       -1.33335843446446
C            2.11223476884648       -3.39185404102527       -0.99946224403724
C            1.78089026777366       -2.06784289956442       -0.75607807011599
C            0.39407851102971       -1.70156172445186       -0.38695639379594
C           -0.61636565888471       -1.72587826375844       -1.35781596851421
C           -0.34267371375070       -2.03356294383764       -2.71698867918164
C           -1.33388513238409       -2.06104874250370       -3.64926422323259
C           -2.66590178772111       -1.78054463875691       -3.28118914069882
C           -2.96941914768936       -1.46958581462054       -1.99157869123916
C           -1.96441157895301       -1.42443879166557       -0.98861290677927
C           -2.26477982747202       -1.07376011444121        0.33447848403351
C           -3.67354415498379       -0.84120300905051        0.74489256836691
C           -4.43866527491759       -1.97859611444633        1.00384965978534
C           -5.73803346044137       -1.89864113657684        1.46229401119444
C           -6.30394928344146       -0.65247310846416        1.68129521368065
C           -5.57294774038162        0.48546566476988        1.41564669848731
C           -4.26053116954423        0.41406093964773        0.93939548857799
O           -3.67652996526895        1.63250620963076        0.74066814431840
C           -2.57526966852164        1.78340863983400       -0.14026063141346
C           -2.50332031146789        3.26089496082470       -0.52122198534415
C           -1.49091186465781        3.53852082167124       -1.63102711752891
C           -0.04748382853043        3.29990484722316       -1.20238391203583
C           -1.25139830013678       -1.03613479362195        1.30303321178151
C           -1.52490847683354       -0.69438949285916        2.65413389258322
C           -0.53735415544489       -0.67393198803355        3.59028615479496
C            0.78507107787947       -1.00969626039820        3.23516450984361
C            1.08704567120859       -1.34772157647653        1.95187840889248
C            0.09281067730822       -1.36038850376247        0.93867721728026
H            6.37402826877878        1.60187516005127        2.25046553698516
H            5.10151372476136        2.59761843098470        2.95847983826220
H            6.46728557354862        3.36076693089795        2.14181896962855
H            5.73102201382352        2.40525797250330       -0.02670628403699
H            4.45784607376779        3.39793735513019        0.68298582762566
H            3.34680861084010        1.34631195750866        1.56735259535584
H            4.62105476946011        0.35383452503959        0.86090758470197
H            3.96563928001279        1.22490744366873       -1.42969414594314
H            2.67459138198276        2.16283651694278       -0.65599346246397
H            4.84996568861091       -0.70684295069348       -1.27632415542864
H            5.39379656300318       -3.04080714694377       -1.68710713057677
H            3.65153543653898       -4.78822589116654       -1.51582493801646
H            1.34015588610848       -4.14345217784523       -0.91703360111403
H            0.67866775846102       -2.24309266303887       -2.99898694548464
H           -1.10863327166306       -2.29542823733502       -4.67965517216874
H           -3.44125516890562       -1.81009570243332       -4.03310782215554
H           -3.98832904197958       -1.24700127004939       -1.70677139179811
H           -3.97959799710879       -2.94472141642539        0.84668074796693
H           -6.30130552692965       -2.79911205321321        1.65503241126637
H           -7.31507989996258       -0.56735750524919        2.05043970598527
H           -5.99296621706216        1.46797430663682        1.56999461017609
H           -1.65012876068590        1.46365535244611        0.35212503306321
H           -2.72522538353253        1.17573818825305       -1.04014901519816
H           -3.49815212720244        3.56771282817720       -0.85251669025390
H           -2.25574052143556        3.84323858821759        0.36811418497714
H           -1.72134309370286        2.90943372227557       -2.49414466958797
H           -1.60115155605611        4.58052397054507       -1.94006129368906
H            0.18520614922633        3.88210295791542       -0.31291408634254
H            0.12693721446266        2.24903331433508       -0.98521564296693
H            0.63115016871506        3.60019872840017       -1.99826217614046
H           -2.54129725758868       -0.44867950159394        2.92658861983836
H           -0.76053617794686       -0.40858508519176        4.61363844076268
H            1.55461056237971       -1.00111543627596        3.99375874108393
H            2.09766183285680       -1.61637442645836        1.68244184232858

          :  Hamiltonian                  GFN2-xTB          :
         :: gradient norm              0.000032203626 Eh/a0 ::
         :: HOMO-LUMO gap              2.142563564705 eV    ::
         :: SCC energy               -99.987589948127 Eh    ::
         :: -> dispersion             -0.087363481086 Eh    ::
         :: -> Gsolv                  -0.037746662902 Eh    ::
         :: repulsion energy           1.656891519075 Eh    ::

    * Orbital Energies and Occupations

         #    Occupation            Energy/Eh            Energy/eV
      -------------------------------------------------------------
         1        2.0000           -0.7156847             -19.4748
       ...           ...                  ...                  ...
        79        2.0000           -0.4266814             -11.6106
        80        2.0000           -0.4260166             -11.5925
        81        2.0000           -0.4238393             -11.5333
        82        2.0000           -0.4195185             -11.4157
        83        2.0000           -0.4177091             -11.3664
        84        2.0000           -0.4057808             -11.0419
        85        2.0000           -0.4033556             -10.9759
        86        2.0000           -0.4019460             -10.9375
        87        2.0000           -0.3992580             -10.8644
        88        2.0000           -0.3978169             -10.8251
        89        2.0000           -0.3786743             -10.3043
        90        2.0000           -0.3761817             -10.2364
        91        2.0000           -0.3577916              -9.7360 (HOMO)
        92                         -0.2790539              -7.5934 (LUMO)
        93                         -0.2310147              -6.2862
        94                         -0.2257498              -6.1430
        95                         -0.2241673              -6.0999
        96                         -0.2204013              -5.9974
        97                         -0.2160869              -5.8800
        98                         -0.2156039              -5.8669
        99                         -0.1761805              -4.7941
       100                         -0.1725157              -4.6944
       101                         -0.0987587              -2.6874
       102                         -0.0935647              -2.5460
       ...                                ...                  ...
       178                          0.7141413              19.4328
      -------------------------------------------------------------
                  HL-Gap            0.0787378 Eh            2.1426 eV

     #   Z          covCN         q      C6AA      α(0)
     1   6 C        3.752    -0.104    22.543     6.771
     2   6 C        3.801    -0.055    21.567     6.612
     3   6 C        3.801    -0.065    21.751     6.640
     4   6 C        3.690     0.078    19.465     6.314
     5   8 O        1.704    -0.296    18.928     5.874
     6   6 C        2.861     0.141    24.924     8.183
     7   6 C        2.917    -0.069    29.711     8.938
     8   6 C        2.921    -0.035    28.870     8.811
     9   6 C        2.916    -0.044    29.093     8.845
    10   6 C        2.925    -0.035    28.864     8.811
    11   6 C        2.977    -0.009    28.246     8.718
    12   6 C        2.977     0.002    27.976     8.676
    13   6 C        2.983     0.005    27.896     8.664
    14   6 C        2.917    -0.033    28.833     8.805
    15   6 C        2.914    -0.031    28.782     8.797
    16   6 C        2.914    -0.031    28.780     8.797
    17   6 C        2.917    -0.036    28.886     8.813
    18   6 C        2.983     0.003    27.956     8.673
    19   6 C        2.978    -0.004    28.110     8.697
    20   6 C        2.972    -0.019    28.466     8.752
    21   6 C        2.931    -0.035    28.866     8.811
    22   6 C        2.917    -0.043    29.068     8.841
    23   6 C        2.919    -0.033    28.826     8.804
    24   6 C        2.922    -0.057    29.409     8.893
    25   6 C        2.856     0.138    24.975     8.191
    26   8 O        1.706    -0.303    19.038     5.891
    27   6 C        3.685     0.089    19.295     6.289
    28   6 C        3.801    -0.064    21.724     6.636
    29   6 C        3.800    -0.056    21.582     6.614
    30   6 C        3.751    -0.104    22.553     6.773
    31   6 C        2.984     0.004    27.930     8.669
    32   6 C        2.917    -0.034    28.843     8.807
    33   6 C        2.914    -0.031    28.776     8.796
    34   6 C        2.914    -0.031    28.785     8.798
    35   6 C        2.917    -0.031    28.774     8.796
    36   6 C        2.983     0.008    27.845     8.656
    37   1 H        0.925     0.037     2.483     2.464
    38   1 H        0.925     0.038     2.478     2.462
    39   1 H        0.925     0.039     2.462     2.454
    40   1 H        0.924     0.033     2.544     2.494
    41   1 H        0.924     0.035     2.519     2.482
    42   1 H        0.924     0.043     2.416     2.431
    43   1 H        0.924     0.040     2.447     2.446
    44   1 H        0.924     0.031     2.568     2.506
    45   1 H        0.924     0.053     2.280     2.361
    46   1 H        0.926     0.040     2.454     2.450
    47   1 H        0.926     0.036     2.507     2.476
    48   1 H        0.926     0.035     2.521     2.483
    49   1 H        0.926     0.035     2.519     2.482
    50   1 H        0.926     0.031     2.570     2.507
    51   1 H        0.926     0.031     2.570     2.507
    52   1 H        0.926     0.031     2.576     2.510
    53   1 H        0.926     0.028     2.620     2.531
    54   1 H        0.926     0.033     2.542     2.493
    55   1 H        0.926     0.036     2.504     2.475
    56   1 H        0.926     0.038     2.470     2.458
    57   1 H        0.926     0.043     2.405     2.425
    58   1 H        0.924     0.029     2.600     2.521
    59   1 H        0.924     0.027     2.630     2.536
    60   1 H        0.924     0.046     2.369     2.407
    61   1 H        0.924     0.047     2.352     2.398
    62   1 H        0.924     0.033     2.540     2.492
    63   1 H        0.924     0.042     2.426     2.436
    64   1 H        0.925     0.039     2.469     2.457
    65   1 H        0.925     0.035     2.510     2.478
    66   1 H        0.925     0.038     2.476     2.461
    67   1 H        0.926     0.028     2.621     2.531
    68   1 H        0.926     0.030     2.584     2.514
    69   1 H        0.926     0.031     2.575     2.509
    70   1 H        0.926     0.030     2.592     2.517

molecular dipole:
                 x           y           z       tot (Debye)
 q only:        0.965       0.410      -0.243
   full:        1.145       0.323      -0.331       3.139

 projected vibrational frequencies (cm⁻¹)
eigval :       -0.00    -0.00    -0.00     0.00     0.00     0.00
eigval :        8.32    20.84    21.59    28.77    33.15    43.81
eigval :       49.46    53.72    56.80    61.50    69.55    74.04
eigval :       83.50   104.29   111.84   118.34   131.92   145.75
eigval :      156.51   162.24   168.85   192.47   200.78   213.26
eigval :      215.62   226.27   239.73   273.55   276.16   287.73
eigval :      298.05   305.10   325.94   359.46   388.80   397.65
eigval :      398.05   410.35   425.75   428.61   444.04   458.01
eigval :      459.59   461.98   491.08   508.65   511.41   516.50
eigval :      562.22   568.29   585.53   588.73   592.63   607.38
eigval :      611.64   634.98   666.44   687.75   694.24   703.98
eigval :      716.91   742.84   769.64   771.91   775.35   777.30
eigval :      781.12   787.63   791.60   818.19   835.40   840.30
eigval :      869.13   872.87   876.16   876.62   895.54   905.73
eigval :      909.18   911.63   912.79   915.67   918.81   920.61
eigval :      920.86   924.64   928.08   931.75   936.73   941.50
eigval :      950.00   969.52  1016.60  1018.97  1047.64  1066.27
eigval :     1077.35  1079.44  1090.68  1097.97  1100.54  1102.35
eigval :     1121.04  1123.39  1128.55  1132.88  1135.12  1150.82
eigval :     1153.56  1164.03  1173.89  1176.98  1178.24  1181.11
eigval :     1202.01  1203.18  1204.57  1218.97  1225.71  1228.14
eigval :     1238.72  1247.29  1252.29  1256.69  1260.20  1261.98
eigval :     1264.27  1271.10  1274.61  1279.28  1303.84  1310.60
eigval :     1317.20  1325.40  1335.70  1347.60  1350.35  1358.69
eigval :     1363.70  1366.27  1384.00  1410.08  1413.48  1418.04
eigval :     1419.21  1427.60  1432.87  1441.65  1461.29  1473.50
eigval :     1479.78  1481.53  1483.55  1489.03  1489.92  1492.49
eigval :     1495.79  1495.90  1501.04  1502.31  1510.16  1524.94
eigval :     1530.11  1541.41  1569.20  1576.37  1589.28  1593.84
eigval :     1607.13  1621.41  2902.81  2910.14  2929.65  2962.13
eigval :     2963.86  2970.38  2972.13  2977.97  2980.41  2982.00
eigval :     2989.76  2990.77  3025.88  3028.28  3029.17  3031.39
eigval :     3037.28  3045.43  3066.35  3067.59  3069.98  3071.68
eigval :     3073.55  3074.28  3076.73  3079.50  3080.60  3083.60
eigval :     3088.85  3089.96  3090.45  3091.60  3098.14  3103.80

   temp. (K)  partition function   enthalpy   heat capacity  entropy
                                   cal/mol     cal/K/mol   cal/K/mol   J/K/mol
 298.15  VIB  0.615E+16            19439.619    117.121    123.919
         ROT  0.284E+08              888.752      2.981     37.085
         INT  0.175E+24            20328.372    120.102    161.003
         TR   0.100E+29             1481.254      4.968     44.340
         TOT                       21809.6256   125.0697   205.3434   859.1569

       T/K    H(0)-H(T)+PV         H(T)/Eh          T*S/Eh         G(T)/Eh
   ------------------------------------------------------------------------
    298.15    0.347559E-01    0.609533E+00    0.975653E-01    0.511968E+00
   ------------------------------------------------------------------------

         :::::::::::::::::::::::::::::::::::::::::::::::::::::
         ::                  THERMODYNAMIC                  ::
         :::::::::::::::::::::::::::::::::::::::::::::::::::::
         :: total free energy         -97.818730707905 Eh   ::
         ::.................................................::
         :: total energy              -98.330698428474 Eh   ::
         :: zero point energy           0.574777155310 Eh   ::
         :: G(RRHO) w/o ZPVE           -0.062809434741 Eh   ::
         :: G(RRHO) contrib.            0.511967720569 Eh   ::
         :::::::::::::::::::::::::::::::::::::::::::::::::::::

           -------------------------------------------------
          | TOTAL ENERGY              -98.330698428474 Eh   |
          | TOTAL ENTHALPY            -97.721165422457 Eh   |
          | TOTAL FREE ENERGY         -97.818730707905 Eh   |
          | GRADIENT NORM               0.000032200624 Eh/α |
          | HOMO-LUMO GAP               2.142563560753 eV   |
           -------------------------------------------------

 * finished run on 2025/07/20 at 08:35:57.501
