   * xtb version 6.7.1 (edcfbbe) compiled by 'albert@albert-system' on 2024-07-22

   ID    Z sym.   atoms
    1    6 C      1-4, 6-25, 27-36
    2    8 O      5, 26
    3    1 H      37-70

          program call               : xtb data2507/toluene/BBPA/BBPA_toluene_T1_crest.xyz --gfn 2 --uhf 2 --gbsa toluene --ohess vtight --parallel 40 --molden --ceasefiles --namespace data2507/toluene/BBPA/BBPA_toluene_T1_finalOpt
      * Solvation model:               GBSA
        Solvent                        toluene
        Solvent mass                       9.2140E+01 g/mol
          :  Hamiltonian                  GFN2-xTB          :
 * total energy  :   -98.2617181 Eh     change       -0.3987424E-09 Eh
 * total energy  :   -98.2617930 Eh     change       -0.7485952E-04 Eh
 * total energy  :   -98.2618615 Eh     change       -0.6852218E-04 Eh
 * total energy  :   -98.2619088 Eh     change       -0.4726634E-04 Eh
 * total energy  :   -98.2619485 Eh     change       -0.3969722E-04 Eh
 * total energy  :   -98.2620041 Eh     change       -0.5560026E-04 Eh
 * total energy  :   -98.2620370 Eh     change       -0.3288171E-04 Eh
 * total energy  :   -98.2620510 Eh     change       -0.1401032E-04 Eh
 * total energy  :   -98.2620804 Eh     change       -0.2943908E-04 Eh
 * total energy  :   -98.2620952 Eh     change       -0.1478582E-04 Eh
 * total energy  :   -98.2628624 Eh     change       -0.5535143E-05 Eh
 * total energy  :   -98.2628691 Eh     change       -0.6752012E-05 Eh
 * total energy  :   -98.2628729 Eh     change       -0.3779816E-05 Eh
 * total energy  :   -98.2628746 Eh     change       -0.1670572E-05 Eh
 * total energy  :   -98.2628760 Eh     change       -0.1397951E-05 Eh
 * total energy  :   -98.2628773 Eh     change       -0.1309321E-05 Eh
 * total energy  :   -98.2628784 Eh     change       -0.1077226E-05 Eh
 * total energy  :   -98.2628790 Eh     change       -0.6116880E-06 Eh
 * total energy  :   -98.2628790 Eh     change       -0.4229928E-07 Eh
   *** GEOMETRY OPTIMIZATION CONVERGED AFTER 111 ITERATIONS ***

 final structure:
================
70
 xtb: 6.7.1 (edcfbbe)
C            1.23398743023278        1.72208847414332        4.46556082754283
C            0.95762640246491        0.53880459916594        3.54579429838136
C            2.20395921577294        0.12813417051240        2.76706469592023
C            1.90722820738079       -1.02657749217085        1.81209914263156
O            3.04072938270376       -1.42825860263595        1.06365880692859
C            3.63567195390701       -0.55334391775741        0.19005999937119
C            5.02552133596180       -0.64602895737565        0.12483266967262
C            5.75967621432289        0.15059203821757       -0.73058630650675
C            5.10969361163014        1.07625187195836       -1.53147947701494
C            3.73392415959479        1.17154998796808       -1.47944442692723
C            2.96623824212777        0.35776075840527       -0.64262824358428
C            1.50193528276189        0.48537927756768       -0.72166167222994
C            0.87121348336667        1.68276466770037       -0.27030513299215
C            1.60419188849159        2.72062726967188        0.31211278726822
C            0.97681010785916        3.85682517563148        0.82473470177373
C           -0.39593408159572        3.95477279219265        0.78943953556701
C           -1.15279684585049        2.93004235513333        0.21833892520232
C           -0.54992475784206        1.80275641563716       -0.34558378988560
C           -1.31703965503277        0.75207114004223       -0.93531877036555
C           -2.77349599974954        0.87427789303146       -1.01834837886821
C           -3.36373806649129        1.91191328642377       -1.73570729982429
C           -4.73808864576904        2.02805798942826       -1.83107977652465
C           -5.54681247555856        1.10591598592983       -1.19061602784209
C           -4.98714817815066        0.07206642128104       -0.45598979971519
C           -3.60729527026395       -0.05762243602866       -0.36108967577265
O           -2.96843671906131       -1.01197867123738        0.36804191206215
C           -3.73379294013896       -1.97738076918881        1.06555141770585
C           -2.77114790316939       -2.96607383019353        1.71605276190790
C           -2.04369334021906       -3.81772387227537        0.67761744901760
C           -1.06452608217269       -4.79062556890597        1.32206664256735
C           -0.67374538520715       -0.40716012826070       -1.46505075190097
C           -1.38177058244501       -1.38268259521141       -2.17072948330309
C           -0.74765450325846       -2.51522987509170       -2.68355871710951
C            0.61080632920629       -2.67560368725692       -2.52173555174392
C            1.35237335953839       -1.69190455138020       -1.86729447537502
C            0.73964394497352       -0.55408210980996       -1.33696117368929
H            1.57127961523220        2.57937960518938        3.88735481291187
H            2.00517665858921        1.47055283970534        5.19060099102921
H            0.33248938894796        2.00429007678149        5.00445583934916
H            0.16832847649997        0.80472011251845        2.83837573491477
H            0.60418381725500       -0.30918255693246        4.13694794360243
H            2.99795510185512       -0.17050927959411        3.45587537580394
H            2.56528866925953        0.98140276537794        2.18837233204415
H            1.07497159735110       -0.75756314193467        1.15258565614978
H            1.63265279394643       -1.92411019621907        2.37316554204895
H            5.50945009803296       -1.36495689436871        0.76888771982651
H            6.83465785046817        0.05613263184753       -0.76416325026010
H            5.67040674121407        1.71377939458420       -2.19839984431198
H            3.21603562101824        1.87150819890319       -2.11994705790055
H            2.68010061211984        2.64375410021823        0.36707076656852
H            1.57471603687349        4.64470079414207        1.25892509678248
H           -0.89663052508520        4.81738294738234        1.20384226875029
H           -2.22898841603100        3.00976932841298        0.21910717318052
H           -2.72231775023327        2.61618991516145       -2.24562186924863
H           -5.17464927848207        2.83094891791510       -2.40575632329210
H           -6.62179839917631        1.18622059902834       -1.25556589120720
H           -5.63887997881396       -0.62634699547181        0.04498049788349
H           -4.34510776577819       -1.48216951259364        1.83324220430625
H           -4.39859991752139       -2.50763939993767        0.37012907766405
H           -2.04317022205327       -2.40477907139711        2.30412971605958
H           -3.34033547479505       -3.60741526263872        2.39162482733430
H           -2.77916144294434       -4.37791588078391        0.09442862421321
H           -1.50878278412258       -3.15687971330415       -0.00666768503727
H           -0.30625004736460       -4.25235706722473        1.88586926304531
H           -1.58414579476444       -5.46474702465543        2.00029677081642
H           -0.56510180478211       -5.38477449786971        0.56033383754611
H           -2.44213680619454       -1.25676742213410       -2.32930032586530
H           -1.33013602796198       -3.25957928600524       -3.20654808463421
H            1.11201266985929       -3.55010904472129       -2.90967049889550
H            2.42163625447959       -1.80999076612313       -1.77454475506270

          :  Hamiltonian                  GFN2-xTB          :
         :: gradient norm              0.000143572988 Eh/a0 ::
         :: HOMO-LUMO gap              1.581191463043 eV    ::
         :: SCC energy               -99.901753885725 Eh    ::
         :: -> dispersion             -0.090848898362 Eh    ::
         :: -> Gsolv                  -0.036308712239 Eh    ::
         :: repulsion energy           1.638874876534 Eh    ::

    * Orbital Energies and Occupations

         #    Occupation            Energy/Eh            Energy/eV
      -------------------------------------------------------------
         1        2.0000           -0.7170683             -19.5124
       ...           ...                  ...                  ...
        80        2.0000           -0.4252334             -11.5712
        81        2.0000           -0.4237518             -11.5309
        82        2.0000           -0.4181998             -11.3798
        83        2.0000           -0.4132288             -11.2445
        84        2.0000           -0.4055337             -11.0351
        85        2.0000           -0.4022862             -10.9468
        86        2.0000           -0.4006898             -10.9033
        87        2.0000           -0.4000994             -10.8873
        88        2.0000           -0.3987465             -10.8504
        89        2.0000           -0.3803471             -10.3498
        90        2.0000           -0.3790233             -10.3137
        91        1.0000           -0.3483484              -9.4790
        92        1.0000           -0.2861362              -7.7862 (HOMO)
        93                         -0.2280286              -6.2050 (LUMO)
        94                         -0.2263369              -6.1589
        95                         -0.2256828              -6.1411
        96                         -0.2217651              -6.0345
        97                         -0.2192669              -5.9666
        98                         -0.2164937              -5.8911
        99                         -0.1770816              -4.8186
       100                         -0.1731850              -4.7126
       101                         -0.0972646              -2.6467
       102                         -0.0964477              -2.6245
       103                         -0.0934245              -2.5422
       ...                                ...                  ...
       178                          0.7080536              19.2671
      -------------------------------------------------------------
                  HL-Gap            0.0581076 Eh            1.5812 eV

     #   Z          covCN         q      C6AA      α(0)
     1   6 C        3.752    -0.103    22.524     6.768
     2   6 C        3.801    -0.053    21.522     6.605
     3   6 C        3.801    -0.065    21.746     6.639
     4   6 C        3.688     0.082    19.398     6.304
     5   8 O        1.704    -0.308    19.137     5.906
     6   6 C        2.857     0.139    24.969     8.190
     7   6 C        2.920    -0.055    29.364     8.886
     8   6 C        2.918    -0.033    28.819     8.803
     9   6 C        2.916    -0.041    29.025     8.835
    10   6 C        2.929    -0.035    28.860     8.810
    11   6 C        2.971    -0.013    28.333     8.731
    12   6 C        2.974    -0.006    28.167     8.706
    13   6 C        2.976     0.007    27.851     8.657
    14   6 C        2.920    -0.039    28.958     8.825
    15   6 C        2.913    -0.032    28.798     8.800
    16   6 C        2.913    -0.032    28.793     8.799
    17   6 C        2.920    -0.040    28.988     8.829
    18   6 C        2.976     0.007    27.849     8.656
    19   6 C        2.972    -0.004    28.128     8.699
    20   6 C        2.974    -0.008    28.203     8.711
    21   6 C        2.924    -0.035    28.872     8.812
    22   6 C        2.915    -0.043    29.074     8.842
    23   6 C        2.920    -0.034    28.841     8.807
    24   6 C        2.915    -0.070    29.754     8.945
    25   6 C        2.864     0.141    24.933     8.185
    26   8 O        1.705    -0.285    18.739     5.845
    27   6 C        3.691     0.085    19.347     6.294
    28   6 C        3.802    -0.064    21.725     6.636
    29   6 C        3.801    -0.052    21.508     6.603
    30   6 C        3.752    -0.103    22.531     6.769
    31   6 C        2.976     0.011    27.777     8.645
    32   6 C        2.921    -0.034    28.840     8.807
    33   6 C        2.913    -0.032    28.804     8.801
    34   6 C        2.913    -0.032    28.799     8.800
    35   6 C        2.920    -0.037    28.928     8.820
    36   6 C        2.977     0.007    27.855     8.657
    37   1 H        0.925     0.037     2.490     2.468
    38   1 H        0.925     0.039     2.461     2.453
    39   1 H        0.925     0.039     2.468     2.457
    40   1 H        0.924     0.029     2.599     2.521
    41   1 H        0.924     0.034     2.533     2.489
    42   1 H        0.924     0.042     2.419     2.432
    43   1 H        0.924     0.038     2.477     2.461
    44   1 H        0.924     0.033     2.538     2.492
    45   1 H        0.924     0.047     2.352     2.399
    46   1 H        0.926     0.044     2.392     2.419
    47   1 H        0.926     0.039     2.455     2.450
    48   1 H        0.926     0.038     2.477     2.461
    49   1 H        0.926     0.037     2.492     2.469
    50   1 H        0.926     0.028     2.618     2.530
    51   1 H        0.926     0.029     2.608     2.525
    52   1 H        0.926     0.030     2.593     2.518
    53   1 H        0.926     0.031     2.579     2.511
    54   1 H        0.926     0.038     2.471     2.458
    55   1 H        0.926     0.036     2.501     2.473
    56   1 H        0.926     0.036     2.496     2.471
    57   1 H        0.926     0.036     2.505     2.475
    58   1 H        0.923     0.031     2.573     2.509
    59   1 H        0.923     0.032     2.556     2.500
    60   1 H        0.924     0.050     2.322     2.383
    61   1 H        0.924     0.046     2.366     2.405
    62   1 H        0.924     0.032     2.559     2.501
    63   1 H        0.924     0.038     2.472     2.459
    64   1 H        0.925     0.034     2.524     2.484
    65   1 H        0.925     0.038     2.477     2.461
    66   1 H        0.925     0.037     2.493     2.469
    67   1 H        0.926     0.026     2.644     2.543
    68   1 H        0.926     0.029     2.600     2.521
    69   1 H        0.926     0.029     2.606     2.524
    70   1 H        0.926     0.027     2.634     2.538

molecular dipole:
                 x           y           z       tot (Debye)
 q only:       -0.577       0.015       0.530
   full:       -0.859       0.018       0.497       2.521

 projected vibrational frequencies (cm⁻¹)
eigval :       -0.00    -0.00     0.00     0.00     0.00     0.00
eigval :      -11.37    15.70    20.94    27.19    34.78    43.95
eigval :       47.57    57.87    61.10    62.67    70.90    76.27
eigval :       79.48   106.35   118.15   126.98   128.61   144.29
eigval :      156.65   179.42   183.15   196.32   200.00   215.99
eigval :      224.18   226.87   228.62   265.42   268.93   279.72
eigval :      284.72   294.36   334.23   350.51   379.01   386.47
eigval :      387.48   397.98   411.71   420.93   442.51   451.09
eigval :      464.73   470.34   477.73   486.55   500.80   511.30
eigval :      552.43   574.12   579.82   580.87   585.36   599.08
eigval :      604.45   612.05   659.75   667.47   687.67   700.11
eigval :      715.48   717.93   743.10   755.69   767.61   770.20
eigval :      774.12   778.99   788.35   819.36   831.48   833.98
eigval :      838.87   859.69   876.88   881.11   882.84   884.11
eigval :      890.92   895.35   901.77   903.04   903.73   906.39
eigval :      910.48   914.11   920.40   920.67   942.41   943.05
eigval :      948.10   979.42   996.46  1016.92  1067.78  1076.00
eigval :     1086.99  1094.48  1097.17  1098.84  1099.92  1100.95
eigval :     1105.37  1109.47  1117.33  1129.80  1137.17  1138.44
eigval :     1148.29  1162.45  1171.74  1177.50  1178.66  1180.96
eigval :     1184.83  1191.47  1214.49  1219.36  1223.29  1225.83
eigval :     1231.41  1242.37  1246.33  1253.47  1255.81  1263.77
eigval :     1269.79  1274.70  1278.13  1281.13  1290.79  1292.61
eigval :     1301.96  1306.30  1313.56  1333.29  1336.69  1341.58
eigval :     1364.35  1367.46  1369.46  1370.89  1379.74  1405.53
eigval :     1409.99  1411.06  1411.65  1423.43  1427.39  1444.40
eigval :     1453.02  1461.90  1467.29  1478.80  1479.82  1481.09
eigval :     1486.27  1492.73  1495.25  1496.89  1499.52  1499.83
eigval :     1500.80  1517.37  1528.34  1554.97  1557.72  1559.57
eigval :     1573.30  1583.06  2870.74  2895.35  2926.47  2960.00
eigval :     2962.83  2963.14  2974.17  2977.83  2979.53  2986.97
eigval :     2994.57  2997.39  3025.42  3028.47  3031.78  3032.28
eigval :     3037.55  3038.69  3070.39  3071.93  3072.16  3075.89
eigval :     3078.06  3079.62  3079.65  3080.32  3087.20  3088.24
eigval :     3088.86  3091.50  3093.83  3096.41  3096.96  3102.46

   temp. (K)  partition function   enthalpy   heat capacity  entropy
                                   cal/mol     cal/K/mol   cal/K/mol   J/K/mol
 298.15  VIB  0.548E+16            19576.113    118.459    124.296
         ROT  0.251E+08              888.752      2.981     36.840
         INT  0.138E+24            20464.866    121.440    161.136
         TR   0.100E+29             1481.254      4.968     44.340
         TOT                       21946.1194   126.4082   205.4762   859.7125

       T/K    H(0)-H(T)+PV         H(T)/Eh          T*S/Eh         G(T)/Eh
   ------------------------------------------------------------------------
    298.15    0.349734E-01    0.606725E+00    0.976284E-01    0.509096E+00
   ------------------------------------------------------------------------

         :::::::::::::::::::::::::::::::::::::::::::::::::::::
         ::                  THERMODYNAMIC                  ::
         :::::::::::::::::::::::::::::::::::::::::::::::::::::
         :: total free energy         -97.753782512382 Eh   ::
         ::.................................................::
         :: total energy              -98.262879008323 Eh   ::
         :: zero point energy           0.571751511886 Eh   ::
         :: G(RRHO) w/o ZPVE           -0.062655015946 Eh   ::
         :: G(RRHO) contrib.            0.509096495940 Eh   ::
         :::::::::::::::::::::::::::::::::::::::::::::::::::::

           -------------------------------------------------
          | TOTAL ENERGY              -98.262879008323 Eh   |
          | TOTAL ENTHALPY            -97.656154128972 Eh   |
          | TOTAL FREE ENERGY         -97.753782512382 Eh   |
          | GRADIENT NORM               0.000143467366 Eh/α |
          | HOMO-LUMO GAP               1.581188870671 eV   |
           -------------------------------------------------

 * finished run on 2025/07/20 at 08:59:29.985
