   * xtb version 6.7.1 (edcfbbe) compiled by 'albert@albert-system' on 2024-07-22

   ID    Z sym.   atoms
    1    6 C      1-4, 6-25, 27-36
    2    8 O      5, 26
    3    1 H      37-70

          program call               : xtb data2507/toluene/BBPA/BBPA_toluene_S0_crest.xyz --gfn 2 --gbsa toluene --ohess vtight --parallel 40 --molden --ceasefiles --namespace data2507/toluene/BBPA/BBPA_toluene_S0_finalOpt
      * Solvation model:               GBSA
        Solvent                        toluene
        Solvent mass                       9.2140E+01 g/mol
          :  Hamiltonian                  GFN2-xTB          :
 * total energy  :   -98.3317890 Eh     change       -0.1876785E-08 Eh
 * total energy  :   -98.3318621 Eh     change       -0.7312468E-04 Eh
 * total energy  :   -98.3319279 Eh     change       -0.6579289E-04 Eh
 * total energy  :   -98.3319737 Eh     change       -0.4573527E-04 Eh
 * total energy  :   -98.3320138 Eh     change       -0.4012717E-04 Eh
 * total energy  :   -98.3320657 Eh     change       -0.5192646E-04 Eh
 * total energy  :   -98.3320961 Eh     change       -0.3040857E-04 Eh
 * total energy  :   -98.3321109 Eh     change       -0.1481023E-04 Eh
 * total energy  :   -98.3321348 Eh     change       -0.2381614E-04 Eh
 * total energy  :   -98.3321484 Eh     change       -0.1361381E-04 Eh
 * total energy  :   -98.3326458 Eh     change       -0.4983677E-06 Eh
 * total energy  :   -98.3326462 Eh     change       -0.3871593E-06 Eh
 * total energy  :   -98.3326465 Eh     change       -0.3261137E-06 Eh
 * total energy  :   -98.3326468 Eh     change       -0.2618869E-06 Eh
 * total energy  :   -98.3326470 Eh     change       -0.2088329E-06 Eh
 * total energy  :   -98.3326472 Eh     change       -0.1936083E-06 Eh
 * total energy  :   -98.3326473 Eh     change       -0.1388222E-06 Eh
 * total energy  :   -98.3326474 Eh     change       -0.1177982E-06 Eh
 * total energy  :   -98.3326474 Eh     change       -0.1369358E-07 Eh
   *** GEOMETRY OPTIMIZATION CONVERGED AFTER 140 ITERATIONS ***

 final structure:
================
70
 xtb: 6.7.1 (edcfbbe)
C            1.22512151883881        1.72562200441029       -4.50048187864815
C            0.97719381622363        0.53926789972932       -3.57654163376095
C            2.22778772234977        0.17335962747443       -2.78279637545149
C            1.96383521571131       -0.99198750829048       -1.83042959899630
O            3.11089487757493       -1.35641184031002       -1.08290375643199
C            3.66734045736990       -0.48512600472817       -0.18035081119016
C            5.06066807730486       -0.54075494143679       -0.10970295011402
C            5.76698922905039        0.22911497304190        0.79120929293160
C            5.08754945478372        1.08719547703877        1.64053827067055
C            3.70899942565002        1.14330803077318        1.58427271648314
C            2.97401314236848        0.36321075543341        0.69251976439619
C            1.49608510558200        0.46266337494216        0.76931998042555
C            0.76470572428020       -0.55688718945802        1.39922762767020
C            1.39989297201777       -1.70695452667570        1.93693369484260
C            0.68303441933043       -2.68205441897768        2.55988200146261
C           -0.71448870325868       -2.55958980571561        2.69590905432224
C           -1.36029757288914       -1.47001061029200        2.19719527672321
C           -0.65502707992220       -0.43993819081853        1.52138552062098
C           -1.31168067041702        0.68057996477490        0.99381895588033
C           -2.78373697223317        0.79493599507567        1.10649128378040
C           -3.35800701730043        1.69529101797708        1.99022632381860
C           -4.73463931871409        1.80731494337528        2.09913254779925
C           -5.54506316035211        1.01648684853235        1.30705229504178
C           -4.99218717125107        0.11179943636015        0.41404041813049
C           -3.61189294701254       -0.01349007187968        0.30874896846520
O           -2.96888286526542       -0.87032283383916       -0.53278176124227
C           -3.72902797761333       -1.80499031537949       -1.27617321246833
C           -2.76256471575223       -2.78062069132220       -1.94066819223140
C           -2.04262014215949       -3.65322896236220       -0.91416542795726
C           -1.06002377395836       -4.61361483134952       -1.57199945558140
C           -0.58038070202240        1.70282888039620        0.37320757570456
C           -1.21544950723025        2.84266091014568       -0.18823872263486
C           -0.49473782704809        3.83951697801773       -0.77031264826649
C            0.91146393888736        3.75979466489004       -0.82706719397935
C            1.55767216948967        2.67383195888580       -0.32206133445191
C            0.84370945646306        1.60564481021082        0.28335111445816
H            1.52827436740314        2.59675394738131       -3.92425152739041
H            0.32100863610314        1.97500961020542       -5.05106790413805
H            2.01205747353632        1.49498323099982       -5.21550723254215
H            0.65878814377862       -0.32269544595233       -4.16730048832890
H            0.17213046705271        0.78291898783884       -2.87907254761133
H            2.55289479333205        1.03872164044842       -2.20127079668881
H            3.03905745632283       -0.09811075990289       -3.46270475884283
H            1.72515534549380       -1.89686560316045       -2.39647242715020
H            1.11895322955613       -0.75696057515767       -1.17580559722833
H            5.56782714303300       -1.21479691141644       -0.78367747576100
H            6.84430218097570        0.16427791054611        0.82517710763940
H            5.62618578651062        1.70197350818385        2.34579205242747
H            3.16659969471833        1.79477138751341        2.25529367509123
H            2.47273307056152       -1.79390266501106        1.84486536158974
H            1.18049366745207       -3.55273380946413        2.96199646097894
H           -1.26705992157671       -3.33743799750058        3.20301551195761
H           -2.42953548864249       -1.36999055431814        2.31306407678814
H           -2.71074344354789        2.30773801900237        2.60161092448322
H           -5.16758852376816        2.50907894516141        2.79580470379000
H           -6.61984234888714        1.09820500363101        1.37688010910562
H           -5.64665870844881       -0.48801766833581       -0.19880612119022
H           -4.40987018982583       -2.35183034503087       -0.60990956847478
H           -4.32330849852223       -1.28064369459366       -2.03811958072324
H           -3.32738897017918       -3.40754458528137       -2.63312260030665
H           -2.02986826041912       -2.20848788218492       -2.51184513840726
H           -1.51151315016941       -3.00631779827250       -0.21360415225367
H           -2.78181523929487       -4.22393606310643       -0.34602725145486
H           -1.57762426164430       -5.28003765603302       -2.25929489668144
H           -0.30434432535272       -4.06463854632604       -2.12907823116861
H           -0.55793891463652       -5.21639046431575       -0.81877936456009
H           -2.29289150726191        2.90238186619522       -0.14465703289720
H           -0.99355175141536        4.69969812550185       -1.19293671477595
H            1.47022479459466        4.56604311499552       -1.28023944125748
H            2.63575278400228        2.61268275742937       -0.36673153982569

          :  Hamiltonian                  GFN2-xTB          :
         :: gradient norm              0.000095920828 Eh/a0 ::
         :: HOMO-LUMO gap              2.116354538351 eV    ::
         :: SCC energy               -99.989145058161 Eh    ::
         :: -> dispersion             -0.090552938187 Eh    ::
         :: -> Gsolv                  -0.036479967398 Eh    ::
         :: repulsion energy           1.656497635149 Eh    ::

    * Orbital Energies and Occupations

         #    Occupation            Energy/Eh            Energy/eV
      -------------------------------------------------------------
         1        2.0000           -0.7156606             -19.4741
       ...           ...                  ...                  ...
        79        2.0000           -0.4258961             -11.5892
        80        2.0000           -0.4252222             -11.5709
        81        2.0000           -0.4233768             -11.5207
        82        2.0000           -0.4189616             -11.4005
        83        2.0000           -0.4157071             -11.3120
        84        2.0000           -0.4048714             -11.0171
        85        2.0000           -0.4040442             -10.9946
        86        2.0000           -0.4016473             -10.9294
        87        2.0000           -0.3995399             -10.8720
        88        2.0000           -0.3983245             -10.8390
        89        2.0000           -0.3795481             -10.3280
        90        2.0000           -0.3784273             -10.2975
        91        2.0000           -0.3568137              -9.7094 (HOMO)
        92                         -0.2790391              -7.5930 (LUMO)
        93                         -0.2306923              -6.2775
        94                         -0.2259688              -6.1489
        95                         -0.2251376              -6.1263
        96                         -0.2201871              -5.9916
        97                         -0.2186515              -5.9498
        98                         -0.2158638              -5.8740
        99                         -0.1755523              -4.7770
       100                         -0.1719681              -4.6795
       101                         -0.0984675              -2.6794
       102                         -0.0952636              -2.5923
       ...                                ...                  ...
       178                          0.7139846              19.4285
      -------------------------------------------------------------
                  HL-Gap            0.0777746 Eh            2.1164 eV

     #   Z          covCN         q      C6AA      α(0)
     1   6 C        3.752    -0.103    22.523     6.768
     2   6 C        3.801    -0.053    21.521     6.605
     3   6 C        3.801    -0.065    21.747     6.639
     4   6 C        3.687     0.082    19.397     6.305
     5   8 O        1.704    -0.310    19.174     5.912
     6   6 C        2.855     0.138    24.975     8.191
     7   6 C        2.922    -0.055    29.373     8.888
     8   6 C        2.918    -0.033    28.824     8.804
     9   6 C        2.917    -0.042    29.031     8.836
    10   6 C        2.930    -0.035    28.878     8.813
    11   6 C        2.972    -0.014    28.359     8.735
    12   6 C        2.977    -0.001    28.049     8.687
    13   6 C        2.983     0.005    27.915     8.667
    14   6 C        2.917    -0.033    28.817     8.803
    15   6 C        2.914    -0.031    28.767     8.795
    16   6 C        2.914    -0.031    28.765     8.795
    17   6 C        2.917    -0.031    28.765     8.795
    18   6 C        2.983     0.008    27.843     8.655
    19   6 C        2.976     0.002    27.987     8.678
    20   6 C        2.977    -0.009    28.236     8.716
    21   6 C        2.924    -0.035    28.869     8.811
    22   6 C        2.916    -0.044    29.095     8.845
    23   6 C        2.920    -0.034    28.856     8.809
    24   6 C        2.916    -0.070    29.751     8.944
    25   6 C        2.865     0.139    24.962     8.190
    26   8 O        1.705    -0.291    18.833     5.859
    27   6 C        3.692     0.085    19.335     6.292
    28   6 C        3.802    -0.064    21.725     6.636
    29   6 C        3.801    -0.051    21.495     6.601
    30   6 C        3.752    -0.103    22.532     6.769
    31   6 C        2.983     0.005    27.900     8.664
    32   6 C        2.917    -0.034    28.847     8.807
    33   6 C        2.914    -0.031    28.762     8.794
    34   6 C        2.914    -0.030    28.758     8.794
    35   6 C        2.917    -0.033    28.830     8.805
    36   6 C        2.983     0.005    27.911     8.666
    37   1 H        0.925     0.037     2.491     2.468
    38   1 H        0.925     0.038     2.469     2.457
    39   1 H        0.925     0.039     2.464     2.455
    40   1 H        0.924     0.033     2.540     2.492
    41   1 H        0.924     0.029     2.597     2.520
    42   1 H        0.924     0.038     2.479     2.462
    43   1 H        0.924     0.042     2.428     2.437
    44   1 H        0.924     0.046     2.374     2.410
    45   1 H        0.924     0.030     2.587     2.515
    46   1 H        0.926     0.043     2.404     2.425
    47   1 H        0.926     0.039     2.465     2.455
    48   1 H        0.926     0.037     2.492     2.468
    49   1 H        0.926     0.035     2.514     2.480
    50   1 H        0.926     0.029     2.605     2.524
    51   1 H        0.926     0.030     2.586     2.515
    52   1 H        0.926     0.030     2.580     2.512
    53   1 H        0.926     0.028     2.615     2.529
    54   1 H        0.926     0.036     2.506     2.476
    55   1 H        0.926     0.035     2.517     2.481
    56   1 H        0.926     0.036     2.509     2.477
    57   1 H        0.926     0.035     2.523     2.484
    58   1 H        0.923     0.031     2.571     2.508
    59   1 H        0.923     0.029     2.598     2.521
    60   1 H        0.924     0.046     2.372     2.409
    61   1 H        0.924     0.050     2.325     2.384
    62   1 H        0.924     0.037     2.489     2.467
    63   1 H        0.924     0.032     2.560     2.502
    64   1 H        0.925     0.038     2.476     2.461
    65   1 H        0.925     0.034     2.525     2.485
    66   1 H        0.925     0.037     2.493     2.469
    67   1 H        0.926     0.030     2.585     2.514
    68   1 H        0.926     0.031     2.578     2.511
    69   1 H        0.926     0.030     2.588     2.516
    70   1 H        0.926     0.029     2.599     2.521

molecular dipole:
                 x           y           z       tot (Debye)
 q only:       -0.534       0.044      -0.466
   full:       -0.824       0.053      -0.446       2.385

 projected vibrational frequencies (cm⁻¹)
eigval :       -0.00    -0.00    -0.00    -0.00     0.00     0.00
eigval :       14.58    17.14    26.68    29.54    36.94    40.80
eigval :       43.13    58.26    64.22    70.40    74.50    76.08
eigval :       81.17   108.40   118.78   130.65   136.25   146.66
eigval :      157.90   177.24   187.02   194.52   199.95   217.55
eigval :      221.45   225.60   234.57   267.34   267.98   280.77
eigval :      285.48   295.21   334.37   374.70   386.24   392.31
eigval :      399.04   405.47   422.50   443.12   449.98   457.06
eigval :      460.83   476.29   482.41   491.32   504.94   516.64
eigval :      559.90   585.49   586.26   588.89   591.69   608.23
eigval :      610.80   632.60   666.25   690.94   694.26   706.48
eigval :      717.24   741.47   769.66   772.03   772.94   775.63
eigval :      777.23   782.05   791.32   819.92   836.26   862.69
eigval :      873.70   878.54   880.97   881.11   895.74   896.37
eigval :      906.96   909.00   913.52   914.69   917.13   918.99
eigval :      920.79   923.35   927.06   931.56   932.18   945.10
eigval :      951.15   979.14   996.74  1018.56  1067.76  1076.53
eigval :     1080.37  1081.13  1089.53  1096.95  1099.74  1100.36
eigval :     1106.59  1118.67  1130.83  1133.51  1136.98  1144.66
eigval :     1156.00  1164.86  1173.71  1178.65  1179.49  1182.84
eigval :     1200.07  1203.84  1220.36  1221.56  1223.50  1229.13
eigval :     1239.38  1244.41  1249.39  1256.18  1259.44  1262.79
eigval :     1266.56  1271.17  1279.30  1281.55  1302.35  1304.12
eigval :     1316.31  1324.14  1334.23  1342.16  1348.34  1364.88
eigval :     1366.12  1367.73  1383.43  1411.53  1411.80  1412.68
eigval :     1417.59  1427.40  1432.50  1440.78  1458.57  1460.19
eigval :     1467.53  1475.84  1482.47  1487.53  1489.63  1494.21
eigval :     1495.36  1498.69  1499.24  1500.55  1501.90  1524.82
eigval :     1528.12  1540.50  1566.63  1576.19  1589.32  1592.14
eigval :     1607.04  1621.21  2869.98  2896.16  2941.42  2961.49
eigval :     2962.56  2963.32  2974.75  2978.65  2979.77  2990.68
eigval :     2993.96  2997.82  3025.44  3028.27  3032.12  3032.74
eigval :     3038.30  3038.50  3067.18  3069.66  3070.69  3073.54
eigval :     3074.86  3075.77  3077.36  3078.63  3081.49  3084.34
eigval :     3089.11  3089.45  3090.75  3091.43  3097.33  3100.98

   temp. (K)  partition function   enthalpy   heat capacity  entropy
                                   cal/mol     cal/K/mol   cal/K/mol   J/K/mol
 298.15  VIB  0.201E+16            19345.291    117.316    122.340
         ROT  0.250E+08              888.752      2.981     36.834
         INT  0.503E+23            20234.043    120.297    159.174
         TR   0.100E+29             1481.254      4.968     44.340
         TOT                       21715.2973   125.2652   203.5139   851.5021

       T/K    H(0)-H(T)+PV         H(T)/Eh          T*S/Eh         G(T)/Eh
   ------------------------------------------------------------------------
    298.15    0.346055E-01    0.609453E+00    0.966960E-01    0.512757E+00
   ------------------------------------------------------------------------

         :::::::::::::::::::::::::::::::::::::::::::::::::::::
         ::                  THERMODYNAMIC                  ::
         :::::::::::::::::::::::::::::::::::::::::::::::::::::
         :: total free energy         -97.819890883142 Eh   ::
         ::.................................................::
         :: total energy              -98.332647423051 Eh   ::
         :: zero point energy           0.574847023386 Eh   ::
         :: G(RRHO) w/o ZPVE           -0.062090483476 Eh   ::
         :: G(RRHO) contrib.            0.512756539910 Eh   ::
         :::::::::::::::::::::::::::::::::::::::::::::::::::::

           -------------------------------------------------
          | TOTAL ENERGY              -98.332647423051 Eh   |
          | TOTAL ENTHALPY            -97.723194870678 Eh   |
          | TOTAL FREE ENERGY         -97.819890883142 Eh   |
          | GRADIENT NORM               0.000095892088 Eh/α |
          | HOMO-LUMO GAP               2.116354525322 eV   |
           -------------------------------------------------

 * finished run on 2025/07/20 at 08:49:04.419
