   * xtb version 6.7.1 (edcfbbe) compiled by 'albert@albert-system' on 2024-07-22

   ID    Z sym.   atoms
    1    6 C      1-9, 11-14, 18-29, 31-44
    2    7 N      10, 30
    3   16 S      15
    4    8 O      16, 17
    5    1 H      45-74

          program call               : xtb data2507/gas/3CP-DPS-DMAC/3CP-DPS-DMAC.xyz --gfn 2 --ohess vtight --parallel 40 --molden --ceasefiles --namespace data2507/gas/3CP-DPS-DMAC/3CP-DPS-DMAC_gas_S0_preOpt
          :  Hamiltonian                  GFN2-xTB          :
 * total energy  :  -116.0524215 Eh     change       -0.1811387E-08 Eh
 * total energy  :  -116.0686336 Eh     change       -0.1621205E-01 Eh
 * total energy  :  -116.0731219 Eh     change       -0.4488291E-02 Eh
 * total energy  :  -116.0738169 Eh     change       -0.6950603E-03 Eh
 * total energy  :  -116.0742125 Eh     change       -0.3955839E-03 Eh
 * total energy  :  -116.0743538 Eh     change       -0.1412308E-03 Eh
 * total energy  :  -116.0744544 Eh     change       -0.1006526E-03 Eh
 * total energy  :  -116.0745271 Eh     change       -0.7271351E-04 Eh
 * total energy  :  -116.0745828 Eh     change       -0.5568512E-04 Eh
 * total energy  :  -116.0746144 Eh     change       -0.3160348E-04 Eh
 * total energy  :  -116.0749282 Eh     change       -0.5118400E-06 Eh
 * total energy  :  -116.0749288 Eh     change       -0.5346620E-06 Eh
 * total energy  :  -116.0749294 Eh     change       -0.6138352E-06 Eh
 * total energy  :  -116.0749302 Eh     change       -0.8248466E-06 Eh
 * total energy  :  -116.0749313 Eh     change       -0.1048794E-05 Eh
 * total energy  :  -116.0749324 Eh     change       -0.1139748E-05 Eh
 * total energy  :  -116.0749335 Eh     change       -0.1129521E-05 Eh
 * total energy  :  -116.0749347 Eh     change       -0.1141226E-05 Eh
 * total energy  :  -116.0749347 Eh     change       -0.3553819E-07 Eh
   *** GEOMETRY OPTIMIZATION CONVERGED AFTER 94 ITERATIONS ***

 final structure:
================
74
 xtb: 6.7.1 (edcfbbe)
C           -6.85585622538237        2.26079642428943        0.47405121438207
C           -6.05359202886032        1.40802243162722       -0.52578135156975
C           -6.66185758920682        1.52495841302063       -1.93523821013434
C           -6.11865746110196       -0.04342074562640       -0.09003823803071
C           -7.35133292034919       -0.67758959205636       -0.01097128262563
C           -7.47211052313683       -2.00443659579081        0.35711962699066
C           -6.33182314882611       -2.73294765926589        0.64334570842695
C           -5.09473886741390       -2.12759295883499        0.57442321389985
C           -4.97280568280644       -0.77969053259876        0.22547712253215
N           -3.71441480209223       -0.19490677704173        0.17194557759981
C           -2.58034755059903       -0.97004943539127        0.52501064718636
C           -2.31421341069832       -1.23930796829477        1.86437319990803
C           -1.20801846492397       -1.99677876957306        2.20629077179953
C           -0.38045139832097       -2.47710948317177        1.21052021124170
S            1.07863437403507       -3.43885574147976        1.64098481793219
O            1.08946721220221       -3.61901275204085        3.06913957017720
O            1.11520194732672       -4.60980223453552        0.80460596595599
C            2.41514679267951       -2.34741413479106        1.16646249499929
C            2.63285999195798       -1.20970392135245        1.93607131545724
C            3.63596801527591       -0.32059219215536        1.60740924479911
C            4.41478868858398       -0.60541857834681        0.49011524874112
C            4.16901518013132       -1.75201712939981       -0.30891223284204
C            3.15551067961596       -2.63291584170706        0.04044913368574
C            5.12008571439365       -1.71132186274205       -1.38296960467089
C            5.38443022789320       -2.55194872577098       -2.45713307727275
C            6.41616830097700       -2.22245004408222       -3.31229060230222
C            7.18742132695634       -1.08093538916324       -3.10027389717377
C            6.94312267048165       -0.23013317815724       -2.03951405857118
C            5.89340660519164       -0.54451014893936       -1.18826876544830
N            5.45304015686150        0.11144048707777       -0.05371001114888
C            6.00093585031599        1.29442226603612        0.47167633571280
C            6.39661402025056        1.34709874541933        1.80437402177400
C            6.93621178526066        2.51262616185831        2.31665981314261
C            7.09300643706551        3.62478325200854        1.50612507967096
C            6.70296746247865        3.57114274996351        0.17829957459941
C            6.15360788780921        2.41305359050717       -0.34093131764475
C           -0.63196939468288       -2.21528053942186       -0.12312535711971
C           -1.73780172150163       -1.46100351030036       -0.46960638107722
C           -3.53533396200770        1.12634240071958       -0.21020483828721
C           -2.25045966520903        1.67722973116563       -0.21827367631971
C           -2.04157756552137        2.98589251233823       -0.59980319302779
C           -3.11457061814427        3.77406284885917       -0.97382991195131
C           -4.38849436369154        3.23800595135395       -0.94459623039193
C           -4.62798187842165        1.92454232684977       -0.56432208917730
H           -6.84978986816931        3.30790183080160        0.18433587999827
H           -7.88871260887837        1.92796879947483        0.52632323251623
H           -6.41739243675424        2.17679448602525        1.46671296056604
H           -6.09205892857927        0.91690870282627       -2.63539952930960
H           -6.64437176288387        2.55445725441127       -2.28188618187234
H           -7.69242209220060        1.18146662761598       -1.94331927441734
H           -8.24838213501039       -0.12423369244629       -0.24426694227484
H           -8.44641014388795       -2.46545363007246        0.41109279891939
H           -6.40094289130876       -3.77470094920391        0.91803716861369
H           -4.20966790940329       -2.70686013182192        0.78784038366913
H           -2.97995222424150       -0.85745902372401        2.62385435519472
H           -0.97395591301714       -2.23176779949768        3.23285120052028
H            2.01009088796808       -1.04915590803188        2.80180847212889
H            3.80583246553166        0.56845172806458        2.19481789323128
H            2.94289174373575       -3.52621247904000       -0.52457390470832
H            4.79642030805332       -3.44379021228886       -2.60920712701714
H            6.63969429537104       -2.86007717566197       -4.15419054497310
H            7.99768111331233       -0.85853507724929       -3.77851102489132
H            7.55676596079297        0.64219518689753       -1.87355431712472
H            6.29192036358479        0.47044970026470        2.42593997215627
H            7.24328829552502        2.54920883475700        3.35112760193083
H            7.51893662669284        4.53127742345105        1.90842507103477
H            6.82053135880611        4.43736366945784       -0.45554464907228
H            5.83031237278676        2.37196084044228       -1.37034671966755
H            0.02980834576914       -2.61818834851224       -0.87364598065324
H           -1.95913534113111       -1.24517819327537       -1.50411807733282
H           -1.40820362463285        1.07318463946468        0.08334816256270
H           -1.03914947464943        3.38754313321378       -0.60044386831719
H           -2.96428700454791        4.79885630489489       -1.27718685032388
H           -5.21854186372257        3.86835460766473       -1.22545474494534

          :  Hamiltonian                  GFN2-xTB          :
         :: gradient norm              0.000130311879 Eh/a0 ::
         :: HOMO-LUMO gap              2.327584257971 eV    ::
         :: SCC energy              -118.085844693960 Eh    ::
         :: -> dispersion             -0.103693545051 Eh    ::
         :: repulsion energy           2.010909996124 Eh    ::

    * Orbital Energies and Occupations

         #    Occupation            Energy/Eh            Energy/eV
      -------------------------------------------------------------
         1        2.0000           -0.7626531             -20.7528
       ...           ...                  ...                  ...
        95        2.0000           -0.4248378             -11.5604
        96        2.0000           -0.4240179             -11.5381
        97        2.0000           -0.4227107             -11.5025
        98        2.0000           -0.4200968             -11.4314
        99        2.0000           -0.4103087             -11.1651
       100        2.0000           -0.4088216             -11.1246
       101        2.0000           -0.4046627             -11.0114
       102        2.0000           -0.3995398             -10.8720
       103        2.0000           -0.3989671             -10.8564
       104        2.0000           -0.3944855             -10.7345
       105        2.0000           -0.3935917             -10.7102
       106        2.0000           -0.3784644             -10.2985
       107        2.0000           -0.3487430              -9.4898 (HOMO)
       108                         -0.2632055              -7.1622 (LUMO)
       109                         -0.2619794              -7.1288
       110                         -0.2508071              -6.8248
       111                         -0.2479024              -6.7458
       112                         -0.2434358              -6.6242
       113                         -0.2407557              -6.5513
       114                         -0.2253226              -6.1313
       115                         -0.2208287              -6.0091
       116                         -0.2185764              -5.9478
       117                         -0.2116313              -5.7588
       118                         -0.2013512              -5.4790
       ...                                ...                  ...
       211                          1.2128995              33.0047
      -------------------------------------------------------------
                  HL-Gap            0.0855374 Eh            2.3276 eV

     #   Z          covCN         q      C6AA      α(0)
     1   6 C        3.761    -0.104    22.526     6.766
     2   6 C        3.909     0.021    20.160     6.382
     3   6 C        3.761    -0.104    22.528     6.766
     4   6 C        2.979    -0.013    28.342     8.733
     5   6 C        2.928    -0.036    28.896     8.816
     6   6 C        2.917    -0.044    29.089     8.844
     7   6 C        2.920    -0.032    28.800     8.800
     8   6 C        2.924    -0.059    29.464     8.902
     9   6 C        2.928     0.057    26.720     8.477
    10   7 N        2.754    -0.070    22.595     7.060
    11   6 C        2.928     0.077    26.285     8.408
    12   6 C        2.923    -0.034    28.855     8.809
    13   6 C        2.952    -0.025    28.626     8.775
    14   6 C        2.971    -0.076    29.897     8.969
    15  16 S        3.824     0.939   108.418    17.525
    16   8 O        0.860    -0.541    24.709     6.665
    17   8 O        0.860    -0.540    24.697     6.663
    18   6 C        2.972    -0.086    30.159     9.008
    19   6 C        2.967    -0.034    28.855     8.811
    20   6 C        2.911    -0.047    29.166     8.856
    21   6 C        3.075     0.051    26.775     8.484
    22   6 C        3.073    -0.011    28.217     8.710
    23   6 C        2.952    -0.030    28.754     8.795
    24   6 C        3.066    -0.014    28.301     8.723
    25   6 C        2.912    -0.031    28.763     8.794
    26   6 C        2.920    -0.038    28.940     8.822
    27   6 C        2.924    -0.031    28.766     8.796
    28   6 C        2.909    -0.049    29.205     8.862
    29   6 C        3.079     0.048    26.843     8.494
    30   7 N        2.803    -0.036    21.932     6.956
    31   6 C        2.914     0.063    26.592     8.456
    32   6 C        2.922    -0.042    29.035     8.836
    33   6 C        2.920    -0.027    28.667     8.780
    34   6 C        2.919    -0.031    28.776     8.797
    35   6 C        2.920    -0.027    28.675     8.781
    36   6 C        2.922    -0.041    29.025     8.835
    37   6 C        2.958    -0.027    28.679     8.784
    38   6 C        2.923    -0.034    28.850     8.808
    39   6 C        2.928     0.058    26.710     8.476
    40   6 C        2.924    -0.060    29.493     8.906
    41   6 C        2.920    -0.033    28.824     8.804
    42   6 C        2.917    -0.045    29.109     8.847
    43   6 C        2.928    -0.036    28.894     8.815
    44   6 C        2.979    -0.013    28.332     8.731
    45   1 H        0.925     0.040     2.454     2.450
    46   1 H        0.925     0.040     2.445     2.445
    47   1 H        0.925     0.032     2.564     2.504
    48   1 H        0.925     0.032     2.562     2.503
    49   1 H        0.925     0.040     2.454     2.450
    50   1 H        0.925     0.040     2.445     2.445
    51   1 H        0.926     0.031     2.570     2.507
    52   1 H        0.926     0.028     2.613     2.528
    53   1 H        0.926     0.030     2.580     2.512
    54   1 H        0.926     0.024     2.666     2.553
    55   1 H        0.926     0.058     2.225     2.333
    56   1 H        0.926     0.070     2.091     2.261
    57   1 H        0.926     0.048     2.341     2.393
    58   1 H        0.926     0.044     2.391     2.418
    59   1 H        0.926     0.063     2.163     2.300
    60   1 H        0.926     0.040     2.449     2.447
    61   1 H        0.926     0.036     2.506     2.476
    62   1 H        0.926     0.036     2.507     2.476
    63   1 H        0.926     0.033     2.543     2.494
    64   1 H        0.926     0.043     2.404     2.424
    65   1 H        0.926     0.041     2.435     2.440
    66   1 H        0.926     0.040     2.453     2.449
    67   1 H        0.926     0.040     2.446     2.446
    68   1 H        0.926     0.043     2.411     2.428
    69   1 H        0.926     0.055     2.263     2.352
    70   1 H        0.926     0.057     2.239     2.340
    71   1 H        0.926     0.019     2.741     2.589
    72   1 H        0.926     0.026     2.641     2.542
    73   1 H        0.926     0.027     2.630     2.536
    74   1 H        0.926     0.032     2.564     2.504

molecular dipole:
                 x           y           z       tot (Debye)
 q only:        0.684       2.709      -0.958
   full:        0.751       2.709      -0.875       7.483

 projected vibrational frequencies (cm⁻¹)
eigval :       -0.00    -0.00    -0.00     0.00     0.00     0.00
eigval :        3.80     6.29     7.48    21.04    28.78    31.23
eigval :       45.80    52.08    56.10    62.24    83.52    93.87
eigval :       98.67    99.97   113.22   119.35   128.23   139.97
eigval :      157.21   183.38   189.37   190.96   206.75   212.67
eigval :      219.28   234.36   249.57   257.42   274.19   303.20
eigval :      306.25   313.43   331.44   334.84   344.59   354.30
eigval :      367.73   377.20   379.75   381.62   391.89   402.01
eigval :      410.02   410.40   414.91   427.22   451.21   451.36
eigval :      473.37   486.83   491.57   509.82   515.48   522.70
eigval :      537.27   547.59   556.13   559.80   578.16   580.77
eigval :      589.46   591.30   593.50   604.56   611.98   639.46
eigval :      648.38   670.98   677.83   682.56   689.29   693.41
eigval :      693.62   710.12   724.97   751.62   764.33   777.12
eigval :      777.41   778.68   803.80   809.72   818.93   827.08
eigval :      866.43   868.48   871.74   876.27   881.99   885.58
eigval :      899.67   901.87   906.12   911.84   912.91   913.48
eigval :      914.37   915.74   918.59   921.22   922.09   923.37
eigval :      924.10   928.28   934.01   934.35   938.95   957.25
eigval :      997.90  1006.15  1014.42  1016.90  1069.42  1077.19
eigval :     1078.89  1080.28  1084.70  1102.23  1112.30  1114.22
eigval :     1117.52  1119.85  1120.77  1128.86  1141.20  1143.48
eigval :     1160.74  1167.03  1175.30  1177.12  1179.46  1180.82
eigval :     1187.45  1188.25  1196.96  1205.22  1212.50  1237.36
eigval :     1240.73  1244.92  1246.89  1250.88  1269.46  1272.17
eigval :     1275.50  1294.85  1305.31  1311.22  1316.68  1317.28
eigval :     1325.48  1334.80  1342.78  1355.42  1359.12  1367.74
eigval :     1393.34  1402.91  1414.90  1420.81  1429.08  1435.33
eigval :     1436.36  1443.56  1459.51  1466.26  1480.82  1482.86
eigval :     1484.43  1489.83  1490.70  1496.22  1500.24  1505.21
eigval :     1565.44  1574.92  1575.76  1579.74  1582.33  1585.74
eigval :     1588.89  1591.35  1593.29  1595.38  1602.48  1610.54
eigval :     3027.31  3029.51  3040.42  3043.11  3049.20  3053.00
eigval :     3077.48  3080.38  3081.51  3082.38  3083.21  3084.33
eigval :     3084.95  3087.95  3091.17  3091.68  3091.93  3092.76
eigval :     3092.88  3094.83  3095.25  3096.09  3098.63  3101.45
eigval :     3101.92  3102.30  3104.06  3105.43  3107.26  3109.14

   temp. (K)  partition function   enthalpy   heat capacity  entropy
                                   cal/mol     cal/K/mol   cal/K/mol   J/K/mol
 298.15  VIB  0.686E+18            21505.958    134.839    135.845
         ROT  0.787E+08              888.752      2.981     39.111
         INT  0.540E+26            22394.711    137.820    174.956
         TR   0.139E+29             1481.254      4.968     44.992
         TOT                       23875.9648   142.7882   219.9485   920.2646

       T/K    H(0)-H(T)+PV         H(T)/Eh          T*S/Eh         G(T)/Eh
   ------------------------------------------------------------------------
    298.15    0.380488E-01    0.609468E+00    0.104505E+00    0.504963E+00
   ------------------------------------------------------------------------

         :::::::::::::::::::::::::::::::::::::::::::::::::::::
         ::                  THERMODYNAMIC                  ::
         :::::::::::::::::::::::::::::::::::::::::::::::::::::
         :: total free energy        -115.569971571405 Eh   ::
         ::.................................................::
         :: total energy             -116.074934697831 Eh   ::
         :: zero point energy           0.571418991300 Eh   ::
         :: G(RRHO) w/o ZPVE           -0.066455864874 Eh   ::
         :: G(RRHO) contrib.            0.504963126426 Eh   ::
         :::::::::::::::::::::::::::::::::::::::::::::::::::::

           -------------------------------------------------
          | TOTAL ENERGY             -116.074934697831 Eh   |
          | TOTAL ENTHALPY           -115.465466934759 Eh   |
          | TOTAL FREE ENERGY        -115.569971571405 Eh   |
          | GRADIENT NORM               0.000130391736 Eh/α |
          | HOMO-LUMO GAP               2.327591822075 eV   |
           -------------------------------------------------

 * finished run on 2025/07/20 at 13:06:59.980
