   * xtb version 6.7.1 (edcfbbe) compiled by 'albert@albert-system' on 2024-07-22

   ID    Z sym.   atoms
    1    6 C      1-9, 11-14, 18-29, 31-44
    2    7 N      10, 30
    3   16 S      15
    4    8 O      16, 17
    5    1 H      45-74

          program call               : xtb data2507/gas/3CP-DPS-DMAC/3CP-DPS-DMAC_gas_S0_finalOpt.xtbopt.xyz --gfn 2 --spinpol --tblite --uhf 2 --ohess vtight --parallel 40 --molden --ceasefiles --namespace data2507/gas/3CP-DPS-DMAC/3CP-DPS-DMAC_gas_T1_preOpt
 * total energy  :  -115.9664489 Eh     change        0.3726863E-07 Eh
 * total energy  :  -115.9686063 Eh     change       -0.2157311E-02 Eh
 * total energy  :  -115.9691085 Eh     change       -0.5022663E-03 Eh
 * total energy  :  -115.9691810 Eh     change       -0.7246157E-04 Eh
 * total energy  :  -115.9692428 Eh     change       -0.6180624E-04 Eh
 * total energy  :  -115.9692834 Eh     change       -0.4057307E-04 Eh
 * total energy  :  -115.9693264 Eh     change       -0.4306270E-04 Eh
 * total energy  :  -115.9693605 Eh     change       -0.3404559E-04 Eh
 * total energy  :  -115.9693816 Eh     change       -0.2114197E-04 Eh
 * total energy  :  -115.9693973 Eh     change       -0.1564243E-04 Eh
 * total energy  :  -115.9695735 Eh     change       -0.8454498E-06 Eh
 * total energy  :  -115.9695743 Eh     change       -0.7426432E-06 Eh
 * total energy  :  -115.9695749 Eh     change       -0.6636249E-06 Eh
 * total energy  :  -115.9695754 Eh     change       -0.4915300E-06 Eh
 * total energy  :  -115.9695759 Eh     change       -0.4748215E-06 Eh
 * total energy  :  -115.9695762 Eh     change       -0.3521295E-06 Eh
 * total energy  :  -115.9695767 Eh     change       -0.4168846E-06 Eh
 * total energy  :  -115.9695771 Eh     change       -0.4231425E-06 Eh
 * total energy  :  -115.9695771 Eh     change       -0.1871017E-07 Eh
   *** GEOMETRY OPTIMIZATION CONVERGED AFTER 94 ITERATIONS ***

 final structure:
================
74
 xtb: 6.7.1 (edcfbbe)
C           -5.65701750828249       -2.99428902825414       -1.64419166468164
C           -5.31564287768350       -2.20840126452226       -0.36373426002972
C           -6.10854490937427       -2.77094877931858        0.83168281003533
C           -5.70763951480318       -0.76009567877617       -0.56511997581343
C           -7.02717200475260       -0.43160248120762       -0.84101554138796
C           -7.43052119085277        0.87798956760442       -1.03064557176641
C           -6.49793597292966        1.90197953324163       -0.94588193851517
C           -5.18234365609601        1.60800449671333       -0.67253370443071
C           -4.76976437801185        0.28140249541842       -0.47782904986616
N           -3.44637704557671        0.02259349017527       -0.20347474241278
C           -2.53092554988777        1.10771997356347       -0.07905846027618
C           -1.79380312105364        1.53389916226645       -1.19287142703771
C           -0.83009282922849        2.50143118114506       -1.03887061218675
C           -0.60266334336192        3.05733694295267        0.22012850357200
S            0.88074318870118        4.00441631337913        0.48042806569419
O            1.09872312282683        4.92121622333267       -0.60978363544657
O            0.86203684270873        4.53872658948736        1.81948932724350
C            2.07514227314930        2.66975625150632        0.36574946560856
C            3.10048305181287        2.73119690869602       -0.57739516985155
C            3.92069142143083        1.62002616470948       -0.78767528506773
C            3.68386093236749        0.48563520821481       -0.03649920246577
C            2.60069075629566        0.41156636162068        0.90542586142413
C            1.80570089520727        1.53838522315168        1.10855461819772
C            2.57899986840611       -0.91623543600505        1.40851144126375
C            1.76537123954987       -1.58792713662237        2.32566981031953
C            2.05275398660188       -2.91617824236983        2.61910850176208
C            3.12418988750744       -3.57446924335138        2.03619141996151
C            3.94941250026092       -2.92241080289230        1.10711694729638
C            3.65096755936921       -1.61423366830664        0.78503175364347
N            4.30738838548945       -0.74751734329200       -0.07949424733774
C            5.43023215167814       -1.05614383406749       -0.83683032691717
C            6.52152534195507       -0.17755006835205       -0.86856629337536
C            7.63739828636218       -0.48960887555124       -1.61396597705441
C            7.68995634199071       -1.67053423341961       -2.34468637559827
C            6.60713310273868       -2.54112134437355       -2.32167489611610
C            5.48645004120655       -2.24450632123452       -1.57658449329781
C           -1.36905287410070        2.67016472005984        1.32035728243407
C           -2.33326914779012        1.70176027494432        1.17360460837820
C           -2.97252109978303       -1.25761509427171       -0.01054813796760
C           -1.61001751883232       -1.45757690704233        0.26112144250971
C           -1.10911759665615       -2.72324664099408        0.46096467211549
C           -1.95852189975927       -3.81837674678070        0.39611760557203
C           -3.30211671885723       -3.62672397157814        0.12849653750039
C           -3.83648897589411       -2.36290462408068       -0.07903080388329
H           -5.40503345671567       -4.04474530678522       -1.53185681657740
H           -6.71640503879496       -2.92084636972664       -1.87193536190829
H           -5.09539186834276       -2.59375399471297       -2.48582826036058
H           -5.86726639473250       -3.81684301553417        0.99763156960442
H           -7.17772516481468       -2.69094781109742        0.65813224015412
H           -5.86382628566952       -2.21408433513501        1.73401673875429
H           -7.76717585875064       -1.21405077762791       -0.91082406609203
H           -8.46510900373280        1.09825851007717       -1.24326844306077
H           -6.79901196042829        2.92762300807743       -1.09296053142127
H           -4.45243475947698        2.39930295433843       -0.60555306237768
H           -1.98005893559766        1.07788062518858       -2.15382730281735
H           -0.22936901456121        2.83929804209956       -1.86824125917075
H            3.22652137970666        3.63829153957749       -1.14262902985866
H            4.69715225338906        1.65003009308992       -1.53650024248686
H            0.99250283930369        1.53125041492384        1.81627965052757
H            0.93742274593808       -1.08104470688677        2.79562646949039
H            1.43062575256178       -3.44520976776248        3.32689865658071
H            3.33689329152591       -4.59858056017097        2.29924977177535
H            4.79889502282093       -3.43353155929798        0.68171700277182
H            6.49193328039126        0.72082706150603       -0.27109975042563
H            8.47985433073587        0.18573327275334       -1.62141033542710
H            8.56580438880453       -1.90953019148793       -2.92735974443033
H            6.63810193064627       -3.45338555336694       -2.89880266817256
H            4.62929744777572       -2.90051864745066       -1.58913406951998
H           -1.17190045966360        3.14057610508444        2.27069677545461
H           -2.92911491216498        1.37407470003366        2.01273560226408
H           -0.94773208283162       -0.60800289905031        0.31229484656764
H           -0.05877453409733       -2.85428304781318        0.67245842375568
H           -1.57630666265627       -4.81500600622640        0.55357622327611
H           -3.94731834988264       -4.49068897284706        0.08294991781155

 projected vibrational frequencies (cm⁻¹)
eigval :       -0.00    -0.00     0.00     0.00     0.00     0.00
eigval :       -1.37     7.85    21.35    27.70    33.54    41.14
eigval :       45.96    55.70    57.47    71.08    80.84    92.26
eigval :       94.32   100.99   116.73   120.95   129.80   140.58
eigval :      152.84   177.97   193.16   200.45   203.50   211.05
eigval :      216.68   232.10   234.11   258.06   268.06   298.85
eigval :      302.25   305.10   323.60   325.87   336.40   342.04
eigval :      359.26   366.93   371.21   377.14   378.71   396.42
eigval :      402.91   407.90   408.33   413.09   441.54   447.61
eigval :      452.60   464.80   481.17   502.05   503.89   514.42
eigval :      524.15   534.44   542.28   552.09   559.79   573.67
eigval :      576.13   582.38   587.95   600.92   602.36   623.35
eigval :      633.52   644.63   653.52   657.87   674.67   683.28
eigval :      685.86   697.81   710.56   740.33   743.73   750.57
eigval :      771.13   773.84   777.01   783.48   793.40   811.56
eigval :      824.91   828.71   848.45   849.32   852.01   870.48
eigval :      870.89   872.82   875.14   890.85   893.27   897.47
eigval :      898.20   906.75   908.36   910.54   915.03   916.28
eigval :      920.33   922.31   926.16   928.02   931.76   938.33
eigval :      958.11   977.50   984.74  1001.59  1013.12  1050.57
eigval :     1059.91  1066.77  1068.77  1073.79  1079.52  1089.90
eigval :     1100.01  1107.80  1110.10  1112.32  1117.97  1137.18
eigval :     1140.28  1150.20  1150.48  1163.65  1169.86  1174.86
eigval :     1180.13  1182.41  1183.70  1189.57  1199.02  1203.79
eigval :     1220.09  1224.44  1225.84  1233.66  1235.60  1239.36
eigval :     1251.61  1265.92  1279.85  1293.18  1304.79  1305.99
eigval :     1314.16  1316.36  1327.55  1330.29  1336.10  1353.16
eigval :     1370.04  1382.92  1394.49  1401.30  1406.42  1408.51
eigval :     1411.90  1416.92  1419.23  1420.75  1423.04  1433.68
eigval :     1438.51  1454.49  1456.11  1465.96  1484.76  1486.73
eigval :     1487.12  1494.02  1497.30  1500.85  1505.11  1508.09
eigval :     1523.05  1533.78  1539.85  1557.76  1570.36  1580.13
eigval :     3031.26  3032.92  3045.85  3048.22  3054.13  3057.63
eigval :     3074.20  3080.84  3081.03  3083.25  3083.52  3086.37
eigval :     3087.11  3088.39  3089.77  3091.42  3093.05  3094.28
eigval :     3096.79  3097.32  3101.16  3101.86  3101.94  3103.10
eigval :     3103.73  3104.64  3104.95  3109.56  3110.77  3128.49

   temp. (K)  partition function   enthalpy   heat capacity  entropy
                                   cal/mol     cal/K/mol   cal/K/mol   J/K/mol
 298.15  VIB  0.359E+18            21849.013    138.375    137.401
         ROT  0.630E+08              888.752      2.981     38.669
         INT  0.226E+26            22737.766    141.356    176.070
         TR   0.139E+29             1481.254      4.968     44.992
         TOT                       24219.0197   146.3239   221.0618   924.9225

       T/K    H(0)-H(T)+PV         H(T)/Eh          T*S/Eh         G(T)/Eh
   ------------------------------------------------------------------------
    298.15    0.385955E-01    0.602557E+00    0.105034E+00    0.497524E+00
   ------------------------------------------------------------------------

         :::::::::::::::::::::::::::::::::::::::::::::::::::::
         ::                  THERMODYNAMIC                  ::
         :::::::::::::::::::::::::::::::::::::::::::::::::::::
         :: total free energy        -115.472053350821 Eh   ::
         ::.................................................::
         :: total energy             -115.969577109603 Eh   ::
         :: zero point energy           0.563961885338 Eh   ::
         :: G(RRHO) w/o ZPVE           -0.066438126556 Eh   ::
         :: G(RRHO) contrib.            0.497523758782 Eh   ::
         :::::::::::::::::::::::::::::::::::::::::::::::::::::

           -------------------------------------------------
          | TOTAL ENERGY             -115.969577109603 Eh   |
          | TOTAL ENTHALPY           -115.367019759612 Eh   |
          | TOTAL FREE ENERGY        -115.472053350821 Eh   |
          | GRADIENT NORM               0.000096576171 Eh/α |
           -------------------------------------------------

 * finished run on 2025/07/20 at 13:16:43.064
