   * xtb version 6.7.1 (edcfbbe) compiled by 'albert@albert-system' on 2024-07-22

   ID    Z sym.   atoms
    1    6 C      1-9, 11-14, 18-29, 31-44
    2    7 N      10, 30
    3   16 S      15
    4    8 O      16, 17
    5    1 H      45-74

          program call               : xtb data2507/gas/3CP-DPS-DMAC/3CP-DPS-DMAC_gas_S0_crest.xyz --gfn 2 --ohess vtight --parallel 40 --molden --ceasefiles --namespace data2507/gas/3CP-DPS-DMAC/3CP-DPS-DMAC_gas_S0_finalOpt
          :  Hamiltonian                  GFN2-xTB          :
 * total energy  :  -116.0757444 Eh     change       -0.1379533E-08 Eh
 * total energy  :  -116.0757463 Eh     change       -0.1959457E-05 Eh
 * total energy  :  -116.0757482 Eh     change       -0.1816626E-05 Eh
 * total energy  :  -116.0757507 Eh     change       -0.2527896E-05 Eh
 * total energy  :  -116.0757540 Eh     change       -0.3350167E-05 Eh
 * total energy  :  -116.0757581 Eh     change       -0.4043123E-05 Eh
 * total energy  :  -116.0757628 Eh     change       -0.4676042E-05 Eh
 * total energy  :  -116.0757679 Eh     change       -0.5188725E-05 Eh
 * total energy  :  -116.0757734 Eh     change       -0.5447706E-05 Eh
 * total energy  :  -116.0757787 Eh     change       -0.5289642E-05 Eh
 * total energy  :  -116.0758332 Eh     change       -0.2639977E-06 Eh
 * total energy  :  -116.0758335 Eh     change       -0.3029550E-06 Eh
 * total energy  :  -116.0758338 Eh     change       -0.3249784E-06 Eh
 * total energy  :  -116.0758342 Eh     change       -0.3662478E-06 Eh
 * total energy  :  -116.0758346 Eh     change       -0.4213862E-06 Eh
 * total energy  :  -116.0758351 Eh     change       -0.4928222E-06 Eh
 * total energy  :  -116.0758356 Eh     change       -0.5416809E-06 Eh
 * total energy  :  -116.0758360 Eh     change       -0.4183288E-06 Eh
 * total energy  :  -116.0758360 Eh     change       -0.6450918E-08 Eh
   *** GEOMETRY OPTIMIZATION CONVERGED AFTER 44 ITERATIONS ***

 final structure:
================
74
 xtb: 6.7.1 (edcfbbe)
C           -5.82250388064846       -2.94700464823541       -1.65688835150779
C           -5.45629399375614       -2.19106148017074       -0.36669229632119
C           -6.24266412446067       -2.76238865305950        0.82718628074465
C           -5.82870639791571       -0.73036259206752       -0.53929502235939
C           -7.14892532404088       -0.38274956745172       -0.79075207719812
C           -7.54102354362872        0.93173014117858       -0.96471059366490
C           -6.59382070746711        1.93728152272182       -0.89347544140815
C           -5.27486450230438        1.62052405912015       -0.64539900624390
C           -4.88000581201936        0.29318641800615       -0.45996967937014
N           -3.54643624438217        0.00786671910004       -0.21395333223049
C           -2.61051959059218        1.06932388908483       -0.10304886142745
C           -1.81057727008563        1.40184374153110       -1.19321936463135
C           -0.81443619795772        2.34935796228923       -1.04747866065327
C           -0.63911734369850        2.96455768773767        0.17797173150749
S            0.86249019864010        3.92241886227525        0.43149383314146
O            1.06976808655984        4.82980280289945       -0.66555365385882
O            0.84131709852000        4.46428806535491        1.76441778372800
C            2.05982584453456        2.58900861132922        0.31936515712660
C            3.15085347407056        2.71035727225165       -0.53190448374013
C            4.03679925287295        1.66322219562796       -0.69770012280407
C            3.78966927112138        0.48629548234582        0.00035929542446
C            2.65874887600526        0.35756146517810        0.84754583570906
C            1.79573895166123        1.42905408880445        1.01688313303220
C            2.66870129832374       -0.98939037372038        1.34185154170311
C            1.83093853373086       -1.70033777432469        2.19191975151296
C            2.14043524421831       -3.01620190064681        2.47136987257407
C            3.27548657961071       -3.61643232767874        1.92917510127472
C            4.12235907583372       -2.92912394933664        1.08080617281300
C            3.80256852498503       -1.61394802487681        0.77447605465649
N            4.47015963402590       -0.70771009554509       -0.02806198136745
C            5.64573602492160       -0.96530438239762       -0.75410536786280
C            6.74003092468023       -0.11512117685447       -0.63208920721761
C            7.89338122745037       -0.37031552522102       -1.35095800661963
C            7.96702144556811       -1.47408170131750       -2.18442932530104
C            6.87894867977074       -2.32266633971313       -2.30298524140706
C            5.71758316247476       -2.07036418311831       -1.59595677494968
C           -1.46199835665532        2.68229601413671        1.25111867069545
C           -2.45902119637259        1.73305351413019        1.11017292254370
C           -3.08992780328673       -1.28966457505214       -0.03400722037275
C           -1.73605566354954       -1.52027933440727        0.22984387481937
C           -1.25588919107973       -2.80047501679573        0.41147549151895
C           -2.12236489890300       -3.87590667861073        0.33866540979165
C           -3.46293071141275       -3.64946021323092        0.08637576119527
C           -3.97306615190961       -2.37220724594839       -0.10199224029707
H           -5.58104702752649       -4.00276049267730       -1.57020327888443
H           -6.88370101824306       -2.85706656837501       -1.87139408527021
H           -5.26633681286514       -2.53539548102568       -2.49708409699067
H           -6.01886993950444       -3.81561095815524        0.97195848172356
H           -7.31292345324275       -2.66057412954474        0.67094160966276
H           -5.97599572882072       -2.22657208264779        1.73625938116318
H           -7.89893616308051       -1.15657416760226       -0.85472159417674
H           -8.57653142481373        1.16658793277766       -1.15783986829266
H           -6.87836109686780        2.96938964922270       -1.03266893359995
H           -4.53643736787377        2.40655897339425       -0.59673257518992
H           -1.95612610211115        0.88886686851965       -2.13188379383558
H           -0.15899867398528        2.61021297975631       -1.86374288247251
H            3.27734050587585        3.64026185185118       -1.06313275203130
H            4.87975945088900        1.75090541566779       -1.36543671933696
H            0.93650606815740        1.36210087760750        1.66550729829249
H            0.95961765356529       -1.22979976626627        2.62121439491364
H            1.50039715886940       -3.59011999196502        3.12443975083771
H            3.49961661644077       -4.64260149673313        2.17962551925924
H            5.00685562115043       -3.39888859035404        0.67851919611866
H            6.68446274924476        0.73226045838567        0.03472361426487
H            8.74071342003935        0.29165898009012       -1.25354647451524
H            8.87046085998660       -1.67229452568830       -2.74069544201350
H            6.93101161891101       -3.18154838145945       -2.95529554908355
H            4.85914510478815       -2.71671028049892       -1.70142941539671
H           -1.28926865917650        3.19440864338131        2.18512864904363
H           -3.10232786535542        1.47692740280753        1.93868601149486
H           -1.05087487516245       -0.68834516731926        0.29206482448519
H           -0.20531477877254       -2.95155434992418        0.61180884408926
H           -1.75990106430011       -4.88274090110039        0.47917840569741
H           -4.12777823155952       -4.49848116174161        0.03658150046285

          :  Hamiltonian                  GFN2-xTB          :
         :: gradient norm              0.000066266145 Eh/a0 ::
         :: HOMO-LUMO gap              2.288326192368 eV    ::
         :: SCC energy              -118.086485194579 Eh    ::
         :: -> dispersion             -0.107957779253 Eh    ::
         :: repulsion energy           2.010649147021 Eh    ::

    * Orbital Energies and Occupations

         #    Occupation            Energy/Eh            Energy/eV
      -------------------------------------------------------------
         1        2.0000           -0.7644763             -20.8025
       ...           ...                  ...                  ...
        95        2.0000           -0.4249133             -11.5625
        96        2.0000           -0.4242385             -11.5441
        97        2.0000           -0.4235421             -11.5252
        98        2.0000           -0.4210571             -11.4575
        99        2.0000           -0.4104426             -11.1687
       100        2.0000           -0.4093983             -11.1403
       101        2.0000           -0.4050192             -11.0211
       102        2.0000           -0.4007751             -10.9056
       103        2.0000           -0.3995967             -10.8736
       104        2.0000           -0.3961041             -10.7785
       105        2.0000           -0.3941429             -10.7252
       106        2.0000           -0.3791602             -10.3175
       107        2.0000           -0.3489836              -9.4963 (HOMO)
       108                         -0.2648891              -7.2080 (LUMO)
       109                         -0.2627648              -7.1502
       110                         -0.2533211              -6.8932
       111                         -0.2492279              -6.7818
       112                         -0.2434219              -6.6238
       113                         -0.2420164              -6.5856
       114                         -0.2256490              -6.1402
       115                         -0.2210288              -6.0145
       116                         -0.2191816              -5.9642
       117                         -0.2114379              -5.7535
       118                         -0.2024272              -5.5083
       ...                                ...                  ...
       211                          1.2200341              33.1988
      -------------------------------------------------------------
                  HL-Gap            0.0840945 Eh            2.2883 eV

     #   Z          covCN         q      C6AA      α(0)
     1   6 C        3.761    -0.104    22.526     6.766
     2   6 C        3.909     0.021    20.160     6.382
     3   6 C        3.761    -0.104    22.526     6.766
     4   6 C        2.979    -0.014    28.352     8.734
     5   6 C        2.928    -0.036    28.893     8.815
     6   6 C        2.917    -0.044    29.098     8.846
     7   6 C        2.920    -0.032    28.802     8.801
     8   6 C        2.924    -0.059    29.468     8.902
     9   6 C        2.928     0.057    26.712     8.476
    10   7 N        2.755    -0.071    22.625     7.065
    11   6 C        2.930     0.078    26.266     8.405
    12   6 C        2.923    -0.033    28.834     8.806
    13   6 C        2.963    -0.028    28.693     8.786
    14   6 C        2.971    -0.075    29.875     8.966
    15  16 S        3.825     0.945   108.233    17.510
    16   8 O        0.860    -0.538    24.637     6.655
    17   8 O        0.860    -0.539    24.662     6.658
    18   6 C        2.971    -0.086    30.162     9.008
    19   6 C        2.956    -0.030    28.744     8.794
    20   6 C        2.911    -0.047    29.160     8.855
    21   6 C        3.073     0.051    26.772     8.484
    22   6 C        3.074    -0.011    28.213     8.709
    23   6 C        2.959    -0.035    28.866     8.812
    24   6 C        3.066    -0.015    28.323     8.727
    25   6 C        2.912    -0.030    28.740     8.791
    26   6 C        2.920    -0.038    28.935     8.821
    27   6 C        2.924    -0.031    28.767     8.796
    28   6 C        2.910    -0.048    29.201     8.861
    29   6 C        3.079     0.048    26.832     8.492
    30   7 N        2.803    -0.036    21.931     6.955
    31   6 C        2.914     0.063    26.593     8.456
    32   6 C        2.922    -0.042    29.036     8.837
    33   6 C        2.920    -0.026    28.664     8.780
    34   6 C        2.919    -0.031    28.774     8.796
    35   6 C        2.920    -0.027    28.672     8.781
    36   6 C        2.922    -0.041    29.026     8.835
    37   6 C        2.953    -0.025    28.633     8.777
    38   6 C        2.923    -0.034    28.846     8.808
    39   6 C        2.929     0.057    26.714     8.476
    40   6 C        2.924    -0.060    29.492     8.906
    41   6 C        2.919    -0.033    28.833     8.805
    42   6 C        2.917    -0.045    29.108     8.847
    43   6 C        2.928    -0.036    28.895     8.815
    44   6 C        2.979    -0.013    28.337     8.732
    45   1 H        0.925     0.040     2.455     2.450
    46   1 H        0.925     0.040     2.446     2.446
    47   1 H        0.925     0.031     2.567     2.506
    48   1 H        0.925     0.040     2.454     2.450
    49   1 H        0.925     0.040     2.446     2.446
    50   1 H        0.925     0.032     2.563     2.504
    51   1 H        0.926     0.031     2.574     2.509
    52   1 H        0.926     0.028     2.618     2.530
    53   1 H        0.926     0.030     2.591     2.517
    54   1 H        0.926     0.023     2.686     2.563
    55   1 H        0.926     0.057     2.236     2.338
    56   1 H        0.926     0.056     2.251     2.346
    57   1 H        0.926     0.063     2.167     2.302
    58   1 H        0.926     0.047     2.363     2.404
    59   1 H        0.926     0.039     2.461     2.453
    60   1 H        0.926     0.037     2.493     2.469
    61   1 H        0.926     0.036     2.506     2.476
    62   1 H        0.926     0.036     2.503     2.474
    63   1 H        0.926     0.034     2.534     2.489
    64   1 H        0.926     0.043     2.405     2.425
    65   1 H        0.926     0.041     2.432     2.439
    66   1 H        0.926     0.040     2.450     2.448
    67   1 H        0.926     0.040     2.444     2.445
    68   1 H        0.926     0.043     2.411     2.428
    69   1 H        0.926     0.070     2.086     2.259
    70   1 H        0.926     0.058     2.224     2.332
    71   1 H        0.926     0.017     2.775     2.605
    72   1 H        0.926     0.028     2.621     2.532
    73   1 H        0.926     0.027     2.634     2.538
    74   1 H        0.926     0.032     2.565     2.504

molecular dipole:
                 x           y           z       tot (Debye)
 q only:        0.651      -2.810      -0.635
   full:        0.741      -2.718      -0.667       7.358

 projected vibrational frequencies (cm⁻¹)
eigval :       -0.00    -0.00    -0.00     0.00     0.00     0.00
eigval :        5.18     8.57    20.42    26.63    31.06    37.31
eigval :       45.36    50.44    54.48    65.39    81.78    90.22
eigval :       98.69   103.34   116.88   119.53   128.93   148.82
eigval :      152.96   175.94   190.55   203.82   209.64   211.43
eigval :      220.11   233.23   240.79   263.29   273.76   297.35
eigval :      303.89   307.24   331.01   337.86   345.43   356.43
eigval :      366.69   376.69   376.89   380.29   393.95   400.33
eigval :      407.90   411.27   418.21   429.24   450.37   451.63
eigval :      471.92   488.31   492.92   506.24   516.00   528.88
eigval :      537.76   547.97   556.45   559.23   578.26   581.37
eigval :      589.40   591.59   594.83   603.39   612.31   639.56
eigval :      646.47   670.77   678.37   682.15   685.03   693.18
eigval :      699.22   710.35   725.26   752.15   764.44   777.21
eigval :      778.17   781.12   801.40   810.28   822.53   826.89
eigval :      866.74   867.37   871.14   874.81   876.79   883.96
eigval :      898.95   906.05   909.25   913.62   913.88   913.95
eigval :      915.08   915.30   918.97   921.75   924.00   924.86
eigval :      926.16   929.27   934.19   934.55   938.98   957.17
eigval :      998.27  1005.99  1014.32  1017.60  1070.37  1077.21
eigval :     1080.03  1081.71  1086.21  1101.70  1110.47  1113.11
eigval :     1117.66  1119.36  1123.26  1128.73  1141.02  1142.06
eigval :     1160.92  1165.36  1174.68  1177.27  1179.99  1180.89
eigval :     1186.74  1189.16  1197.90  1205.76  1218.47  1238.22
eigval :     1240.69  1244.53  1246.95  1249.55  1268.75  1272.06
eigval :     1275.82  1294.30  1304.04  1310.17  1317.55  1317.82
eigval :     1325.15  1334.71  1345.67  1355.21  1359.74  1367.75
eigval :     1392.91  1402.80  1414.23  1420.54  1428.83  1435.47
eigval :     1436.54  1444.25  1458.71  1463.81  1481.49  1482.61
eigval :     1483.84  1489.87  1490.67  1496.59  1500.21  1505.25
eigval :     1565.91  1575.28  1575.86  1579.48  1582.72  1585.66
eigval :     1589.78  1591.30  1592.86  1595.51  1602.18  1610.97
eigval :     3027.21  3029.40  3040.39  3043.07  3049.10  3052.81
eigval :     3077.60  3079.74  3081.79  3082.61  3082.71  3083.49
eigval :     3084.59  3087.14  3091.14  3091.52  3092.18  3092.40
eigval :     3093.10  3093.80  3094.45  3096.30  3097.87  3098.47
eigval :     3099.72  3100.75  3102.12  3103.26  3103.42  3110.95

   temp. (K)  partition function   enthalpy   heat capacity  entropy
                                   cal/mol     cal/K/mol   cal/K/mol   J/K/mol
 298.15  VIB  0.883E+17            21456.072    134.975    133.950
         ROT  0.646E+08              888.752      2.981     38.718
         INT  0.570E+25            22344.824    137.956    172.668
         TR   0.139E+29             1481.254      4.968     44.992
         TOT                       23826.0783   142.9237   217.6604   910.6911

       T/K    H(0)-H(T)+PV         H(T)/Eh          T*S/Eh         G(T)/Eh
   ------------------------------------------------------------------------
    298.15    0.379693E-01    0.609478E+00    0.103417E+00    0.506061E+00
   ------------------------------------------------------------------------

         :::::::::::::::::::::::::::::::::::::::::::::::::::::
         ::                  THERMODYNAMIC                  ::
         :::::::::::::::::::::::::::::::::::::::::::::::::::::
         :: total free energy        -115.569775104205 Eh   ::
         ::.................................................::
         :: total energy             -116.075836047555 Eh   ::
         :: zero point energy           0.571509148772 Eh   ::
         :: G(RRHO) w/o ZPVE           -0.065448205422 Eh   ::
         :: G(RRHO) contrib.            0.506060943350 Eh   ::
         :::::::::::::::::::::::::::::::::::::::::::::::::::::

           -------------------------------------------------
          | TOTAL ENERGY             -116.075836047555 Eh   |
          | TOTAL ENTHALPY           -115.466357626092 Eh   |
          | TOTAL FREE ENERGY        -115.569775104205 Eh   |
          | GRADIENT NORM               0.000066292963 Eh/α |
          | HOMO-LUMO GAP               2.288328233028 eV   |
           -------------------------------------------------

 * finished run on 2025/07/20 at 13:16:24.431
