   * xtb version 6.7.1 (edcfbbe) compiled by 'albert@albert-system' on 2024-07-22

   ID    Z sym.   atoms
    1    6 C      1-9, 11-14, 18-29, 31-44
    2    7 N      10, 30
    3   16 S      15
    4    8 O      16, 17
    5    1 H      45-74

          program call               : xtb data2507/gas/3CP-DPS-DMAC/3CP-DPS-DMAC_gas_T1_crest.xyz --gfn 2 --spinpol --tblite --uhf 2 --ohess vtight --parallel 40 --molden --ceasefiles --namespace data2507/gas/3CP-DPS-DMAC/3CP-DPS-DMAC_gas_T1_finalOpt
 * total energy  :  -115.9702476 Eh     change        0.5721105E-08 Eh
 * total energy  :  -115.9702899 Eh     change       -0.4221988E-04 Eh
 * total energy  :  -115.9703609 Eh     change       -0.7102209E-04 Eh
 * total energy  :  -115.9703863 Eh     change       -0.2542057E-04 Eh
 * total energy  :  -115.9704346 Eh     change       -0.4827423E-04 Eh
 * total energy  :  -115.9704662 Eh     change       -0.3161648E-04 Eh
 * total energy  :  -115.9705232 Eh     change       -0.5696686E-04 Eh
 * total energy  :  -115.9705532 Eh     change       -0.3006729E-04 Eh
 * total energy  :  -115.9705777 Eh     change       -0.2442579E-04 Eh
 * total energy  :  -115.9705920 Eh     change       -0.1435826E-04 Eh
 * total energy  :  -115.9706955 Eh     change       -0.1553541E-05 Eh
 * total energy  :  -115.9706972 Eh     change       -0.1643210E-05 Eh
 * total energy  :  -115.9706989 Eh     change       -0.1738842E-05 Eh
 * total energy  :  -115.9707007 Eh     change       -0.1812698E-05 Eh
 * total energy  :  -115.9707026 Eh     change       -0.1883738E-05 Eh
 * total energy  :  -115.9707046 Eh     change       -0.2008881E-05 Eh
 * total energy  :  -115.9707068 Eh     change       -0.2117086E-05 Eh
 * total energy  :  -115.9707090 Eh     change       -0.2243281E-05 Eh
 * total energy  :  -115.9707090 Eh     change       -0.2487118E-07 Eh
   *** GEOMETRY OPTIMIZATION CONVERGED AFTER 68 ITERATIONS ***

 final structure:
================
74
 xtb: 6.7.1 (edcfbbe)
C           -4.33764303781196       -3.38768182681020       -1.11309995470679
C           -4.29986705907451       -2.38308794493912        0.05439374251095
C           -5.19874969972218       -2.87120890519869        1.20687595512404
C           -4.82708164858430       -1.04915058523640       -0.42474550751326
C           -6.12476065267509       -0.95910485394210       -0.90820227564119
C           -6.68074272985692        0.24845705349862       -1.29301171774591
C           -5.94181208561785        1.41367684153105       -1.15448070317234
C           -4.65281706051133        1.35533425409283       -0.67775532272579
C           -4.05983681720209        0.12408535888992       -0.34922348246378
N           -2.74790264048700        0.09916744788927        0.08790914509657
C           -2.00043786128405        1.28571874554238        0.09157837214613
C           -1.75718181632103        1.98445527606373       -1.13119996840879
C           -0.93754553465616        3.06738121925508       -1.14235675793137
C           -0.36961736832913        3.55542590010849        0.06172835449729
S            1.13981952647926        4.44979446722077       -0.02126043655827
O            1.23139916780315        5.20931953767259       -1.24211573910870
O            1.41588114244373        5.11523342605413        1.22634989813696
C            2.08282937190188        2.94715918168821       -0.14707332949291
C            2.24010184532570        2.36751626161941       -1.41263171784098
C            2.64160167163635        1.06064706703895       -1.55453519225600
C            2.86511700870911        0.31719945524679       -0.39059649699390
C            2.67850879304593        0.88863723685955        0.89554776184832
C            2.28917316308969        2.20706127208695        1.02227551577885
C            2.93773149569980       -0.16164036091170        1.84551622204792
C            2.92098157607367       -0.21936960889231        3.23026865718606
C            3.23956514410296       -1.41703513815011        3.84712585411935
C            3.58686899968914       -2.53898325313985        3.09950058222271
C            3.60858723086358       -2.50631134198665        1.71617961783390
C            3.26202425822789       -1.31529454140898        1.09191136250633
N            3.21438532008393       -1.00911197885129       -0.25334035860384
C            3.49515367319679       -1.89861586959913       -1.29755537403592
C            4.41084579795749       -1.54875546727291       -2.28817078992270
C            4.69059699379496       -2.43462569432186       -3.31062424979828
C            4.06815129789488       -3.67248976450309       -3.35445213589711
C            3.15444540482556       -4.01969908592940       -2.37153435185734
C            2.86216753980554       -3.13936657875480       -1.34759291151560
C           -0.67155879185907        2.89981757026049        1.29094693547558
C           -1.44839002338885        1.78588544625093        1.30148617835412
C           -2.15350769359206       -1.07673978837640        0.51170714165146
C           -0.79334460456785       -1.07976202403679        0.86864838390868
C           -0.19022946009901       -2.22143393269885        1.34314975033585
C           -0.91673180204507       -3.39841627048835        1.44135838958876
C           -2.23614942531392       -3.41926560345436        1.02443651336551
C           -2.87482677023988       -2.28167892941995        0.55175131728302
H           -5.34778635927252       -3.49444776360445       -1.49745619795891
H           -3.69643915585788       -3.04122024141831       -1.92125967807840
H           -3.98996615888777       -4.36590776052059       -0.79421854972437
H           -4.86045790538965       -3.83359229821134        1.57962237798659
H           -6.22819325011402       -2.97630566627737        0.87727720239592
H           -5.17152303905554       -2.15577195280806        2.02639391590659
H           -6.72800292687594       -1.85071297373909       -0.98231926622635
H           -7.69079249197798        0.28200853796395       -1.67068046517781
H           -6.37592974101803        2.36862342610643       -1.40711042357066
H           -4.09258143008874        2.26510753755487       -0.53620922620778
H           -2.18201463934631        1.59125917458881       -2.04323701544513
H           -0.68662850075357        3.58065767174665       -2.05672360111783
H            2.04260729427891        2.98731466962206       -2.27262043149911
H            2.76371157512607        0.61614917324628       -2.53031174970082
H            2.15243365901874        2.68092740858564        1.97947546777093
H            2.67038338490373        0.65537002374786        3.80980316739058
H            3.23105023389940       -1.48311496661151        4.92455987791554
H            3.84853949800651       -3.45434318094679        3.60904893441559
H            3.89376322292763       -3.37620568497001        1.14414388405406
H            4.91015350895284       -0.59303023103428       -2.23559847915204
H            5.40500067777880       -2.16182380482371       -4.07285445765246
H            4.29344590726760       -4.36349027807971       -4.15228547838651
H            2.66110573658933       -4.97970509861235       -2.40738538282263
H            2.13042464334977       -3.39452404646037       -0.59528172128936
H           -0.27918207643821        3.33064844019170        2.19722964477555
H           -1.70010510607908        1.28627184729776        2.22620137056366
H           -0.21157255198078       -0.17865734965590        0.76044824261563
H            0.84778680380577       -2.19470737530473        1.63564675001264
H           -0.45402326977212       -4.29731537081226        1.81859093289619
H           -2.77637794223915       -4.35226892431281        1.06965118772996

 projected vibrational frequencies (cm⁻¹)
eigval :       -0.00    -0.00    -0.00     0.00     0.00     0.00
eigval :        8.70    15.09    22.90    26.11    38.46    45.33
eigval :       55.12    58.73    63.67    68.72    74.49    93.41
eigval :      100.93   110.54   117.95   127.80   130.53   133.72
eigval :      160.84   181.40   189.21   191.82   210.00   214.06
eigval :      217.12   238.80   241.85   261.17   267.12   289.69
eigval :      303.52   306.17   314.45   328.36   335.42   344.13
eigval :      369.86   373.91   377.18   379.11   384.85   393.93
eigval :      397.25   408.33   411.21   413.63   420.58   446.52
eigval :      453.35   464.55   492.21   503.13   506.99   528.51
eigval :      532.11   543.12   543.80   549.72   557.77   566.73
eigval :      581.21   585.79   589.23   597.33   607.72   608.27
eigval :      635.69   639.83   657.84   668.80   672.77   686.50
eigval :      699.63   700.67   712.49   727.80   759.71   764.82
eigval :      772.31   774.64   776.83   796.59   800.14   804.77
eigval :      824.59   839.35   865.44   866.13   869.46   873.35
eigval :      878.56   879.58   890.71   893.60   899.11   901.66
eigval :      904.53   906.81   912.75   913.12   918.37   919.90
eigval :      922.98   928.28   929.69   931.27   936.08   946.79
eigval :      958.35   988.52   993.93  1008.35  1013.37  1031.39
eigval :     1067.59  1070.49  1076.39  1077.60  1103.01  1109.65
eigval :     1110.43  1112.48  1118.45  1121.73  1132.17  1134.65
eigval :     1144.78  1150.33  1154.45  1172.27  1174.20  1176.08
eigval :     1179.73  1182.03  1183.56  1195.46  1200.23  1207.48
eigval :     1226.19  1232.54  1234.20  1237.98  1247.77  1255.73
eigval :     1272.17  1274.90  1286.02  1287.07  1293.52  1293.81
eigval :     1320.08  1327.39  1330.45  1332.80  1337.03  1347.95
eigval :     1357.60  1368.83  1380.42  1401.61  1402.79  1411.23
eigval :     1418.08  1420.32  1423.02  1432.93  1449.61  1452.29
eigval :     1459.61  1467.54  1473.74  1482.40  1486.19  1486.78
eigval :     1490.35  1496.96  1499.66  1510.61  1522.69  1525.72
eigval :     1543.95  1554.65  1558.12  1572.24  1576.27  1582.98
eigval :     3031.21  3032.82  3046.33  3048.59  3054.39  3058.14
eigval :     3069.19  3074.00  3079.52  3081.05  3083.65  3087.36
eigval :     3087.51  3087.77  3088.24  3090.54  3094.17  3094.92
eigval :     3095.69  3097.25  3101.31  3101.95  3103.64  3103.98
eigval :     3105.97  3109.22  3109.45  3114.89  3115.10  3119.54

   temp. (K)  partition function   enthalpy   heat capacity  entropy
                                   cal/mol     cal/K/mol   cal/K/mol   J/K/mol
 298.15  VIB  0.154E+17            21692.349    138.158    134.052
         ROT  0.518E+08              888.752      2.981     38.280
         INT  0.799E+24            22581.101    141.139    172.332
         TR   0.139E+29             1481.254      4.968     44.992
         TOT                       24062.3554   146.1075   217.3238   909.2830

       T/K    H(0)-H(T)+PV         H(T)/Eh          T*S/Eh         G(T)/Eh
   ------------------------------------------------------------------------
    298.15    0.383458E-01    0.604112E+00    0.103258E+00    0.500854E+00
   ------------------------------------------------------------------------

         :::::::::::::::::::::::::::::::::::::::::::::::::::::
         ::                  THERMODYNAMIC                  ::
         :::::::::::::::::::::::::::::::::::::::::::::::::::::
         :: total free energy        -115.469854989148 Eh   ::
         ::.................................................::
         :: total energy             -115.970709020408 Eh   ::
         :: zero point energy           0.565765797135 Eh   ::
         :: G(RRHO) w/o ZPVE           -0.064911765875 Eh   ::
         :: G(RRHO) contrib.            0.500854031260 Eh   ::
         :::::::::::::::::::::::::::::::::::::::::::::::::::::

           -------------------------------------------------
          | TOTAL ENERGY             -115.970709020408 Eh   |
          | TOTAL ENTHALPY           -115.366597419128 Eh   |
          | TOTAL FREE ENERGY        -115.469854989148 Eh   |
          | GRADIENT NORM               0.000069979754 Eh/α |
           -------------------------------------------------

 * finished run on 2025/07/20 at 13:27:43.726
