   * xtb version 6.7.1 (edcfbbe) compiled by 'albert@albert-system' on 2024-07-22

   ID    Z sym.   atoms
    1    6 C      1-7, 9-43
    2    7 N      8
    3    1 H      44-70

          program call               : xtb data2507/gas/D5/D5.xyz --gfn 2 --ohess vtight --parallel 40 --molden --ceasefiles --namespace data2507/gas/D5/D5_gas_S0_preOpt
          :  Hamiltonian                  GFN2-xTB          :
 * total energy  :  -106.6591078 Eh     change       -0.1078092E-08 Eh
 * total energy  :  -106.6728059 Eh     change       -0.1369808E-01 Eh
 * total energy  :  -106.6758083 Eh     change       -0.3002452E-02 Eh
 * total energy  :  -106.6764716 Eh     change       -0.6632514E-03 Eh
 * total energy  :  -106.6770503 Eh     change       -0.5787682E-03 Eh
 * total energy  :  -106.6772678 Eh     change       -0.2174456E-03 Eh
 * total energy  :  -106.6774335 Eh     change       -0.1657271E-03 Eh
 * total energy  :  -106.6775784 Eh     change       -0.1448754E-03 Eh
 * total energy  :  -106.6776927 Eh     change       -0.1142671E-03 Eh
 * total energy  :  -106.6777754 Eh     change       -0.8276718E-04 Eh
 * total energy  :  -106.6781213 Eh     change       -0.1756185E-05 Eh
 * total energy  :  -106.6781228 Eh     change       -0.1590565E-05 Eh
 * total energy  :  -106.6781243 Eh     change       -0.1462731E-05 Eh
 * total energy  :  -106.6781257 Eh     change       -0.1418612E-05 Eh
 * total energy  :  -106.6781272 Eh     change       -0.1502205E-05 Eh
 * total energy  :  -106.6781289 Eh     change       -0.1693591E-05 Eh
 * total energy  :  -106.6781309 Eh     change       -0.1978892E-05 Eh
 * total energy  :  -106.6781332 Eh     change       -0.2346396E-05 Eh
 * total energy  :  -106.6781332 Eh     change       -0.5841670E-08 Eh
   *** GEOMETRY OPTIMIZATION CONVERGED AFTER 68 ITERATIONS ***

 final structure:
================
70
 xtb: 6.7.1 (edcfbbe)
C            0.73516524662550        2.19089978940107       -3.32602165566384
C           -0.53455439292412        1.90944885630404       -2.85639240698070
C           -0.70884910033448        1.03855890535332       -1.78333311873475
C           -2.05349857827915        0.74877473564153       -1.26388214708228
C           -3.11681935156221        0.50842875270107       -2.13107944880201
C           -4.38122698366041        0.24287949547912       -1.64517356423314
C           -4.60992879949005        0.21286674028596       -0.27239825903167
N           -5.89317859783401       -0.05058392030306        0.22567646103187
C           -6.57244987672876        0.71680653218205        1.15055793623760
C           -6.19779999948665        1.90769222245389        1.75617433397941
C           -7.08913253160236        2.49217086739949        2.63519892553655
C           -8.32886264027328        1.91640052245527        2.90489442985148
C           -8.71609755241645        0.74354008192929        2.28847476948260
C           -7.83756417184441        0.13689534452160        1.40042829011293
C           -7.91327000523311       -1.04313521524233        0.58565213041678
C           -8.88031590186138       -2.02446085366790        0.41185515176864
C           -8.61817739511175       -3.06520466073845       -0.45629771096262
C           -7.40463302107441       -3.14268826734459       -1.13635211641475
C           -6.42715123396605       -2.17880978124721       -0.98051864649567
C           -6.69393761528094       -1.11836091515276       -0.12635956700806
C           -3.55296071307760        0.44933898278692        0.60199135180965
C           -2.29142306777494        0.71343310315355        0.10837235235489
C            0.41046058103953        0.45093333052336       -1.20468005754251
C            1.69022300459819        0.72471544206918       -1.67345990920668
C            2.86048385526598        0.08718527894303       -1.05264453149690
C            2.84775248356562       -1.27216672694748       -0.73189574086641
C            3.95758641644494       -1.86036615365814       -0.18004636640569
C            5.12391687492044       -1.13383142654642        0.10016480184213
C            6.30839442299860       -1.77160894005027        0.64299733403314
C            6.36574709544336       -3.15700979725731        0.85204417548093
C            7.49368462402785       -3.77095015279698        1.34077390240210
C            8.61842487929483       -3.01000568260899        1.63232547799725
C            8.58901805045591       -1.65018750356563        1.43568388495188
C            7.44808537673907       -0.99674073160711        0.94928153988191
C            7.42201736703719        0.44157999854651        0.75043553651543
C            8.50311775140976        1.25301601103651        1.12258014587685
C            8.49214484914059        2.61288695868204        0.92497137490536
C            7.38343928153320        3.21330115175373        0.34278403798267
C            6.30464296900296        2.44266488199280       -0.01886295759652
C            6.28824203357815        1.05417923241051        0.17429092953735
C            5.12982514598394        0.25075965850759       -0.17570273391442
C            3.99649871238590        0.82020584031512       -0.76699531360472
C            1.84334690700504        1.60763939156663       -2.73980532116223
H            0.86199010503106        2.87090817065725       -4.15600455347431
H           -1.39518087966949        2.38224143113410       -3.30627906366634
H           -2.94667158462731        0.51918710945708       -3.19772674953532
H           -5.20244103892948        0.07057090688196       -2.32498721083969
H           -5.24636029591173        2.37032446283113        1.54042926438085
H           -6.82013587075959        3.41846121799896        3.12138329140898
H           -8.99646608259994        2.40341795454872        3.60011969797710
H           -9.68295667847250        0.30542028941981        2.48560249047724
H           -9.81443963195285       -1.97242942199899        0.95067828561738
H           -9.35749362153269       -3.83778849027024       -0.60710277060593
H           -7.22226287475014       -3.97719710365477       -1.79748351945074
H           -5.48294718814020       -2.25634379068124       -1.49849253545118
H           -3.72587936550473        0.41325873890151        1.66737308535403
H           -1.48028038581082        0.90871893603752        0.79444564584091
H            0.28384843248256       -0.23050795513106       -0.37567724104805
H            1.97069104257531       -1.86541344675980       -0.94563648483065
H            3.91021437341531       -2.91445971667129        0.03961377370557
H            5.51427817215420       -3.77569908443429        0.62025201846756
H            7.50687583223682       -4.84060641942720        1.48984835449017
H            9.51350651442983       -3.48382557243270        2.00759157358710
H            9.48140871232035       -1.08867508324009        1.65892023683259
H            9.37291983032353        0.81740761289932        1.58639323716632
H            9.34043320728135        3.21071015228440        1.22416031873838
H            7.36445880456255        4.28117887439396        0.18205578312229
H            5.45325882415118        2.94022119408780       -0.45378183172163
H            3.97757951546548        1.87257184307676       -0.99931788914844
H            2.83166273354656        1.81725281042818       -3.12208390818522

          :  Hamiltonian                  GFN2-xTB          :
         :: gradient norm              0.000062307078 Eh/a0 ::
         :: HOMO-LUMO gap              2.656852773443 eV    ::
         :: SCC energy              -108.761837520769 Eh    ::
         :: -> dispersion             -0.094752616207 Eh    ::
         :: repulsion energy           2.083704271113 Eh    ::

    * Orbital Energies and Occupations

         #    Occupation            Energy/Eh            Energy/eV
      -------------------------------------------------------------
         1        2.0000           -0.6732472             -18.3200
       ...           ...                  ...                  ...
        88        2.0000           -0.4155924             -11.3088
        89        2.0000           -0.4151936             -11.2980
        90        2.0000           -0.4122333             -11.2174
        91        2.0000           -0.4068762             -11.0717
        92        2.0000           -0.4047844             -11.0147
        93        2.0000           -0.4022446             -10.9456
        94        2.0000           -0.4018829             -10.9358
        95        2.0000           -0.3943614             -10.7311
        96        2.0000           -0.3915680             -10.6551
        97        2.0000           -0.3804245             -10.3519
        98        2.0000           -0.3759793             -10.2309
        99        2.0000           -0.3752743             -10.2117
       100        2.0000           -0.3588995              -9.7662 (HOMO)
       101                         -0.2612619              -7.1093 (LUMO)
       102                         -0.2560197              -6.9667
       103                         -0.2505255              -6.8171
       104                         -0.2408309              -6.5533
       105                         -0.2390111              -6.5038
       106                         -0.2312800              -6.2934
       107                         -0.2238801              -6.0921
       108                         -0.2185259              -5.9464
       109                         -0.2099367              -5.7127
       110                         -0.1938782              -5.2757
       111                         -0.1911090              -5.2003
       ...                                ...                  ...
       199                          0.7494600              20.3938
      -------------------------------------------------------------
                  HL-Gap            0.0976375 Eh            2.6569 eV

     #   Z          covCN         q      C6AA      α(0)
     1   6 C        2.917    -0.030    28.753     8.793
     2   6 C        2.925    -0.036    28.902     8.816
     3   6 C        2.976     0.009    27.803     8.649
     4   6 C        2.977     0.007    27.856     8.657
     5   6 C        2.925    -0.033    28.832     8.806
     6   6 C        2.920    -0.043    29.074     8.842
     7   6 C        2.913     0.063    26.599     8.457
     8   7 N        2.803    -0.044    22.098     6.982
     9   6 C        3.077     0.047    26.873     8.499
    10   6 C        2.910    -0.051    29.267     8.871
    11   6 C        2.924    -0.034    28.838     8.806
    12   6 C        2.920    -0.041    29.023     8.834
    13   6 C        2.913    -0.033    28.822     8.803
    14   6 C        3.068    -0.017    28.371     8.734
    15   6 C        3.068    -0.017    28.371     8.734
    16   6 C        2.912    -0.033    28.821     8.803
    17   6 C        2.920    -0.041    29.024     8.835
    18   6 C        2.924    -0.034    28.839     8.807
    19   6 C        2.910    -0.051    29.267     8.871
    20   6 C        3.077     0.047    26.873     8.499
    21   6 C        2.920    -0.043    29.072     8.842
    22   6 C        2.925    -0.033    28.831     8.805
    23   6 C        2.931    -0.039    28.969     8.827
    24   6 C        2.976     0.010    27.789     8.647
    25   6 C        2.975     0.007    27.856     8.657
    26   6 C        2.922    -0.036    28.903     8.816
    27   6 C        2.921    -0.037    28.911     8.817
    28   6 C        2.979     0.004    27.923     8.668
    29   6 C        2.979     0.006    27.876     8.661
    30   6 C        2.923    -0.036    28.890     8.814
    31   6 C        2.917    -0.031    28.784     8.798
    32   6 C        2.917    -0.032    28.786     8.798
    33   6 C        2.923    -0.036    28.887     8.814
    34   6 C        2.979     0.006    27.883     8.662
    35   6 C        2.979     0.006    27.877     8.661
    36   6 C        2.923    -0.036    28.887     8.814
    37   6 C        2.917    -0.031    28.785     8.798
    38   6 C        2.917    -0.032    28.787     8.798
    39   6 C        2.923    -0.036    28.887     8.814
    40   6 C        2.979     0.006    27.883     8.662
    41   6 C        2.978     0.005    27.895     8.663
    42   6 C        2.929    -0.042    29.032     8.836
    43   6 C        2.925    -0.036    28.892     8.815
    44   1 H        0.926     0.031     2.578     2.511
    45   1 H        0.926     0.031     2.571     2.508
    46   1 H        0.926     0.037     2.486     2.466
    47   1 H        0.926     0.040     2.445     2.445
    48   1 H        0.926     0.027     2.636     2.539
    49   1 H        0.926     0.028     2.613     2.528
    50   1 H        0.926     0.027     2.627     2.535
    51   1 H        0.926     0.030     2.583     2.513
    52   1 H        0.926     0.030     2.584     2.514
    53   1 H        0.926     0.027     2.627     2.535
    54   1 H        0.926     0.028     2.614     2.528
    55   1 H        0.926     0.026     2.637     2.540
    56   1 H        0.926     0.040     2.444     2.445
    57   1 H        0.926     0.037     2.484     2.465
    58   1 H        0.926     0.033     2.544     2.494
    59   1 H        0.926     0.030     2.580     2.512
    60   1 H        0.926     0.033     2.540     2.492
    61   1 H        0.926     0.033     2.550     2.497
    62   1 H        0.926     0.029     2.602     2.523
    63   1 H        0.926     0.029     2.602     2.522
    64   1 H        0.926     0.033     2.547     2.496
    65   1 H        0.926     0.033     2.545     2.495
    66   1 H        0.926     0.029     2.601     2.522
    67   1 H        0.926     0.029     2.603     2.523
    68   1 H        0.926     0.032     2.552     2.498
    69   1 H        0.926     0.035     2.518     2.481
    70   1 H        0.926     0.032     2.562     2.503

molecular dipole:
                 x           y           z       tot (Debye)
 q only:        0.562       0.100      -0.186
   full:        0.628       0.114      -0.213       1.710

 projected vibrational frequencies (cm⁻¹)
eigval :       -0.00    -0.00    -0.00    -0.00    -0.00     0.00
eigval :        8.79    10.91    13.05    22.97    29.76    38.08
eigval :       45.17    60.73    73.10    83.96    90.77   105.09
eigval :      107.08   120.28   134.02   144.70   182.75   197.99
eigval :      212.84   228.30   242.37   247.60   253.77   271.72
eigval :      276.91   309.76   316.86   356.11   374.71   381.84
eigval :      382.18   393.47   394.83   395.59   401.92   407.54
eigval :      422.43   426.21   439.53   441.40   452.84   472.88
eigval :      505.28   515.79   519.35   527.59   533.54   541.19
eigval :      545.69   568.28   583.98   587.05   589.40   595.99
eigval :      599.45   604.12   615.51   630.50   664.85   672.91
eigval :      673.83   677.59   687.17   695.97   702.44   705.80
eigval :      711.09   748.80   755.46   759.22   765.46   769.42
eigval :      770.95   779.22   780.72   790.91   820.06   827.46
eigval :      846.74   861.28   865.01   867.01   867.51   873.34
eigval :      879.88   892.55   898.08   900.72   902.42   902.93
eigval :      904.32   908.45   915.66   919.67   921.19   923.73
eigval :      925.47   926.28   929.99   931.84   934.68   957.81
eigval :      984.21  1012.13  1014.44  1020.16  1031.15  1070.02
eigval :     1073.52  1087.03  1097.74  1101.16  1118.09  1126.19
eigval :     1133.70  1137.87  1145.65  1152.64  1154.84  1172.68
eigval :     1176.78  1181.52  1183.29  1183.71  1191.37  1201.21
eigval :     1203.95  1237.02  1237.58  1245.37  1252.26  1262.10
eigval :     1266.92  1268.96  1271.01  1281.50  1300.02  1304.39
eigval :     1307.04  1313.51  1315.70  1319.12  1325.19  1336.91
eigval :     1341.57  1357.61  1361.26  1362.56  1370.02  1393.19
eigval :     1403.13  1417.29  1425.93  1428.72  1431.85  1434.72
eigval :     1445.34  1467.50  1476.88  1480.64  1488.74  1495.87
eigval :     1503.05  1542.15  1561.47  1562.02  1568.74  1574.92
eigval :     1577.53  1589.23  1589.97  1592.94  1594.83  1599.32
eigval :     1600.25  1606.69  1615.64  3072.34  3075.15  3075.40
eigval :     3075.51  3075.77  3077.37  3079.35  3080.36  3080.55
eigval :     3081.53  3082.42  3083.00  3085.12  3086.38  3087.30
eigval :     3088.95  3090.03  3092.71  3093.70  3094.47  3096.08
eigval :     3100.91  3102.00  3103.19  3114.95  3115.30  3116.39

   temp. (K)  partition function   enthalpy   heat capacity  entropy
                                   cal/mol     cal/K/mol   cal/K/mol   J/K/mol
 298.15  VIB  0.553E+15            18758.621    122.422    115.778
         ROT  0.899E+08              888.752      2.981     39.376
         INT  0.497E+23            19647.373    125.403    155.154
         TR   0.123E+29             1481.254      4.968     44.756
         TOT                       21128.6269   130.3713   199.9097   836.4224

       T/K    H(0)-H(T)+PV         H(T)/Eh          T*S/Eh         G(T)/Eh
   ------------------------------------------------------------------------
    298.15    0.336706E-01    0.575690E+00    0.949836E-01    0.480706E+00
   ------------------------------------------------------------------------

         :::::::::::::::::::::::::::::::::::::::::::::::::::::
         ::                  THERMODYNAMIC                  ::
         :::::::::::::::::::::::::::::::::::::::::::::::::::::
         :: total free energy        -106.197427112592 Eh   ::
         ::.................................................::
         :: total energy             -106.678133249656 Eh   ::
         :: zero point energy           0.542019097221 Eh   ::
         :: G(RRHO) w/o ZPVE           -0.061312960157 Eh   ::
         :: G(RRHO) contrib.            0.480706137064 Eh   ::
         :::::::::::::::::::::::::::::::::::::::::::::::::::::

           -------------------------------------------------
          | TOTAL ENERGY             -106.678133249656 Eh   |
          | TOTAL ENTHALPY           -106.102443542268 Eh   |
          | TOTAL FREE ENERGY        -106.197427112592 Eh   |
          | GRADIENT NORM               0.000062306511 Eh/α |
          | HOMO-LUMO GAP               2.656852688165 eV   |
           -------------------------------------------------

 * finished run on 2025/09/04 at 21:42:20.442
