   * xtb version 6.7.1 (edcfbbe) compiled by 'albert@albert-system' on 2024-07-22

   ID    Z sym.   atoms
    1    6 C      1-7, 9-43
    2    7 N      8
    3    1 H      44-70

          program call               : xtb data2507/gas/D5/D5_gas_T1_crest.xyz --gfn 2 --spinpol --tblite --uhf 2 --ohess vtight --parallel 40 --molden --ceasefiles --namespace data2507/gas/D5/D5_gas_T1_finalOpt
 * total energy  :  -106.5814882 Eh     change       -0.6867879E-08 Eh
 * total energy  :  -106.5815069 Eh     change       -0.1867068E-04 Eh
 * total energy  :  -106.5815131 Eh     change       -0.6247842E-05 Eh
 * total energy  :  -106.5815140 Eh     change       -0.9368598E-06 Eh
 * total energy  :  -106.5815148 Eh     change       -0.7480435E-06 Eh
 * total energy  :  -106.5815155 Eh     change       -0.7046106E-06 Eh
 * total energy  :  -106.5815164 Eh     change       -0.9336819E-06 Eh
 * total energy  :  -106.5815173 Eh     change       -0.8150863E-06 Eh
 * total energy  :  -106.5815176 Eh     change       -0.3763458E-06 Eh
 * total energy  :  -106.5815179 Eh     change       -0.2717524E-06 Eh
 * total energy  :  -106.5815193 Eh     change       -0.2556073E-06 Eh
 * total energy  :  -106.5815194 Eh     change       -0.1199804E-06 Eh
 * total energy  :  -106.5815197 Eh     change       -0.2938389E-06 Eh
 * total energy  :  -106.5815200 Eh     change       -0.3000208E-06 Eh
 * total energy  :  -106.5815205 Eh     change       -0.4217863E-06 Eh
 * total energy  :  -106.5815208 Eh     change       -0.3483630E-06 Eh
 * total energy  :  -106.5815211 Eh     change       -0.3096928E-06 Eh
 * total energy  :  -106.5815214 Eh     change       -0.2885855E-06 Eh
 * total energy  :  -106.5815214 Eh     change        0.4045830E-10 Eh
   *** GEOMETRY OPTIMIZATION CONVERGED AFTER 22 ITERATIONS ***

 final structure:
================
70
 xtb: 6.7.1 (edcfbbe)
C            0.66547924656551        4.77091333667610        0.09141065288458
C           -0.53725711408023        4.07367068595203        0.10377105806067
C           -0.52592440721241        2.67289562944972       -0.00116593077408
C           -1.78679163623318        1.92005231793936        0.00210404968259
C           -2.90217714733457        2.38941416886752       -0.69036818581813
C           -4.08335367986279        1.67649960153049       -0.70121914278203
C           -4.18270130591464        0.47679678091208       -0.00108333780866
N           -5.38046862691559       -0.24949120015049       -0.00637998778651
C           -6.63554290427905        0.25768534519771        0.26373068589016
C           -7.00850157246958        1.53965186727477        0.64275006398494
C           -8.34871421187819        1.77755036654862        0.88092252166160
C           -9.30030488083577        0.76790260890033        0.75641443831495
C           -8.93200742476714       -0.51591886329159        0.40443306425430
C           -7.59140253742656       -0.77943746897921        0.15984317712274
C           -6.86663502298316       -1.96778272168721       -0.19608110008261
C           -7.24711661948688       -3.27794891945028       -0.45159946770288
C           -6.27341660043957       -4.19372539294055       -0.79943764744781
C           -4.93810872900040       -3.81272565671941       -0.90943143401404
C           -4.53509493533616       -2.51463068919208       -0.66048927782832
C           -5.50521925703919       -1.59578054542407       -0.28527145781522
C           -3.07847401593747        0.00487581497470        0.70434786498207
C           -1.89670973766481        0.71623850605862        0.69749594077705
C            0.67814544284648        2.01101591800054       -0.11361029140186
C            1.91867699427632        2.69464836444055       -0.14393699286127
C            3.15585208329167        2.00974015099337       -0.27148026969172
C            4.35398194425649        2.67642188946851       -0.69152477560526
C            5.54013653181769        2.03679891779373       -0.74448967614666
C            5.68947427003337        0.65620546605449       -0.35250939422325
C            6.93042735257284        0.05302531412347       -0.13130410250402
C            8.15569589785486        0.78174890051872       -0.22419376920715
C            9.35520079972482        0.21419711377380        0.08710420573019
C            9.41151413422569       -1.11691407755868        0.51900709093266
C            8.24889578519000       -1.86247470946057        0.59250767841700
C            7.00784146130511       -1.33296581816427        0.25907417109672
C            5.79906345977987       -2.13494504574851        0.26471629000887
C            5.83965033121301       -3.52552776124349        0.42054418385103
C            4.69219345431728       -4.29434274948133        0.39209707015919
C            3.46646556906427       -3.69052634077189        0.18054931044641
C            3.40253608220359       -2.31880320013040        0.01112622040399
C            4.54355422877734       -1.51913585689383        0.07018670832721
C            4.46407332348854       -0.07465966675075       -0.11118222284174
C            3.27973526372133        0.60306680542569       -0.03294571302411
C            1.86290024339187        4.11346077060652       -0.03471054276276
H            0.65428875753096        5.84736755555556        0.18840448586048
H           -1.47208309558771        4.59949024889892        0.22038796927360
H           -2.83115731547029        3.30844979223470       -1.25306351444818
H           -4.93046921473722        2.03309301180171       -1.26815487931006
H           -6.27633441037349        2.32410568699498        0.76054585672746
H           -8.66480025040550        2.76780407668814        1.17402132074104
H          -10.33842553559028        0.99468406682228        0.94836187231229
H           -9.66727711187894       -1.30227813689913        0.32433068971899
H           -8.28429108637758       -3.56938242572555       -0.38302163501223
H           -6.54783062594590       -5.21872687445971       -0.99950918111117
H           -4.20151837387441       -4.54732029273153       -1.19965294866615
H           -3.50076660695418       -2.22485484454701       -0.76744576068833
H           -3.16141802428390       -0.91029451717048        1.27164666139079
H           -1.05322311693482        0.35097835223794        1.26470783465915
H            0.65961250522212        0.94100670859402       -0.24909007005286
H            4.29442837153336        3.70284945749487       -1.01923134461043
H            6.40422684958304        2.57235550620794       -1.10410365860209
H            8.13257609386681        1.81460377425043       -0.53074984733802
H           10.26552469411147        0.79150971150397        0.01448883962826
H           10.35764429486967       -1.55930514339750        0.79082778236907
H            8.32637703816935       -2.88311258755073        0.93282653510920
H            6.78434566102940       -4.02790027147720        0.55206481602201
H            4.75891528289926       -5.36480484360526        0.51984305931207
H            2.56423836172511       -4.28244867101693        0.13619958102468
H            2.44146817025669       -1.87236057768836       -0.19053657022372
H            2.39319681751025        0.06943489795439        0.26501094589717
H            2.77883640048591        4.68165221668828       -0.00863004894154

 projected vibrational frequencies (cm⁻¹)
eigval :       -0.00    -0.00    -0.00     0.00     0.00     0.00
eigval :        8.74    10.96    14.05    24.09    40.51    43.52
eigval :       56.69    58.85    72.82    85.50    92.64   103.19
eigval :      107.61   114.45   136.07   146.87   180.74   184.15
eigval :      200.22   219.82   240.60   244.01   250.51   271.46
eigval :      275.63   285.43   302.20   351.48   367.39   369.95
eigval :      380.96   384.42   388.82   392.90   397.03   403.47
eigval :      408.81   414.95   425.18   438.83   443.95   459.88
eigval :      470.85   504.66   509.07   518.20   533.69   538.33
eigval :      540.08   555.23   565.77   577.10   580.27   586.20
eigval :      592.96   596.44   599.86   619.13   634.99   647.06
eigval :      659.00   666.34   674.21   684.70   692.86   702.83
eigval :      710.32   723.44   735.63   751.87   754.94   758.19
eigval :      762.14   767.34   769.25   779.43   779.92   809.67
eigval :      819.11   829.29   838.91   845.68   848.44   852.76
eigval :      866.19   872.85   879.88   883.30   893.12   898.09
eigval :      899.08   902.50   902.90   909.20   913.66   917.42
eigval :      919.34   920.57   926.83   927.92   934.05   941.08
eigval :      951.92   983.99   988.02  1011.99  1012.32  1033.78
eigval :     1069.92  1073.41  1079.29  1083.61  1111.42  1117.80
eigval :     1121.72  1127.24  1136.08  1143.27  1150.95  1159.11
eigval :     1174.62  1176.39  1179.41  1180.80  1183.16  1189.07
eigval :     1197.60  1203.46  1233.24  1235.54  1241.67  1242.96
eigval :     1246.55  1251.63  1265.86  1271.38  1271.64  1284.49
eigval :     1299.15  1299.63  1308.52  1317.00  1326.85  1337.12
eigval :     1342.69  1355.18  1356.85  1358.08  1360.63  1365.51
eigval :     1373.41  1376.57  1396.62  1409.55  1410.21  1424.25
eigval :     1431.48  1433.91  1450.66  1465.86  1472.55  1484.50
eigval :     1487.48  1491.42  1500.79  1507.90  1534.50  1552.99
eigval :     1556.52  1562.63  1568.19  1572.78  1586.86  1587.89
eigval :     1593.73  1601.51  1612.90  3070.55  3074.56  3074.87
eigval :     3077.74  3078.08  3080.12  3082.20  3082.93  3083.80
eigval :     3084.06  3084.30  3087.37  3089.87  3091.60  3092.26
eigval :     3093.43  3094.95  3095.40  3096.28  3096.55  3097.28
eigval :     3097.61  3098.55  3105.38  3109.38  3112.00  3117.74

   temp. (K)  partition function   enthalpy   heat capacity  entropy
                                   cal/mol     cal/K/mol   cal/K/mol   J/K/mol
 298.15  VIB  0.420E+15            19084.870    125.273    117.631
         ROT  0.815E+08              888.752      2.981     39.182
         INT  0.343E+23            19973.623    128.254    156.813
         TR   0.123E+29             1481.254      4.968     44.756
         TOT                       21454.8765   133.2225   201.5686   843.3630

       T/K    H(0)-H(T)+PV         H(T)/Eh          T*S/Eh         G(T)/Eh
   ------------------------------------------------------------------------
    298.15    0.341905E-01    0.571388E+00    0.957717E-01    0.475617E+00
   ------------------------------------------------------------------------

         :::::::::::::::::::::::::::::::::::::::::::::::::::::
         ::                  THERMODYNAMIC                  ::
         :::::::::::::::::::::::::::::::::::::::::::::::::::::
         :: total free energy        -106.105904770837 Eh   ::
         ::.................................................::
         :: total energy             -106.581521362163 Eh   ::
         :: zero point energy           0.537197813131 Eh   ::
         :: G(RRHO) w/o ZPVE           -0.061581221805 Eh   ::
         :: G(RRHO) contrib.            0.475616591327 Eh   ::
         :::::::::::::::::::::::::::::::::::::::::::::::::::::

           -------------------------------------------------
          | TOTAL ENERGY             -106.581521362163 Eh   |
          | TOTAL ENTHALPY           -106.010133026963 Eh   |
          | TOTAL FREE ENERGY        -106.105904770837 Eh   |
          | GRADIENT NORM               0.000059260563 Eh/α |
           -------------------------------------------------

 * finished run on 2025/09/04 at 21:50:07.645
