   * xtb version 6.7.1 (edcfbbe) compiled by 'albert@albert-system' on 2024-07-22

   ID    Z sym.   atoms
    1    6 C      1-7, 9-43
    2    7 N      8
    3    1 H      44-70

          program call               : xtb data2507/gas/D5/D5_gas_S0_crest.xyz --gfn 2 --ohess vtight --parallel 40 --molden --ceasefiles --namespace data2507/gas/D5/D5_gas_S0_finalOpt
          :  Hamiltonian                  GFN2-xTB          :
 * total energy  :  -106.6782814 Eh     change       -0.5966996E-09 Eh
 * total energy  :  -106.6782827 Eh     change       -0.1231101E-05 Eh
 * total energy  :  -106.6782844 Eh     change       -0.1694611E-05 Eh
 * total energy  :  -106.6782869 Eh     change       -0.2499941E-05 Eh
 * total energy  :  -106.6782881 Eh     change       -0.1237858E-05 Eh
 * total energy  :  -106.6782891 Eh     change       -0.9757481E-06 Eh
 * total energy  :  -106.6782903 Eh     change       -0.1231777E-05 Eh
 * total energy  :  -106.6782915 Eh     change       -0.1239434E-05 Eh
 * total energy  :  -106.6782926 Eh     change       -0.1048040E-05 Eh
 * total energy  :  -106.6782937 Eh     change       -0.1101013E-05 Eh
 * total energy  :  -106.6782977 Eh     change       -0.5125178E-06 Eh
 * total energy  :  -106.6782982 Eh     change       -0.4901029E-06 Eh
 * total energy  :  -106.6782988 Eh     change       -0.6074610E-06 Eh
 * total energy  :  -106.6782995 Eh     change       -0.6724485E-06 Eh
 * total energy  :  -106.6783002 Eh     change       -0.6933051E-06 Eh
 * total energy  :  -106.6783010 Eh     change       -0.8429003E-06 Eh
 * total energy  :  -106.6783023 Eh     change       -0.1260923E-05 Eh
 * total energy  :  -106.6783042 Eh     change       -0.1879631E-05 Eh
 * total energy  :  -106.6783042 Eh     change       -0.7937189E-08 Eh
   *** GEOMETRY OPTIMIZATION CONVERGED AFTER 22 ITERATIONS ***

 final structure:
================
70
 xtb: 6.7.1 (edcfbbe)
C            0.59959210840549        4.63279537041813       -0.81902379314942
C           -0.58713839228011        3.93170490590002       -0.71090220419805
C           -0.57769776660747        2.58735095438338       -0.34565757338644
C           -1.83518271592108        1.83657244978860       -0.22035704103585
C           -2.85345232186527        1.99292837678473       -1.15853426265961
C           -4.03283784087105        1.28448116972630       -1.05016362302619
C           -4.22890094653642        0.41189500017458        0.01693803622917
N           -5.42786394339177       -0.30252669210601        0.13584067986516
C           -6.69896409484409        0.23217676640307        0.06286333196812
C           -7.09580168279787        1.55310005308995       -0.08934496917987
C           -8.45092783857797        1.82208916461588       -0.10534316745875
C           -9.39609610140132        0.80831784716458        0.03549210416462
C           -9.00735358857099       -0.50430389730676        0.21256437831159
C           -7.65067889651660       -0.79982066769989        0.23162021165487
C           -6.90729989900754       -2.01542351305455        0.40950007746598
C           -7.27528519902275       -3.34080896530688        0.59993653052473
C           -6.28255211821176       -4.29306579240155        0.71468446984222
C           -4.93787734310077       -3.93981155868771        0.62587087331313
C           -4.54699376474879       -2.62815224933549        0.43695289962235
C           -5.53958812056020       -1.66274630639584        0.34635404890009
C           -3.22055782151363        0.25575688805744        0.96430029904560
C           -2.03649953015553        0.95349947427822        0.83847355826453
C            0.64180096333967        1.96604459147096       -0.10023533651735
C            1.84073963880455        2.66133036574857       -0.21264824142234
C            3.12188798100936        1.98613849679104        0.03932983789388
C            4.13765472457893        2.62100105795751        0.75805188644814
C            5.33175114919632        1.98185942598277        0.97633604818648
C            5.58386030301858        0.68838876141928        0.49614901934538
C            6.85942094110896        0.03062596007936        0.70788592636403
C            7.89809303937102        0.65319571319389        1.41507604098701
C            9.11667420000766        0.04592315084164        1.59976264823226
C            9.33985569913050       -1.21980949909308        1.07336913219700
C            8.33637696059037       -1.85515599505045        0.38213819518687
C            7.08126934911190       -1.26220640426314        0.18523724435589
C            6.01946862259301       -1.94813377542447       -0.52994133187214
C            6.19208210758493       -3.24613998090936       -1.03148717841772
C            5.18831843587661       -3.90733263695186       -1.69750794419884
C            3.96047612010480       -3.28524178638835       -1.88154228247053
C            3.76466098662435       -2.01305936144386       -1.40036406200481
C            4.77393070191955       -1.31285680209451       -0.72454381785201
C            4.56014667578399        0.03308859816201       -0.22174598635492
C            3.35277216366657        0.70812163124200       -0.43353060272892
C            1.80733832166568        4.00700118438046       -0.57143372893226
H            0.58295434508670        5.67613448070606       -1.09922380175998
H           -1.52821523194270        4.43126397878682       -0.88780000254474
H           -2.70579477444917        2.65561933365542       -1.99864587448295
H           -4.80309069363820        1.38974700564754       -1.79962914921166
H           -6.37163592493536        2.34864851297522       -0.18044861897167
H           -8.78493837277429        2.84218351269422       -0.22617834504993
H          -10.44620419233053        1.05939220737062        0.01460706481004
H           -9.73896012014349       -1.28823721981822        0.33833661429971
H           -8.31789804483661       -3.61617515263694        0.65204475032921
H           -6.54697565795281       -5.32910304095999        0.86600788395735
H           -4.18356858939620       -4.70911919337815        0.70290437090787
H           -3.50275450067661       -2.36784817861440        0.35105624251008
H           -3.37885859884909       -0.40188600510835        1.80604876946612
H           -1.26735693281162        0.83619912779512        1.58776508551769
H            0.65799344564955        0.92344021492841        0.18331627216520
H            3.97445723410265        3.61160526343065        1.15658046198019
H            6.08709602156839        2.50867985905296        1.53616764799850
H            7.75607007373431        1.63637402587742        1.83296567802092
H            9.89677765827346        0.55219157079390        2.14901594000670
H           10.29600323852904       -1.70395976639994        1.20710545972063
H            8.54078296763013       -2.83645275566164       -0.01360473663642
H            7.13040496757063       -3.75886581007409       -0.89772848007736
H            5.35354727992539       -4.90690165084509       -2.07177096004714
H            3.16238088595261       -3.79772123463658       -2.39821295867346
H            2.79892829473632       -1.55999662796551       -1.55424828144979
H            2.56796017731163        0.24375398854691       -1.00800954891934
H            2.73187353497579        4.55518107209564       -0.67698030306849

          :  Hamiltonian                  GFN2-xTB          :
         :: gradient norm              0.000063468665 Eh/a0 ::
         :: HOMO-LUMO gap              2.655584940791 eV    ::
         :: SCC energy              -108.761772246942 Eh    ::
         :: -> dispersion             -0.094866346754 Eh    ::
         :: repulsion energy           2.083468088414 Eh    ::

    * Orbital Energies and Occupations

         #    Occupation            Energy/Eh            Energy/eV
      -------------------------------------------------------------
         1        2.0000           -0.6735137             -18.3272
       ...           ...                  ...                  ...
        88        2.0000           -0.4157096             -11.3120
        89        2.0000           -0.4139365             -11.2638
        90        2.0000           -0.4123340             -11.2202
        91        2.0000           -0.4064998             -11.0614
        92        2.0000           -0.4047276             -11.0132
        93        2.0000           -0.4024195             -10.9504
        94        2.0000           -0.4022057             -10.9446
        95        2.0000           -0.3942370             -10.7277
        96        2.0000           -0.3914885             -10.6529
        97        2.0000           -0.3803895             -10.3509
        98        2.0000           -0.3758067             -10.2262
        99        2.0000           -0.3756152             -10.2210
       100        2.0000           -0.3591174              -9.7721 (HOMO)
       101                         -0.2615264              -7.1165 (LUMO)
       102                         -0.2559609              -6.9651
       103                         -0.2509843              -6.8296
       104                         -0.2409784              -6.5574
       105                         -0.2390760              -6.5056
       106                         -0.2310495              -6.2872
       107                         -0.2238650              -6.0917
       108                         -0.2188855              -5.9562
       109                         -0.2096629              -5.7052
       110                         -0.1938361              -5.2745
       111                         -0.1909291              -5.1954
       ...                                ...                  ...
       199                          0.7490697              20.3832
      -------------------------------------------------------------
                  HL-Gap            0.0975909 Eh            2.6556 eV

     #   Z          covCN         q      C6AA      α(0)
     1   6 C        2.917    -0.030    28.753     8.793
     2   6 C        2.925    -0.036    28.902     8.816
     3   6 C        2.976     0.009    27.805     8.649
     4   6 C        2.977     0.007    27.865     8.659
     5   6 C        2.925    -0.034    28.836     8.806
     6   6 C        2.920    -0.044    29.084     8.844
     7   6 C        2.913     0.062    26.601     8.457
     8   7 N        2.802    -0.044    22.086     6.980
     9   6 C        3.076     0.047    26.875     8.499
    10   6 C        2.910    -0.051    29.265     8.871
    11   6 C        2.924    -0.034    28.838     8.807
    12   6 C        2.920    -0.041    29.020     8.834
    13   6 C        2.913    -0.033    28.820     8.803
    14   6 C        3.068    -0.017    28.367     8.733
    15   6 C        3.068    -0.017    28.367     8.733
    16   6 C        2.913    -0.033    28.820     8.803
    17   6 C        2.920    -0.041    29.020     8.834
    18   6 C        2.924    -0.034    28.838     8.807
    19   6 C        2.910    -0.051    29.265     8.871
    20   6 C        3.076     0.047    26.875     8.499
    21   6 C        2.920    -0.044    29.082     8.843
    22   6 C        2.925    -0.033    28.833     8.806
    23   6 C        2.931    -0.039    28.979     8.828
    24   6 C        2.976     0.010    27.791     8.647
    25   6 C        2.975     0.007    27.857     8.658
    26   6 C        2.922    -0.036    28.903     8.816
    27   6 C        2.921    -0.037    28.913     8.818
    28   6 C        2.979     0.004    27.923     8.668
    29   6 C        2.979     0.006    27.875     8.661
    30   6 C        2.923    -0.036    28.890     8.814
    31   6 C        2.917    -0.031    28.785     8.798
    32   6 C        2.917    -0.032    28.786     8.798
    33   6 C        2.923    -0.036    28.886     8.814
    34   6 C        2.979     0.006    27.882     8.662
    35   6 C        2.979     0.006    27.877     8.661
    36   6 C        2.923    -0.036    28.887     8.814
    37   6 C        2.917    -0.031    28.784     8.798
    38   6 C        2.917    -0.032    28.786     8.798
    39   6 C        2.923    -0.036    28.886     8.814
    40   6 C        2.979     0.006    27.883     8.662
    41   6 C        2.978     0.005    27.895     8.664
    42   6 C        2.930    -0.042    29.035     8.837
    43   6 C        2.925    -0.035    28.882     8.813
    44   1 H        0.926     0.030     2.580     2.512
    45   1 H        0.926     0.031     2.573     2.508
    46   1 H        0.926     0.037     2.488     2.466
    47   1 H        0.926     0.040     2.446     2.446
    48   1 H        0.926     0.027     2.631     2.537
    49   1 H        0.926     0.028     2.612     2.527
    50   1 H        0.926     0.027     2.625     2.534
    51   1 H        0.926     0.030     2.582     2.513
    52   1 H        0.926     0.030     2.582     2.513
    53   1 H        0.926     0.027     2.625     2.534
    54   1 H        0.926     0.028     2.612     2.527
    55   1 H        0.926     0.027     2.632     2.537
    56   1 H        0.926     0.040     2.445     2.445
    57   1 H        0.926     0.037     2.485     2.465
    58   1 H        0.926     0.032     2.551     2.498
    59   1 H        0.926     0.031     2.577     2.510
    60   1 H        0.926     0.033     2.540     2.492
    61   1 H        0.926     0.033     2.550     2.497
    62   1 H        0.926     0.029     2.603     2.523
    63   1 H        0.926     0.029     2.602     2.523
    64   1 H        0.926     0.033     2.547     2.496
    65   1 H        0.926     0.033     2.545     2.495
    66   1 H        0.926     0.029     2.600     2.522
    67   1 H        0.926     0.029     2.602     2.522
    68   1 H        0.926     0.032     2.556     2.500
    69   1 H        0.926     0.035     2.517     2.481
    70   1 H        0.926     0.032     2.558     2.501

molecular dipole:
                 x           y           z       tot (Debye)
 q only:        0.504       0.261      -0.044
   full:        0.565       0.303      -0.051       1.636

 projected vibrational frequencies (cm⁻¹)
eigval :       -0.00    -0.00     0.00     0.00     0.00     0.00
eigval :        7.30    10.99    11.92    23.56    31.20    34.25
eigval :       48.02    56.62    77.70    81.50    87.26   102.76
eigval :      109.89   126.14   136.52   148.07   183.33   204.77
eigval :      209.71   225.25   246.56   248.04   257.28   271.99
eigval :      279.56   299.57   316.32   356.43   382.64   384.06
eigval :      385.73   393.38   393.79   396.35   402.69   405.12
eigval :      412.22   426.39   439.84   442.77   458.39   468.97
eigval :      505.35   515.72   518.92   527.52   534.64   541.18
eigval :      545.55   567.84   582.72   587.23   588.85   596.88
eigval :      600.87   604.59   609.37   633.54   665.77   672.21
eigval :      674.37   677.62   687.72   696.11   701.00   706.86
eigval :      711.86   748.81   755.70   759.01   765.43   769.53
eigval :      772.60   778.85   780.82   791.33   819.50   826.75
eigval :      845.69   860.90   863.15   865.25   866.76   873.50
eigval :      880.30   894.05   897.88   899.34   902.52   902.90
eigval :      903.89   908.36   915.15   919.80   921.17   923.68
eigval :      925.47   927.36   929.78   931.84   935.52   957.46
eigval :      984.17  1012.09  1014.11  1020.09  1030.90  1070.41
eigval :     1074.03  1087.10  1097.21  1101.80  1118.35  1128.57
eigval :     1133.44  1138.20  1145.72  1152.90  1155.03  1172.69
eigval :     1176.89  1181.47  1183.47  1183.88  1192.23  1201.46
eigval :     1204.81  1236.96  1241.88  1246.09  1250.23  1265.15
eigval :     1265.96  1269.74  1271.21  1280.60  1299.83  1303.61
eigval :     1306.77  1314.14  1315.46  1319.96  1322.14  1337.34
eigval :     1342.25  1357.73  1361.66  1362.44  1369.50  1396.97
eigval :     1402.07  1418.17  1426.84  1428.67  1431.27  1434.49
eigval :     1440.99  1469.36  1476.69  1480.40  1488.71  1495.97
eigval :     1503.06  1542.26  1560.61  1562.07  1568.68  1575.04
eigval :     1577.67  1586.99  1589.29  1593.45  1594.92  1599.28
eigval :     1599.97  1606.90  1615.47  3072.83  3075.37  3075.40
eigval :     3075.73  3075.79  3077.47  3079.47  3080.37  3080.92
eigval :     3081.46  3082.29  3084.63  3085.19  3086.40  3087.82
eigval :     3089.44  3091.16  3093.16  3094.15  3094.78  3096.29
eigval :     3101.23  3102.32  3103.81  3115.32  3115.85  3117.32

   temp. (K)  partition function   enthalpy   heat capacity  entropy
                                   cal/mol     cal/K/mol   cal/K/mol   J/K/mol
 298.15  VIB  0.688E+15            18747.777    122.367    115.855
         ROT  0.833E+08              888.752      2.981     39.223
         INT  0.573E+23            19636.529    125.348    155.079
         TR   0.123E+29             1481.254      4.968     44.756
         TOT                       21117.7830   130.3159   199.8343   836.1066

       T/K    H(0)-H(T)+PV         H(T)/Eh          T*S/Eh         G(T)/Eh
   ------------------------------------------------------------------------
    298.15    0.336533E-01    0.575728E+00    0.949477E-01    0.480780E+00
   ------------------------------------------------------------------------

         :::::::::::::::::::::::::::::::::::::::::::::::::::::
         ::                  THERMODYNAMIC                  ::
         :::::::::::::::::::::::::::::::::::::::::::::::::::::
         :: total free energy        -106.197524341544 Eh   ::
         ::.................................................::
         :: total energy             -106.678304158527 Eh   ::
         :: zero point energy           0.542074199233 Eh   ::
         :: G(RRHO) w/o ZPVE           -0.061294382249 Eh   ::
         :: G(RRHO) contrib.            0.480779816984 Eh   ::
         :::::::::::::::::::::::::::::::::::::::::::::::::::::

           -------------------------------------------------
          | TOTAL ENERGY             -106.678304158527 Eh   |
          | TOTAL ENTHALPY           -106.102576629887 Eh   |
          | TOTAL FREE ENERGY        -106.197524341544 Eh   |
          | GRADIENT NORM               0.000063464538 Eh/α |
          | HOMO-LUMO GAP               2.655584907851 eV   |
           -------------------------------------------------

 * finished run on 2025/09/04 at 21:45:26.423
