   * xtb version 6.7.1 (edcfbbe) compiled by 'albert@albert-system' on 2024-07-22

   ID    Z sym.   atoms
    1    6 C      1-7, 9-43
    2    7 N      8
    3    1 H      44-70

          program call               : xtb data2507/gas/D5/D5_gas_S0_finalOpt.xtbopt.xyz --gfn 2 --spinpol --tblite --uhf 2 --ohess vtight --parallel 40 --molden --ceasefiles --namespace data2507/gas/D5/D5_gas_T1_preOpt
 * total energy  :  -106.5698134 Eh     change       -0.4418675E-07 Eh
 * total energy  :  -106.5751060 Eh     change       -0.5292585E-02 Eh
 * total energy  :  -106.5772826 Eh     change       -0.2176552E-02 Eh
 * total energy  :  -106.5788663 Eh     change       -0.1583710E-02 Eh
 * total energy  :  -106.5791539 Eh     change       -0.2875807E-03 Eh
 * total energy  :  -106.5795579 Eh     change       -0.4040686E-03 Eh
 * total energy  :  -106.5797065 Eh     change       -0.1485258E-03 Eh
 * total energy  :  -106.5799006 Eh     change       -0.1940980E-03 Eh
 * total energy  :  -106.5800221 Eh     change       -0.1215522E-03 Eh
 * total energy  :  -106.5801020 Eh     change       -0.7993144E-04 Eh
 * total energy  :  -106.5813883 Eh     change       -0.2693681E-06 Eh
 * total energy  :  -106.5813885 Eh     change       -0.2532609E-06 Eh
 * total energy  :  -106.5813888 Eh     change       -0.2241205E-06 Eh
 * total energy  :  -106.5813897 Eh     change       -0.9535781E-06 Eh
 * total energy  :  -106.5813901 Eh     change       -0.3477715E-06 Eh
 * total energy  :  -106.5813904 Eh     change       -0.3210475E-06 Eh
 * total energy  :  -106.5813907 Eh     change       -0.3575102E-06 Eh
 * total energy  :  -106.5813907 Eh     change        0.2879688E-07 Eh
 * total energy  :  -106.5813907 Eh     change       -0.2624517E-07 Eh
   *** GEOMETRY OPTIMIZATION CONVERGED AFTER 95 ITERATIONS ***

 final structure:
================
70
 xtb: 6.7.1 (edcfbbe)
C            0.56090094221167        4.81498769720416       -0.63735960212363
C           -0.61623113995641        4.08236164811672       -0.53457656630077
C           -0.55085079918343        2.69535059545706       -0.32261181631482
C           -1.78593800109014        1.91012830231777       -0.19607156299366
C           -2.87331864306712        2.15652715466517       -1.03333827866982
C           -4.03130805727947        1.41369317726297       -0.93074963084837
C           -4.13664362359757        0.41209106945378        0.03104187120931
N           -5.31419633144498       -0.33842317547003        0.14428812917626
C           -6.59344514630113        0.17375459958499        0.22482344816836
C           -7.01595736483239        1.49514684231071        0.26646526998579
C           -8.37236364252691        1.73548208972413        0.37515293186528
C           -9.29237105205898        0.69227874455843        0.45088912918429
C           -8.87598388569405       -0.62461330947354        0.43605355688815
C           -7.51824207948780       -0.89132600910544        0.32701320166824
C           -6.74794219269779       -2.10380057876480        0.30146680500024
C           -7.08382273045455       -3.44967889971944        0.34959758252120
C           -6.07183444183641       -4.38698473889987        0.27798577003518
C           -4.74156570020739       -3.99622454216904        0.14376898928998
C           -4.38250370840603       -2.66280265287385        0.09342291336541
C           -5.39249695264237       -1.71584615644567        0.19062480590193
C           -3.06031134136348        0.16468237900545        0.87947281789298
C           -1.89963427815829        0.90074042778070        0.75904966407671
C            0.67934447848816        2.08030001840987       -0.23291044835353
C            1.89642350008718        2.79836403944273       -0.34508009037720
C            3.15557150715000        2.14699594887791       -0.26186796499447
C            4.37590492689941        2.85944301641373       -0.01709185469717
C            5.54817298054745        2.21553583088865        0.15834282412112
C            5.65906442127025        0.77915896770924        0.09214101369352
C            6.80012594347106        0.07986579593818        0.49482197043661
C            7.93257523279234        0.73570296642939        1.06789349592029
C            8.99773345640701        0.03782394256224        1.55422266325943
C            9.00139857054517       -1.36182700242485        1.50722601761491
C            7.93764368410739       -2.02977754106739        0.92783501918386
C            6.84534795813694       -1.35769689907423        0.39265430974321
C            5.76915425165043       -2.05268022090849       -0.28850862424797
C            5.86634404306099       -3.40883280178912       -0.62082403883587
C            4.85454540170979       -4.06721814318672       -1.29292346301239
C            3.72034701347841       -3.37449829817007       -1.67387170693537
C            3.60876195650855       -2.02884857991135       -1.37113958555415
C            4.60390309860535       -1.35101114185244       -0.66740392271484
C            4.47953318150107        0.06790179119569       -0.35380970995708
C            3.29120860071350        0.73460108479130       -0.45562876977685
C            1.78548606002282        4.20403651358515       -0.54332186921796
H            0.50743294755878        5.88246534130847       -0.79842091920040
H           -1.57366050782492        4.57678214765837       -0.58784511605113
H           -2.79657602641244        2.91882075727335       -1.79453163848929
H           -4.85477677468898        1.59091546923099       -1.60653536997717
H           -6.30947076767861        2.31043221859113        0.22782262926317
H           -8.72665472053160        2.75526816627387        0.40586635624291
H          -10.34444561414212        0.92146829681215        0.53199760051614
H           -9.58763868286762       -1.43282834985215        0.51172770995137
H           -8.11625114477610       -3.75277760135841        0.43676231689555
H           -6.31139681882720       -5.43916724027208        0.31653249778965
H           -3.97352222482648       -4.75228665362752        0.07382423717677
H           -3.35063923585080       -2.37060228927912       -0.02952066719787
H           -3.14882565117105       -0.59288390741729        1.64398066074102
H           -1.07830358402370        0.71250105341277        1.43475311807112
H            0.70707361552221        1.01659782465205       -0.05531116342786
H            4.35236816941556        3.93421452634493        0.07016438119493
H            6.43430975792537        2.79728110039864        0.35498311036740
H            7.94004911322951        1.81096785941614        1.13840257253108
H            9.83703011983384        0.56022213137679        1.99004435921538
H            9.83149219070748       -1.91625644644176        1.91745054104265
H            7.96995942416321       -3.10783783244293        0.90937870195968
H            6.75383647587160       -3.96561635269656       -0.36679018932814
H            4.96011966982453       -5.11559610259459       -1.53045258184479
H            2.92956421583402       -3.87268368021710       -2.21500101158749
H            2.73268651179721       -1.49988443177964       -1.71222646768431
H            2.40744643871494        0.18870285388789       -0.74004377132298
H            2.67585664171066        4.79985075875037       -0.66231665335240

 projected vibrational frequencies (cm⁻¹)
eigval :       -0.00     0.00     0.00     0.00     0.00     0.00
eigval :        9.51    10.77    12.69    28.41    34.16    45.66
eigval :       53.46    60.16    75.27    84.63    89.61    98.93
eigval :      106.40   121.25   135.58   147.08   162.21   183.97
eigval :      206.70   230.00   236.82   242.11   251.52   271.43
eigval :      274.70   289.36   296.49   344.95   360.20   375.66
eigval :      381.05   384.06   389.52   392.63   395.93   403.81
eigval :      406.81   414.56   425.29   439.37   453.06   459.29
eigval :      472.48   499.29   508.83   517.94   535.03   540.08
eigval :      543.82   551.71   565.92   575.54   580.14   584.25
eigval :      593.63   596.62   599.86   618.95   635.54   647.26
eigval :      657.81   666.56   674.22   684.65   693.10   702.82
eigval :      710.37   722.98   735.45   751.66   754.84   758.60
eigval :      761.45   767.49   769.37   776.55   780.00   811.00
eigval :      819.35   828.88   837.46   843.99   850.94   854.49
eigval :      866.30   872.96   880.05   883.56   889.32   898.08
eigval :      899.52   902.59   903.00   909.14   912.92   917.67
eigval :      919.40   920.70   926.91   927.73   934.22   940.32
eigval :      951.11   983.66   987.99  1011.96  1012.57  1033.98
eigval :     1069.92  1073.40  1079.31  1083.85  1111.12  1117.81
eigval :     1121.54  1126.20  1136.51  1143.45  1150.92  1159.47
eigval :     1174.59  1176.39  1179.14  1180.82  1183.22  1189.89
eigval :     1198.18  1203.69  1233.73  1235.55  1242.13  1242.90
eigval :     1246.88  1252.58  1266.26  1271.73  1273.60  1284.78
eigval :     1299.06  1299.65  1311.74  1316.70  1326.96  1336.30
eigval :     1343.08  1355.16  1357.01  1358.01  1360.78  1365.52
eigval :     1372.70  1376.53  1396.40  1409.54  1410.71  1424.11
eigval :     1431.39  1434.22  1450.58  1465.99  1472.41  1484.49
eigval :     1487.49  1491.28  1501.71  1507.95  1534.65  1552.85
eigval :     1556.49  1562.38  1567.92  1572.62  1586.77  1587.37
eigval :     1593.51  1601.60  1613.06  3070.45  3074.48  3074.86
eigval :     3077.79  3078.14  3080.36  3082.00  3082.92  3083.97
eigval :     3084.31  3086.98  3088.76  3089.91  3091.66  3092.24
eigval :     3093.48  3094.51  3095.57  3096.33  3096.93  3097.66
eigval :     3098.05  3100.63  3108.14  3109.07  3113.31  3115.79

   temp. (K)  partition function   enthalpy   heat capacity  entropy
                                   cal/mol     cal/K/mol   cal/K/mol   J/K/mol
 298.15  VIB  0.455E+15            19103.602    125.227    117.760
         ROT  0.824E+08              888.752      2.981     39.203
         INT  0.375E+23            19992.355    128.208    156.963
         TR   0.123E+29             1481.254      4.968     44.756
         TOT                       21473.6085   133.1763   201.7188   843.9915

       T/K    H(0)-H(T)+PV         H(T)/Eh          T*S/Eh         G(T)/Eh
   ------------------------------------------------------------------------
    298.15    0.342204E-01    0.571404E+00    0.958431E-01    0.475561E+00
   ------------------------------------------------------------------------

         :::::::::::::::::::::::::::::::::::::::::::::::::::::
         ::                  THERMODYNAMIC                  ::
         :::::::::::::::::::::::::::::::::::::::::::::::::::::
         :: total free energy        -106.105830177359 Eh   ::
         ::.................................................::
         :: total energy             -106.581390740633 Eh   ::
         :: zero point energy           0.537183302730 Eh   ::
         :: G(RRHO) w/o ZPVE           -0.061622739456 Eh   ::
         :: G(RRHO) contrib.            0.475560563273 Eh   ::
         :::::::::::::::::::::::::::::::::::::::::::::::::::::

           -------------------------------------------------
          | TOTAL ENERGY             -106.581390740633 Eh   |
          | TOTAL ENTHALPY           -106.009987064513 Eh   |
          | TOTAL FREE ENERGY        -106.105830177359 Eh   |
          | GRADIENT NORM               0.000045303240 Eh/α |
           -------------------------------------------------

 * finished run on 2025/09/04 at 21:45:38.773
