   * xtb version 6.7.1 (edcfbbe) compiled by 'albert@albert-system' on 2024-07-22

   ID    Z sym.   atoms
    1    6 C      1-20, 22, 23, 25-38, 40-52, 54-75
    2    7 N      21, 24, 39, 53, 76
    3    1 H      77-141

          program call               : xtb data2507/gas/2Cz2tCzBn/2Cz2tCzBn_gas_S0_finalOpt.xtbopt.xyz --gfn 2 --spinpol --tblite --uhf 2 --ohess vtight --parallel 40 --molden --ceasefiles --namespace data2507/gas/2Cz2tCzBn/2Cz2tCzBn_gas_T1_preOpt
 * total energy  :  -199.9228090 Eh     change       -0.2295539E-07 Eh
 * total energy  :  -199.9258607 Eh     change       -0.3051701E-02 Eh
 * total energy  :  -199.9276484 Eh     change       -0.1787734E-02 Eh
 * total energy  :  -199.9278071 Eh     change       -0.1586827E-03 Eh
 * total energy  :  -199.9279251 Eh     change       -0.1179656E-03 Eh
 * total energy  :  -199.9279530 Eh     change       -0.2795844E-04 Eh
 * total energy  :  -199.9279878 Eh     change       -0.3474156E-04 Eh
 * total energy  :  -199.9279967 Eh     change       -0.8962875E-05 Eh
 * total energy  :  -199.9280029 Eh     change       -0.6203443E-05 Eh
 * total energy  :  -199.9280070 Eh     change       -0.4083543E-05 Eh
 * total energy  :  -199.9280497 Eh     change       -0.1981315E-06 Eh
 * total energy  :  -199.9280502 Eh     change       -0.4471649E-06 Eh
 * total energy  :  -199.9280514 Eh     change       -0.1219831E-05 Eh
 * total energy  :  -199.9280518 Eh     change       -0.4084333E-06 Eh
 * total energy  :  -199.9280521 Eh     change       -0.3206538E-06 Eh
 * total energy  :  -199.9280524 Eh     change       -0.2511684E-06 Eh
 * total energy  :  -199.9280526 Eh     change       -0.2236460E-06 Eh
 * total energy  :  -199.9280527 Eh     change       -0.1708362E-06 Eh
 * total energy  :  -199.9280528 Eh     change       -0.1583174E-07 Eh
   *** GEOMETRY OPTIMIZATION CONVERGED AFTER 44 ITERATIONS ***

 final structure:
================
141
 xtb: 6.7.1 (edcfbbe)
C            4.28723918007205        6.63466565767763        0.37891134891335
C            5.13445136263454        5.44742025728602       -0.08637600353820
C            6.27739753474672        5.25102156068457        0.92058331134363
C            5.71045135567270        5.78823732152852       -1.46840173410340
C            4.33953967357478        4.15514327642244       -0.18744816444749
C            2.98580612202637        4.07811834347965        0.14855450476272
C            2.26342601687550        2.90263291881187        0.05984417367600
C            2.91088593612664        1.76608445448161       -0.39484304087212
C            4.28429345084918        1.81417029712410       -0.72852304227486
C            4.98533312870410        2.99953396186652       -0.62188158746985
C            4.66029043243760        0.47655469974434       -1.10564021893337
C            5.85656258927716       -0.10821074764061       -1.48467837937440
C            5.89489223165398       -1.46465158789264       -1.78533750963915
C            7.18504092708506       -2.18934551362944       -2.13213526835349
C            7.42712740291534       -3.27498330998368       -1.07334191929093
C            7.06076930933552       -2.83102285058001       -3.52112428412356
C            8.40010968545431       -1.25785015215470       -2.14669124595535
C            4.69860876441837       -2.19340950387518       -1.76107340122099
C            3.49408828411860       -1.63446427036695       -1.38953848652911
C            3.48885363775703       -0.30297362716554       -1.00218729188728
N            2.44808534081797        0.47414196228746       -0.54062526186206
C            1.23915361492701       -0.03356813494986       -0.05813526000286
C            1.21900090377062       -1.10159486782299        0.82220685671743
N            2.41968495927323       -1.60577905392871        1.34813945425971
C            3.44822877286544       -0.83682450222361        1.85402523715201
C            3.43658090579994        0.49416786010629        2.24507267234743
C            4.61872790269869        1.04105785933229        2.70489020675311
C            5.77914580565631        0.27811350224431        2.80342314606966
C            5.77773823909736       -1.06597743213940        2.48125782203142
C            4.60340790100581       -1.63556158708528        2.01257990386184
C            4.23473984973680       -2.96361354792021        1.60780452725829
C            4.92316647579998       -4.16528541036963        1.53456568547219
C            4.25939571129062       -5.28210318780245        1.06351433802753
C            2.92765718114434       -5.20857188748443        0.66296244078493
C            2.22212751518745       -4.02243055923165        0.72698528228763
C            2.87877181274387       -2.89995370037491        1.20961458414834
C            0.00011116357233       -1.67624023598662        1.23966400679541
C           -1.21999947206696       -1.12299883556299        0.79352539538412
N           -2.42277946593518       -1.66945719507902        1.27160695836165
C           -2.85026326505763       -2.96272181526553        1.05016292395997
C           -2.15567511870790       -4.04120668591677        0.52277358306820
C           -2.83240043738512       -5.23628302446478        0.37268770384543
C           -4.17236000884305       -5.35968448942425        0.73169250183828
C           -4.87352855054180       -4.28560332724506        1.24616881418709
C           -4.21438400932796       -3.07589644534880        1.40650603917564
C           -4.62215029246960       -1.77921330326678        1.87138714040877
C           -5.82053103490504       -1.25907418472597        2.33631538497238
C           -5.85990860043248        0.06618211128710        2.72697771448393
C           -4.71464008381127        0.85737779912830        2.69906674725158
C           -3.50882681497567        0.35985978222544        2.24467414592872
C           -3.48088729448934       -0.94925031322364        1.78655976702713
C           -1.23756302193795       -0.04144341865490       -0.06747457676270
N           -2.44508473793216        0.48644974712891       -0.53479335070360
C           -2.90307245681636        1.76857263151469       -0.31043406658967
C           -2.24753146214849        2.87155807278060        0.20989238338854
C           -2.96821379989514        4.03746500963583        0.39066091693114
C           -4.32704818502931        4.13544323689804        0.08185842941042
C           -5.12436287121532        5.41141926432969        0.30250327086334
C           -5.73346744207650        5.86007836926405       -1.03353233847456
C           -6.24291272361879        5.12672497883576        1.31596725978691
C           -4.27212625662474        6.56212252267410        0.84435506954186
C           -4.97744930127253        3.01489719968024       -0.43067743217216
C           -4.27847149096219        1.84002557899860       -0.62939574691247
C           -4.65931598534968        0.52872312071204       -1.08640129425218
C           -5.85844852974872       -0.02820198417804       -1.49644846479450
C           -5.90263475232999       -1.36456825408088       -1.87581445718330
C           -7.19533905963900       -2.05988152227734       -2.27012228257981
C           -7.07147735162753       -2.60507958665375       -3.69982575515470
C           -8.40714442665766       -1.12525039513176       -2.22167681761689
C           -7.44280187127500       -3.21448343597941       -1.28846103346430
C           -4.71025682597662       -2.09995643806356       -1.89156570756609
C           -3.50274092781737       -1.56904382471039       -1.48993770269490
C           -3.49045743458858       -0.26014561292455       -1.03215328798997
C            0.00016899403753        0.53847699477200       -0.53580823843282
C           -0.00587238245284        1.45946771255917       -1.55941726629906
N           -0.01679848218868        2.28086363478812       -2.38240002395615
H            4.90769385000272        7.52786522196733        0.41796334283886
H            3.88402714788589        6.46427714039426        1.37454129081713
H            3.46887718127629        6.82432344357963       -0.31144296516937
H            5.87598977809265        4.99751395618545        1.89969722466837
H            6.85735015034456        6.16697932102303        1.01208832794188
H            6.94654493471870        4.45316777528900        0.61089050354752
H            4.90594570294786        5.89449119158088       -2.19282047126223
H            6.38516826730943        5.01339753252810       -1.82100780225758
H            6.26206899033533        6.72499491763741       -1.42352792619461
H            2.46628552550798        4.95607665454371        0.49382241844852
H            1.22061382376330        2.88374730249257        0.33354620800934
H            6.03392498757593        3.01141036532363       -0.87548535857241
H            6.74114527152971        0.50417784684520       -1.53316475132348
H            7.51291252624445       -2.81938495394168       -0.08912343523083
H            6.60921079956223       -3.98961515662722       -1.04421615609212
H            8.34790233888957       -3.81275298221384       -1.28989416201439
H            6.26737590583831       -3.57220623698474       -3.54848739109646
H            7.99336220359639       -3.32271218334825       -3.78991740485278
H            6.84343323588286       -2.07038772702838       -4.26803361559325
H            8.55219016244709       -0.79798594684529       -1.17295622014982
H            9.29266969931381       -1.83077180802554       -2.39023189153072
H            8.28662556915538       -0.47879986657909       -2.89703191235583
H            4.70484600845461       -3.23688663782045       -2.03477607737044
H            2.58599926929482       -2.21769240815714       -1.40517430226436
H            2.53338693514686        1.08325622252079        2.19908021616716
H            4.64032659213547        2.08116616901614        2.99362212517688
H            6.68705142624639        0.74311576661868        3.15759064735576
H            6.66945051418129       -1.66410209096375        2.59447175397984
H            5.95746868274902       -4.22289933747120        1.83778460213465
H            4.77836390983135       -6.22703818354612        0.99966704397715
H            2.43679816794803       -6.09652492759221        0.29262999587090
H            1.19417866187436       -3.97052275348724        0.40324057985345
H           -0.00357964714623       -2.43513473662632        2.00239222486415
H           -1.12168190360450       -3.94655806983901        0.22863596256016
H           -2.31284202314540       -6.09123488679578       -0.03436243488101
H           -4.66834902528914       -6.30989009723162        0.59965953243853
H           -5.91435067304084       -4.38187722702414        1.51537869712273
H           -6.70152930373104       -1.88056265235164        2.39432623601823
H           -6.78685311544487        0.49312702120106        3.07979666575906
H           -4.76725960801591        1.88060437635429        3.03941445954771
H           -2.61808702207848        0.96930239845988        2.25182792718942
H           -1.20154334900579        2.83099118722438        0.46983156290979
H           -2.44449202746889        4.88936983535975        0.79066850906910
H           -6.28764086587284        6.78681433577251       -0.89981898547999
H           -4.94644936170948        6.02974671090153       -1.76504159067143
H           -6.41319587365287        5.11268281801305       -1.43259107851051
H           -6.82628707268987        6.02782158568539        1.49317130789389
H           -5.81752342306225        4.79972341352611        2.26267757142617
H           -6.91381206718545        4.35040249786635        0.95891592101135
H           -4.89527694352340        7.44558538536695        0.96870807983245
H           -3.46945106390595        6.81185264150697        0.15467385668400
H           -3.84708322158705        6.31427013482397        1.81432270955211
H           -6.02914589022620        3.04445207138670       -0.66951382881514
H           -6.74047383311744        0.58964479946815       -1.50805137847686
H           -6.85374768068476       -1.79507608361143       -4.39277989285003
H           -6.27795881837558       -3.34257047857570       -3.77771857088442
H           -8.00420232098604       -3.07685062037579       -4.00183915799528
H           -8.29206039986279       -0.29902102504355       -2.91944707155767
H           -8.55613421829901       -0.72976871724320       -1.21957459345494
H           -9.30203379269268       -1.67784097846159       -2.50104293734983
H           -8.36664309634931       -3.73096258442061       -1.54087716210682
H           -7.52578151155288       -2.82712003563715       -0.27522529499082
H           -6.62913877924667       -3.93416433438105       -1.30943834703275
H           -4.72201245760870       -3.12646607244016       -2.22322013146107
H           -2.59787028564189       -2.15570346681757       -1.53560225736299

 projected vibrational frequencies (cm⁻¹)
eigval :       -0.00    -0.00    -0.00     0.00     0.00     0.00
eigval :        9.57    10.28    14.56    16.68    22.27    26.96
eigval :       30.10    30.78    31.33    33.70    34.70    37.49
eigval :       42.78    48.92    50.19    56.05    62.59    68.38
eigval :       74.85    77.07    82.15    84.46    86.56    97.42
eigval :      108.03   110.95   115.53   118.49   121.47   129.73
eigval :      135.14   138.44   151.88   152.47   164.73   166.11
eigval :      173.01   173.48   180.94   183.38   191.15   192.28
eigval :      198.32   210.67   212.57   215.50   215.56   218.60
eigval :      221.32   226.26   228.10   240.08   242.20   246.80
eigval :      266.57   268.34   273.22   276.66   282.79   284.73
eigval :      291.09   300.78   302.39   305.95   319.05   319.93
eigval :      322.29   326.21   326.65   329.21   338.29   341.06
eigval :      344.18   348.78   354.92   355.05   376.01   378.61
eigval :      380.13   389.71   392.93   398.10   400.58   403.51
eigval :      404.34   406.71   407.26   415.09   426.60   426.98
eigval :      436.14   438.09   443.08   443.73   446.45   447.14
eigval :      454.72   456.16   464.16   465.22   466.37   467.07
eigval :      485.52   503.09   509.83   514.81   518.41   518.81
eigval :      522.32   532.22   539.34   539.73   540.43   548.69
eigval :      548.94   567.13   578.76   584.25   584.81   586.37
eigval :      590.23   590.69   598.99   609.16   622.90   633.61
eigval :      636.18   640.00   640.62   646.93   656.02   671.33
eigval :      672.84   678.36   685.96   688.30   692.62   705.03
eigval :      705.27   707.36   707.73   714.00   717.01   719.44
eigval :      733.52   752.78   755.87   765.56   766.39   769.53
eigval :      777.79   779.67   804.44   812.46   826.11   826.37
eigval :      827.93   832.23   832.56   861.98   867.70   867.93
eigval :      869.97   870.45   871.79   871.95   872.20   875.23
eigval :      875.69   890.11   891.70   894.89   897.37   899.90
eigval :      901.45   902.48   903.63   904.12   913.72   916.62
eigval :      917.44   918.81   920.36   920.83   921.18   922.91
eigval :      927.13   933.73   937.72   959.47   959.54   960.10
eigval :      960.13   961.95   962.07   962.14   962.21   962.30
eigval :      962.47   965.18   965.27   997.20  1008.56  1013.41
eigval :     1025.91  1031.45  1032.94  1033.63  1033.77  1034.94
eigval :     1034.98  1034.98  1035.06  1039.49  1040.33  1064.69
eigval :     1067.89  1068.40  1071.61  1073.68  1108.32  1118.17
eigval :     1126.80  1127.69  1132.75  1134.97  1140.68  1143.48
eigval :     1147.50  1160.47  1162.84  1164.01  1174.15  1176.32
eigval :     1178.62  1179.41  1198.80  1201.32  1208.62  1222.01
eigval :     1224.59  1225.30  1225.49  1226.13  1226.37  1227.34
eigval :     1228.01  1230.29  1231.22  1231.27  1231.84  1234.04
eigval :     1238.80  1242.84  1252.64  1253.10  1254.61  1278.65
eigval :     1279.59  1287.09  1288.68  1289.29  1291.66  1294.00
eigval :     1295.31  1296.95  1299.37  1316.03  1322.13  1337.06
eigval :     1338.59  1347.04  1353.58  1355.21  1356.26  1357.06
eigval :     1361.57  1362.41  1364.84  1372.38  1385.13  1400.31
eigval :     1400.60  1402.41  1402.44  1403.49  1403.66  1404.11
eigval :     1404.21  1410.18  1411.08  1418.97  1420.94  1421.45
eigval :     1425.39  1425.59  1425.90  1425.95  1429.64  1432.94
eigval :     1435.80  1458.30  1458.85  1466.33  1468.73  1472.34
eigval :     1474.68  1477.91  1481.98  1486.74  1487.48  1488.13
eigval :     1488.15  1489.06  1489.11  1491.71  1491.75  1492.12
eigval :     1492.15  1498.43  1498.46  1498.64  1498.74  1501.49
eigval :     1501.61  1502.37  1502.44  1512.44  1512.45  1512.59
eigval :     1512.69  1517.31  1517.50  1517.81  1517.88  1561.54
eigval :     1562.26  1571.34  1571.53  1573.54  1575.26  1577.46
eigval :     1578.44  1585.44  1586.43  1590.46  1590.79  1598.82
eigval :     1600.95  1605.44  1607.45  2206.90  3021.16  3021.25
eigval :     3021.27  3021.36  3022.54  3022.63  3022.98  3023.16
eigval :     3026.25  3026.62  3027.29  3027.31  3029.10  3029.25
eigval :     3029.52  3029.92  3031.26  3031.28  3032.54  3032.71
eigval :     3035.32  3035.41  3035.48  3035.57  3036.68  3036.82
eigval :     3038.77  3039.06  3046.17  3046.19  3046.48  3046.67
eigval :     3050.14  3050.34  3051.05  3051.15  3076.13  3076.61
eigval :     3077.71  3077.83  3082.48  3083.03  3083.51  3084.18
eigval :     3084.65  3084.89  3089.15  3089.46  3091.04  3091.94
eigval :     3092.23  3092.76  3094.73  3095.30  3096.56  3097.30
eigval :     3097.99  3098.14  3098.64  3098.92  3118.97  3119.20
eigval :     3122.79  3123.85  3124.93

   temp. (K)  partition function   enthalpy   heat capacity  entropy
                                   cal/mol     cal/K/mol   cal/K/mol   J/K/mol
 298.15  VIB  0.410E+32            41664.353    257.771    257.748
         ROT  0.227E+09              888.752      2.981     41.220
         INT  0.932E+40            42553.106    260.752    298.968
         TR   0.301E+29             1481.254      4.968     46.525
         TOT                       44034.3597   265.7197   345.4932  1445.5437

       T/K    H(0)-H(T)+PV         H(T)/Eh          T*S/Eh         G(T)/Eh
   ------------------------------------------------------------------------
    298.15    0.701732E-01    0.121330E+01    0.164155E+00    0.104914E+01
   ------------------------------------------------------------------------

         :::::::::::::::::::::::::::::::::::::::::::::::::::::
         ::                  THERMODYNAMIC                  ::
         :::::::::::::::::::::::::::::::::::::::::::::::::::::
         :: total free energy        -198.878909581296 Eh   ::
         ::.................................................::
         :: total energy             -199.928052749201 Eh   ::
         :: zero point energy           1.143124935219 Eh   ::
         :: G(RRHO) w/o ZPVE           -0.093981767314 Eh   ::
         :: G(RRHO) contrib.            1.049143167905 Eh   ::
         :::::::::::::::::::::::::::::::::::::::::::::::::::::

           -------------------------------------------------
          | TOTAL ENERGY             -199.928052749201 Eh   |
          | TOTAL ENTHALPY           -198.714754595057 Eh   |
          | TOTAL FREE ENERGY        -198.878909581296 Eh   |
          | GRADIENT NORM               0.000100754577 Eh/α |
           -------------------------------------------------

 * finished run on 2025/09/07 at 16:41:03.174
