   * xtb version 6.7.1 (edcfbbe) compiled by 'albert@albert-system' on 2024-07-22

   ID    Z sym.   atoms
    1    6 C      1-20, 22, 23, 25-38, 40-52, 54-75
    2    7 N      21, 24, 39, 53, 76
    3    1 H      77-141

          program call               : xtb data2507/gas/2Cz2tCzBn/2Cz2tCzBn_gas_T1_crest.xyz --gfn 2 --spinpol --tblite --uhf 2 --ohess vtight --parallel 40 --molden --ceasefiles --namespace data2507/gas/2Cz2tCzBn/2Cz2tCzBn_gas_T1_finalOpt
 * total energy  :  -199.9281134 Eh     change       -0.2966851E-07 Eh
 * total energy  :  -199.9282085 Eh     change       -0.9510100E-04 Eh
 * total energy  :  -199.9282689 Eh     change       -0.6032307E-04 Eh
 * total energy  :  -199.9282782 Eh     change       -0.9354938E-05 Eh
 * total energy  :  -199.9282921 Eh     change       -0.1389169E-04 Eh
 * total energy  :  -199.9282969 Eh     change       -0.4782738E-05 Eh
 * total energy  :  -199.9283000 Eh     change       -0.3120218E-05 Eh
 * total energy  :  -199.9283021 Eh     change       -0.2130055E-05 Eh
 * total energy  :  -199.9283043 Eh     change       -0.2183635E-05 Eh
 * total energy  :  -199.9283065 Eh     change       -0.2230414E-05 Eh
 * total energy  :  -199.9283276 Eh     change       -0.4200036E-06 Eh
 * total energy  :  -199.9283280 Eh     change       -0.4141377E-06 Eh
 * total energy  :  -199.9283283 Eh     change       -0.3289011E-06 Eh
 * total energy  :  -199.9283287 Eh     change       -0.3655263E-06 Eh
 * total energy  :  -199.9283292 Eh     change       -0.5243143E-06 Eh
 * total energy  :  -199.9283298 Eh     change       -0.5218068E-06 Eh
 * total energy  :  -199.9283305 Eh     change       -0.7478454E-06 Eh
 * total energy  :  -199.9283306 Eh     change       -0.1318433E-06 Eh
 * total energy  :  -199.9283307 Eh     change       -0.7259004E-07 Eh
   *** GEOMETRY OPTIMIZATION CONVERGED AFTER 44 ITERATIONS ***

 final structure:
================
141
 xtb: 6.7.1 (edcfbbe)
C            6.59955439010872        5.34545138373690       -0.29797567700089
C            5.13109076361463        5.42163538323531        0.12883639039730
C            4.44731202902557        6.51085710370698       -0.70972108015300
C            5.08626494686834        5.80267591658168        1.61601059995902
C            4.39515580612717        4.10581477899383       -0.06698816889038
C            3.03741206786107        4.03352626452910        0.27176165506864
C            2.29435673055811        2.87928034785224        0.13948188823463
C            2.92639999129463        1.75173329569124       -0.36228993445301
C            4.29588464659434        1.79559440496563       -0.70586469663316
C            5.02039072308217        2.96602879649495       -0.55691215970190
C            4.65178515105035        0.46785167946354       -1.13347443227008
C            5.83624533144309       -0.11635531580299       -1.54924693825480
C            5.85537471260986       -1.46222642075788       -1.89583917164546
C            7.13169123168393       -2.18617397922840       -2.29219544319413
C            7.38185565425867       -3.31321387060382       -1.27961743378712
C            6.97544467001949       -2.77364038725693       -3.70182967456850
C            8.35588058887048       -1.26657512684487       -2.29448445261489
C            4.65290753148513       -2.18054861941565       -1.87393303523109
C            3.45970827354396       -1.62222597910742       -1.46612075143266
C            3.47356853546100       -0.30283209298372       -1.04029997398006
N            2.44686646325526        0.47159166678705       -0.54487258973090
C            1.23745639029706       -0.03208991040698       -0.05727855826896
C            1.21776298016199       -1.10438140183681        0.81663278111375
N            2.42089798107749       -1.63759349904920        1.30756208588013
C            3.47420948753792       -0.89925042471448        1.80728145425707
C            3.49333775006915        0.42016850152691        2.23513967449671
C            4.69466976747565        0.93498448084828        2.68220092919534
C            5.84438236727220        0.15129327356039        2.73108177994774
C            5.81395000247878       -1.18264779367083        2.37013742733572
C            4.61978641664127       -1.72036143521734        1.91434338867445
C            4.21981447355914       -3.03029146865102        1.48092499685660
C            4.88617996187642       -4.23980238406883        1.35260159310456
C            4.19205366638296       -5.33087435107328        0.86512154407956
C            2.85173566003361       -5.22458454520153        0.50205767878605
C            2.16780165205462       -4.03010148117266        0.62084501101153
C            2.85540818202228       -2.93387658901785        1.12017889167557
C           -0.00225206006645       -1.65688131360724        1.26226126499879
C           -1.21990927528960       -1.08981908009252        0.83076575179396
N           -2.42412500322454       -1.59990383164495        1.34278959478510
C           -2.87992960716144       -2.89301065683700        1.18635125945058
C           -2.21543979424736       -4.00973998197754        0.70123511234829
C           -2.91887789798013       -5.19565942978916        0.61485415732015
C           -4.25597361819296       -5.27424289287423        0.99629027179472
C           -4.92713331931773       -4.16315543959524        1.47044390402199
C           -4.24096794695265       -2.96175613901745        1.56604413061051
C           -4.61595371991284       -1.63807429470279        1.97943431369327
C           -5.79591548667836       -1.07417522873304        2.44072709314330
C           -5.80175482728329        0.26639476948110        2.77749116545425
C           -4.64123871623221        1.03157291900335        2.69932553576822
C           -3.45381436593263        0.49050500395286        2.24616153215243
C           -3.45986173679352       -0.83663444450253        1.84240974427552
C           -1.23722984948520       -0.02256469880985       -0.05035118539318
N           -2.44590904569971        0.47910903980316       -0.54056706018936
C           -2.92148889646655        1.76435360676765       -0.38550684071231
C           -2.28676699047770        2.90131477594915        0.09126266959779
C           -3.02524306496165        4.06165648142207        0.19197906197377
C           -4.38127793972826        4.13167494146935       -0.15407984689665
C           -5.11057716788109        5.45665231759352       -0.00011240278512
C           -4.41594155461715        6.51670406444733       -0.86675689576637
C           -6.57717655765145        5.37654730814549       -0.43263186588802
C           -5.07110410166277        5.88092429459591        1.47539564223385
C           -5.01047259860603        2.98195339866253       -0.61488331775012
C           -4.29055049272697        1.80517579492299       -0.73199742100299
C           -4.65084391642032        0.46963366445841       -1.13052825659272
C           -5.83691494412599       -0.11976795779447       -1.53446592330582
C           -5.85967001324783       -1.47236198673914       -1.85374643712052
C           -7.13793712472385       -2.20139859281111       -2.23414268595181
C           -7.39098496478623       -3.30488600498382       -1.19661089521137
C           -6.98349877440986       -2.82075880872086       -3.63026222199311
C           -8.35961313850416       -1.27876527680527       -2.25704885239407
C           -4.65888574586078       -2.19293474289573       -1.81834556424552
C           -3.46428513789210       -1.62943898987064       -1.42192372186105
C           -3.47485541049378       -0.30215235190300       -1.02133332537552
C            0.00128074225035        0.55170774392186       -0.52437876243940
C            0.00433585757388        1.47854723923997       -1.54289515220451
N            0.00904394597592        2.30378652253775       -2.36191259654316
H            7.07204564749927        6.31343364235911       -0.14320423609207
H            6.68710998363632        5.09419346413558       -1.35235730602625
H            7.14201469930624        4.60995193569245        0.29175623150776
H            4.45101645118763        6.23151968518515       -1.76101224373731
H            4.97695592654460        7.45495864226063       -0.60012084882314
H            3.41640248074290        6.66169586625682       -0.40314986868837
H            5.55645654532048        5.02642862065106        2.21654854864294
H            4.06479575647309        5.93051217581357        1.96294336523649
H            5.62070024533639        6.73612554176227        1.77944926679193
H            2.54081884496507        4.91019377455466        0.65774464843801
H            1.25247539126902        2.86223095173473        0.41761638298459
H            6.06481884462703        2.96467203927355       -0.81985154850658
H            6.72639340213833        0.48839878883294       -1.59082265839511
H            7.48833824935117       -2.89604515479683       -0.28049683787169
H            6.55833816511223       -4.02177738722179       -1.26359956727514
H            8.29402669194605       -3.84995280561212       -1.53216170442260
H            6.17169068253259       -3.50294102926857       -3.74310259154963
H            7.89669035789357       -3.26667545534651       -4.00510300856195
H            6.75565033095552       -1.98270211839658       -4.41582334406518
H            8.53015765863506       -0.84468625842080       -1.30738036577212
H            9.23790995322225       -1.83864598618386       -2.57551591416071
H            8.23703973055213       -0.45904616923937       -3.01318513372226
H            4.64461966210134       -3.21505581842110       -2.17978911273635
H            2.54586253027487       -2.19639240117804       -1.48376524621903
H            2.59906720843952        1.02434254717005        2.22641315687110
H            4.73922343676457        1.96581489370971        3.00025216365450
H            6.76794065949951        0.59104190331293        3.07708636979725
H            6.69852313529721       -1.79725738911675        2.44424549695081
H            5.92708335897596       -4.32306336739440        1.62574565456982
H            4.69377573107873       -6.28122366493155        0.75823046331611
H            2.33738754411122       -6.09284478133619        0.11717941310449
H            1.13321199861522       -3.95023105685272        0.32470128443694
H           -0.00179843774452       -2.41096107046945        2.02971746241962
H           -1.18325346034632       -3.95280504234995        0.39194927857877
H           -2.42237296469093       -6.07926278696523        0.24164847192448
H           -4.77331224433524       -6.21871922048304        0.91488663909373
H           -5.96547507584568       -4.22495395929001        1.75861407296169
H           -6.68847212352230       -1.67388502893358        2.53749217770484
H           -6.71396070805837        0.72630147976809        3.12735542525382
H           -4.66619417660847        2.06855724991954        2.99900220241539
H           -2.55077828845998        1.08077033219610        2.21522460725398
H           -1.24571319292750        2.88784618421411        0.37234307360264
H           -2.52586723011259        4.94563716018619        0.55705697157888
H           -4.94068339445788        7.46661343444945       -0.78814267522254
H           -3.38581603675937        6.67069705491736       -0.55916439658051
H           -4.41560253507084        6.20632295802571       -1.90931350960087
H           -7.04458744451313        6.35147826311252       -0.30924073716223
H           -7.12734689911186        4.66206485798479        0.17550260607563
H           -6.66049643770836        5.09474019939693       -1.47961688200308
H           -5.60076783604258        6.82188457020242        1.60848359764474
H           -4.05063823834792        6.01297773952504        1.82368783875824
H           -5.54895335153944        5.12535503638830        2.09592479765999
H           -6.05413746015637        2.97827354397103       -0.88082493291785
H           -6.72549835516544        0.48632533440283       -1.58832685611099
H           -6.56877785386230       -4.01441342547688       -1.16390656140202
H           -7.49738041369492       -2.86524432491459       -0.20716439303275
H           -8.30398243590442       -3.84546416295961       -1.43769821926588
H           -6.18242421485317       -3.55373230729335       -3.65507657491827
H           -6.76081823936133       -2.04678537706659       -4.36173697678206
H           -7.90644104051450       -3.31719854309175       -3.92260804181768
H           -9.24306836296954       -1.85444793109705       -2.52595532260025
H           -8.23822024995019       -0.48741230469865       -2.99311005093525
H           -8.53322418620195       -0.83500145711677       -1.27947398738633
H           -4.65309608008226       -3.23324079339629       -2.10386819471958
H           -2.55168316085069       -2.20579390803553       -1.42960068138026

 projected vibrational frequencies (cm⁻¹)
eigval :       -0.00    -0.00     0.00     0.00     0.00     0.00
eigval :        9.54     9.96    14.15    17.79    22.35    28.69
eigval :       29.40    29.46    32.03    34.67    35.14    37.68
eigval :       42.37    48.68    49.85    56.19    62.37    67.85
eigval :       76.11    77.62    81.89    83.83    87.73    96.70
eigval :      107.85   111.14   116.72   119.30   121.71   129.99
eigval :      135.12   140.25   152.96   153.75   164.66   165.61
eigval :      172.96   173.49   183.10   188.64   197.19   201.61
eigval :      203.76   210.00   212.03   217.11   217.42   220.21
eigval :      221.24   225.72   228.75   231.42   232.58   245.60
eigval :      258.26   261.82   273.00   275.16   277.95   282.41
eigval :      287.29   290.09   307.11   318.51   318.60   318.86
eigval :      322.76   323.13   331.43   333.99   339.19   341.11
eigval :      341.45   347.25   357.91   357.93   377.05   378.93
eigval :      380.14   389.89   392.50   398.05   400.36   403.60
eigval :      404.16   406.88   407.00   415.69   426.37   427.12
eigval :      436.37   438.07   441.62   442.01   446.81   447.15
eigval :      453.79   454.12   462.85   465.31   466.37   467.22
eigval :      485.53   503.40   510.16   515.10   518.51   518.86
eigval :      522.69   532.06   539.41   539.80   540.50   548.37
eigval :      549.10   567.13   578.76   584.43   585.38   586.17
eigval :      590.67   590.88   599.14   609.42   623.53   634.68
eigval :      636.89   640.43   640.98   647.08   655.96   671.25
eigval :      672.83   678.45   686.69   688.22   692.37   704.99
eigval :      705.09   707.43   707.70   713.74   717.01   720.24
eigval :      733.25   752.20   755.89   763.94   766.68   770.10
eigval :      778.43   780.25   810.06   817.28   826.65   826.80
eigval :      827.73   831.55   831.82   861.87   862.34   864.03
eigval :      868.43   868.63   870.85   871.43   872.21   875.83
eigval :      876.18   888.76   890.87   895.35   900.31   902.99
eigval :      903.89   904.54   905.39   909.00   909.53   917.09
eigval :      917.33   919.39   921.00   921.64   921.77   923.01
eigval :      927.51   934.63   935.66   960.10   960.13   960.41
eigval :      960.44   962.43   962.46   962.82   962.84   962.94
eigval :      962.97   965.51   965.53   997.33  1008.48  1013.33
eigval :     1025.70  1030.27  1031.92  1034.41  1034.47  1035.24
eigval :     1035.28  1035.86  1035.92  1041.26  1042.05  1064.97
eigval :     1068.14  1068.62  1071.84  1072.92  1107.73  1118.46
eigval :     1126.78  1127.90  1132.93  1135.13  1140.52  1143.98
eigval :     1148.03  1159.50  1161.53  1164.22  1174.96  1177.29
eigval :     1179.60  1180.32  1198.80  1201.27  1208.60  1225.50
eigval :     1225.90  1225.92  1226.43  1226.51  1228.13  1228.45
eigval :     1228.66  1230.51  1231.00  1231.31  1232.16  1234.11
eigval :     1234.48  1237.80  1253.26  1253.61  1255.55  1277.86
eigval :     1278.64  1287.68  1288.75  1290.44  1291.42  1294.42
eigval :     1295.58  1297.51  1299.44  1318.68  1323.06  1336.75
eigval :     1336.99  1348.59  1352.76  1353.11  1356.14  1356.51
eigval :     1361.75  1362.40  1365.02  1372.73  1385.48  1401.44
eigval :     1401.65  1403.54  1403.56  1404.86  1404.96  1405.07
eigval :     1405.12  1410.30  1410.96  1418.77  1421.03  1421.46
eigval :     1426.96  1427.02  1427.09  1427.14  1430.98  1432.99
eigval :     1437.28  1460.98  1461.58  1465.76  1468.67  1472.61
eigval :     1476.45  1479.70  1481.17  1486.70  1487.16  1489.30
eigval :     1489.33  1490.23  1490.27  1493.21  1493.37  1493.41
eigval :     1493.48  1499.46  1499.55  1499.66  1499.77  1502.82
eigval :     1502.87  1503.37  1503.44  1513.67  1513.68  1513.88
eigval :     1513.91  1518.58  1518.63  1519.31  1519.43  1560.33
eigval :     1560.70  1571.17  1571.36  1572.51  1573.54  1576.68
eigval :     1577.10  1585.17  1586.14  1590.26  1590.55  1596.48
eigval :     1597.62  1604.08  1606.51  2207.17  3021.60  3021.64
eigval :     3021.90  3021.91  3022.97  3023.02  3023.36  3023.39
eigval :     3026.24  3026.28  3027.71  3027.73  3029.70  3029.80
eigval :     3029.94  3030.41  3031.71  3031.73  3032.43  3032.44
eigval :     3035.75  3035.85  3036.06  3036.10  3037.56  3037.66
eigval :     3038.56  3038.72  3047.10  3047.10  3047.62  3047.70
eigval :     3051.63  3051.68  3052.79  3053.01  3076.63  3077.02
eigval :     3077.69  3077.83  3082.79  3083.09  3083.91  3084.51
eigval :     3084.69  3084.92  3089.46  3089.70  3089.87  3090.98
eigval :     3091.82  3093.02  3095.79  3096.52  3096.79  3097.88
eigval :     3098.50  3098.73  3100.85  3102.89  3117.51  3117.78
eigval :     3120.96  3121.30  3125.27

   temp. (K)  partition function   enthalpy   heat capacity  entropy
                                   cal/mol     cal/K/mol   cal/K/mol   J/K/mol
 298.15  VIB  0.368E+32            41650.130    257.749    257.573
         ROT  0.227E+09              888.752      2.981     41.220
         INT  0.837E+40            42538.882    260.730    298.793
         TR   0.301E+29             1481.254      4.968     46.525
         TOT                       44020.1361   265.6978   345.3183  1444.8118

       T/K    H(0)-H(T)+PV         H(T)/Eh          T*S/Eh         G(T)/Eh
   ------------------------------------------------------------------------
    298.15    0.701506E-01    0.121350E+01    0.164072E+00    0.104943E+01
   ------------------------------------------------------------------------

         :::::::::::::::::::::::::::::::::::::::::::::::::::::
         ::                  THERMODYNAMIC                  ::
         :::::::::::::::::::::::::::::::::::::::::::::::::::::
         :: total free energy        -198.878900355255 Eh   ::
         ::.................................................::
         :: total energy             -199.928330702557 Eh   ::
         :: zero point energy           1.143351664794 Eh   ::
         :: G(RRHO) w/o ZPVE           -0.093921317492 Eh   ::
         :: G(RRHO) contrib.            1.049430347303 Eh   ::
         :::::::::::::::::::::::::::::::::::::::::::::::::::::

           -------------------------------------------------
          | TOTAL ENERGY             -199.928330702557 Eh   |
          | TOTAL ENTHALPY           -198.714828485650 Eh   |
          | TOTAL FREE ENERGY        -198.878900355255 Eh   |
          | GRADIENT NORM               0.000074034423 Eh/α |
           -------------------------------------------------

 * finished run on 2025/09/07 at 17:17:19.964
