   * xtb version 6.7.1 (edcfbbe) compiled by 'albert@albert-system' on 2024-07-22

   ID    Z sym.   atoms
    1    6 C      1-20, 22, 23, 25-38, 40-52, 54-75
    2    7 N      21, 24, 39, 53, 76
    3    1 H      77-141

          program call               : xtb data2507/gas/2Cz2tCzBn/2Cz2tCzBn_gas_S0_crest.xyz --gfn 2 --ohess vtight --parallel 40 --molden --ceasefiles --namespace data2507/gas/2Cz2tCzBn/2Cz2tCzBn_gas_S0_finalOpt
          :  Hamiltonian                  GFN2-xTB          :
 * total energy  :  -200.0155278 Eh     change       -0.2679627E-08 Eh
 * total energy  :  -200.0155287 Eh     change       -0.8763331E-06 Eh
 * total energy  :  -200.0155297 Eh     change       -0.1071626E-05 Eh
 * total energy  :  -200.0155324 Eh     change       -0.2627542E-05 Eh
 * total energy  :  -200.0155342 Eh     change       -0.1807495E-05 Eh
 * total energy  :  -200.0155353 Eh     change       -0.1122644E-05 Eh
 * total energy  :  -200.0155367 Eh     change       -0.1426606E-05 Eh
 * total energy  :  -200.0155386 Eh     change       -0.1907620E-05 Eh
 * total energy  :  -200.0155401 Eh     change       -0.1434528E-05 Eh
 * total energy  :  -200.0155409 Eh     change       -0.8248432E-06 Eh
 * total energy  :  -200.0155431 Eh     change       -0.5164806E-06 Eh
 * total energy  :  -200.0155436 Eh     change       -0.5200795E-06 Eh
 * total energy  :  -200.0155440 Eh     change       -0.3990183E-06 Eh
 * total energy  :  -200.0155444 Eh     change       -0.3699352E-06 Eh
 * total energy  :  -200.0155446 Eh     change       -0.2755612E-06 Eh
 * total energy  :  -200.0155448 Eh     change       -0.1898961E-06 Eh
 * total energy  :  -200.0155450 Eh     change       -0.1782908E-06 Eh
 * total energy  :  -200.0155452 Eh     change       -0.1795719E-06 Eh
 * total energy  :  -200.0155452 Eh     change       -0.3719151E-08 Eh
   *** GEOMETRY OPTIMIZATION CONVERGED AFTER 22 ITERATIONS ***

 final structure:
================
141
 xtb: 6.7.1 (edcfbbe)
C            4.26428554390767        6.62448399452117        0.38890879242865
C            5.12163082324677        5.43525532106836       -0.05242131273256
C            6.22685065376484        5.22835862906174        0.99321963368794
C            5.74774510596705        5.78098433341343       -1.41078519002440
C            4.32344236019525        4.14636203244913       -0.18709877737631
C            2.96114749740160        4.07365854711586        0.10837191646629
C            2.23573973257189        2.90130761820622       -0.00814165945587
C            2.88977739898528        1.76634983716877       -0.44735103152430
C            4.26912759770454        1.80775593378023       -0.73691001830466
C            4.97314708910960        2.99216687583798       -0.60604545547657
C            4.65694994640999        0.47177138962215       -1.10307802037767
C            5.86708729025399       -0.10508137691023       -1.45953695063690
C            5.92166579428898       -1.45767336683311       -1.75802158362322
C            7.22279306088564       -2.17312648780568       -2.08817641290036
C            7.45804085145404       -3.26304772026517       -1.03293487965794
C            7.12451416163707       -2.80681056922779       -3.48259975597283
C            8.43085894506053       -1.23257954296621       -2.07836233020774
C            4.73190374783143       -2.19516303667897       -1.75219272817665
C            3.51462392478307       -1.64369862768352       -1.40906439498947
C            3.49305994773644       -0.31378081742430       -1.02744433709378
N            2.42466145322546        0.46783081758466       -0.61460166755269
C            1.22412054975860       -0.04505168001006       -0.13014383190205
C            1.21187867150815       -1.09916699442314        0.80425634058161
N            2.40831400396436       -1.60160805252203        1.32874625285868
C            3.45013087829226       -0.82588245734031        1.80898496825179
C            3.44474691886057        0.50694327835783        2.18817066115225
C            4.63360292007121        1.05474996807603        2.62988843490965
C            5.79208831078329        0.28912378140398        2.72441433507065
C            5.78288760645549       -1.05694289783508        2.41563489655982
C            4.60148913738521       -1.62686983513328        1.96307456098922
C            4.22622848869551       -2.95853541707929        1.57658383179892
C            4.91433477181812       -4.16178308120837        1.51244117713967
C            4.24724470763871       -5.28387305093844        1.06190381668420
C            2.91273755752627       -5.21466562022497        0.67229308257287
C            2.20729025121235       -4.02755715339563        0.73022144778934
C            2.86795688906553       -2.90112444886334        1.19325180693004
C           -0.00202928924160       -1.62868297431437        1.22272749407599
C           -1.21571031615901       -1.12179804036662        0.77598727868922
N           -2.41389120058402       -1.66838083452749        1.25247164947427
C           -2.84207800090256       -2.96616480558217        1.02974750748520
C           -2.14466188030198       -4.04778293617593        0.51664280062698
C           -2.82148587749649       -5.24373388489619        0.36966212200593
C           -4.16336260942871       -5.36375412107482        0.72020111619565
C           -4.86657564490517       -4.28533898613110        1.21989783668007
C           -4.20754163397796       -3.07388263783933        1.37421459572648
C           -4.62074694918470       -1.77445988719659        1.82613747693361
C           -5.82500207167213       -1.25512530649422        2.27920047136725
C           -5.87165885709169        0.07152758487638        2.66002012061731
C           -4.72907820987054        0.86603024927172        2.63484508701511
C           -3.51778346866803        0.36866017477025        2.19445527907129
C           -3.48398321531962       -0.94186976590187        1.74570277690462
C           -1.22549023464650       -0.05269854400022       -0.13865220015836
N           -2.42346028640755        0.48132643826420       -0.60921439567109
C           -2.88285259356440        1.76865768268143       -0.36176624707490
C           -2.21957349341576        2.87092648411290        0.14180758057212
C           -2.94111866401953        4.03310265062693        0.34839557225429
C           -4.30764465643633        4.12586943140499        0.07857398451593
C           -5.10466864356217        5.39847268838756        0.32759248686579
C           -5.76115742111286        5.84652627975971       -0.98559932740302
C           -6.18621521564866        5.10700616933469        1.37803043857876
C           -4.24041996789455        6.55301516866754        0.84177307469842
C           -4.96377347097164        3.00578703500280       -0.41630055577711
C           -4.26411277130346        1.83198480403477       -0.63702903023926
C           -4.65798844964715        0.52215742154197       -1.08272548817177
C           -5.87142889369050       -0.02764416373601       -1.46912566877255
C           -5.93246094663005       -1.35989282601082       -1.84702453995470
C           -7.23669113844341       -2.04650275429877       -2.22312895213655
C           -7.13857152611544       -2.58849454926429       -3.65575500502867
C           -8.44021282775343       -1.10258787680791       -2.15417863351971
C           -7.47942668232628       -3.20145390213709       -1.24142233507268
C           -4.74680225799330       -2.10324251841147       -1.88313198660014
C           -3.52616995702958       -1.57869638499421       -1.51093508385459
C           -3.49706477758959       -0.27164354281031       -1.05787141553077
C           -0.00057183582348        0.46797250692120       -0.58290989260278
C           -0.00729559008139        1.44982112043263       -1.60179071104365
N           -0.01856419838669        2.21454052918712       -2.45531226414893
H            4.88691577031900        7.51476659586465        0.45305760861389
H            3.82660338396940        6.45183306704532        1.36952133008297
H            3.47048503658068        6.82081422591273       -0.32792942230963
H            5.78948738004276        4.97558264998799        1.95707975925824
H            6.81101980928682        6.13911057737092        1.10795269865447
H            6.89940668215901        4.42541938353329        0.70464396321204
H            4.97007230845418        5.89688726378944       -2.16266412867770
H            6.42918394924240        5.00341466751440       -1.74390520682904
H            6.30379750820640        6.71370757602328       -1.34145964806759
H            2.43417362814026        4.95084292012144        0.44474162173713
H            1.18635656408917        2.89135483541195        0.24525980995251
H            6.02873694589266        2.99665799560550       -0.82864438102947
H            6.74574994134530        0.51666221005477       -1.49242992750092
H            7.52508074737535       -2.81246465886777       -0.04499233768789
H            6.64572969263633       -3.98457989627178       -1.02067429085447
H            8.38638642845459       -3.79237403587537       -1.23820044523085
H            6.33357965798883       -3.54994414289079       -3.52745765257805
H            8.06278368507230       -3.29437621286971       -3.73923519626942
H            6.91711417331919       -2.04237509171589       -4.22853770466568
H            8.56212590629531       -0.77560325604838       -1.10024536896496
H            9.33200053107068       -1.79743141025811       -2.30914464601279
H            8.32381801383286       -0.45099403309761       -2.82699254164236
H            4.75054025536172       -3.24031351484012       -2.01961696042617
H            2.61365939953570       -2.23843345126126       -1.43883338191894
H            2.54465565689011        1.10142431552531        2.14538863360674
H            4.66093339587537        2.09780672852731        2.90679989444893
H            6.70467777216571        0.75483913047193        3.06513123173952
H            6.67277964039276       -1.65796414770908        2.52652682749084
H            5.95118821885318       -4.21454147591219        1.80698664655717
H            4.76517940451088       -6.22968350749910        1.00481004138628
H            2.41764070189980       -6.10600884583801        0.31608495364072
H            1.17667247375284       -3.98433138236227        0.41190134424060
H           -0.00436790974304       -2.41732414762232        1.96029336621669
H           -1.10847384942926       -3.96066027622071        0.22568144435608
H           -2.29868543792931       -6.10128431543494       -0.02760930369016
H           -4.65853591982375       -6.31484367715033        0.59233998727006
H           -5.90923276890753       -4.37747562561151        1.48259824111273
H           -6.70356927086284       -1.88000698840613        2.33514317931149
H           -6.80233070352856        0.49834410091595        3.00285480187306
H           -4.78712077008781        1.89194699876826        2.96569917635016
H           -2.63089497372366        0.98409965271201        2.20319428922911
H           -1.16703995543148        2.83987043302381        0.38122994078690
H           -2.40882600877334        4.88460632430408        0.73824849132720
H           -6.31701963855377        6.76919265357485       -0.83166311632580
H           -5.00052880322733        6.02314523523613       -1.74307321354956
H           -6.44869750779751        5.09508802417483       -1.36308633902039
H           -6.77208963982559        6.00286571513578        1.57318433466369
H           -5.72680676128662        4.78590611931693        2.31085143071437
H           -6.86080958051944        4.32339251020785        1.04450114609746
H           -4.86302391641296        7.43382290638880        0.98645641277408
H           -3.46131939815492        6.80625153360831        0.12663246485886
H           -3.78306597175516        6.30710577858775        1.79747642531941
H           -6.02194760799426        3.02725799266322       -0.62521192157984
H           -6.74734436003883        0.59879761644008       -1.46332635612697
H           -6.92642009065009       -1.77792183517071       -4.34986484325118
H           -6.35041469533672       -3.33028459749665       -3.74752094979003
H           -8.07833843967587       -3.05425746057688       -3.94533257457876
H           -8.32873358872923       -0.27548107535591       -2.85149017392212
H           -8.57002381477787       -0.70812847853419       -1.14902056788936
H           -9.34390035973469       -1.64711983846045       -2.42107226413691
H           -8.41085174307958       -3.71049292861091       -1.48124543276036
H           -7.54459001533044       -2.81578934854423       -0.22626312776914
H           -6.67169148710657       -3.92732993873101       -1.27623659919692
H           -4.77143533800337       -3.13151294070241       -2.20913398662439
H           -2.62846394523952       -2.17591053364930       -1.57254858198884

          :  Hamiltonian                  GFN2-xTB          :
         :: gradient norm              0.000106430090 Eh/a0 ::
         :: HOMO-LUMO gap              2.074482261697 eV    ::
         :: SCC energy              -203.624570853851 Eh    ::
         :: -> dispersion             -0.231048733210 Eh    ::
         :: repulsion energy           3.609025662433 Eh    ::

    * Orbital Energies and Occupations

         #    Occupation            Energy/Eh            Energy/eV
      -------------------------------------------------------------
         1        2.0000           -0.6992808             -19.0284
       ...           ...                  ...                  ...
       175        2.0000           -0.4071555             -11.0793
       176        2.0000           -0.4067888             -11.0693
       177        2.0000           -0.4063602             -11.0576
       178        2.0000           -0.3956479             -10.7661
       179        2.0000           -0.3953623             -10.7584
       180        2.0000           -0.3842939             -10.4572
       181        2.0000           -0.3838736             -10.4457
       182        2.0000           -0.3741848             -10.1821
       183        2.0000           -0.3737514             -10.1703
       184        2.0000           -0.3709306             -10.0935
       185        2.0000           -0.3702502             -10.0750
       186        2.0000           -0.3622275              -9.8567
       187        2.0000           -0.3588193              -9.7640 (HOMO)
       188                         -0.2825835              -7.6895 (LUMO)
       189                         -0.2634577              -7.1690
       190                         -0.2488971              -6.7728
       191                         -0.2470499              -6.7226
       192                         -0.2412990              -6.5661
       193                         -0.2399762              -6.5301
       194                         -0.2282638              -6.2114
       195                         -0.2277217              -6.1966
       196                         -0.2160391              -5.8787
       197                         -0.2158036              -5.8723
       198                         -0.2105677              -5.7298
       ...                                ...                  ...
       369                          1.1664188              31.7399
      -------------------------------------------------------------
                  HL-Gap            0.0762358 Eh            2.0745 eV

     #   Z          covCN         q      C6AA      α(0)
     1   6 C        3.761    -0.107    22.597     6.776
     2   6 C        3.903     0.026    20.080     6.370
     3   6 C        3.762    -0.104    22.537     6.767
     4   6 C        3.762    -0.106    22.570     6.772
     5   6 C        2.973     0.001    27.989     8.678
     6   6 C        2.929    -0.041    29.011     8.833
     7   6 C        2.910    -0.047    29.167     8.856
     8   6 C        3.071     0.048    26.853     8.497
     9   6 C        3.069    -0.015    28.322     8.726
    10   6 C        2.921    -0.037    28.928     8.820
    11   6 C        3.063    -0.017    28.363     8.733
    12   6 C        2.919    -0.042    29.045     8.838
    13   6 C        2.974     0.001    27.996     8.679
    14   6 C        3.903     0.026    20.084     6.370
    15   6 C        3.762    -0.104    22.532     6.766
    16   6 C        3.761    -0.106    22.563     6.771
    17   6 C        3.761    -0.107    22.591     6.776
    18   6 C        2.932    -0.037    28.922     8.820
    19   6 C        2.909    -0.049    29.220     8.864
    20   6 C        3.082     0.046    26.887     8.501
    21   7 N        2.798    -0.051    22.220     7.001
    22   6 C        2.918     0.057    26.717     8.476
    23   6 C        2.909     0.049    26.894     8.504
    24   7 N        2.800    -0.048    22.173     6.994
    25   6 C        3.078     0.049    26.815     8.490
    26   6 C        2.911    -0.046    29.151     8.853
    27   6 C        2.925    -0.030    28.757     8.794
    28   6 C        2.921    -0.038    28.953     8.824
    29   6 C        2.913    -0.031    28.781     8.797
    30   6 C        3.066    -0.015    28.309     8.725
    31   6 C        3.069    -0.013    28.276     8.719
    32   6 C        2.913    -0.031    28.767     8.795
    33   6 C        2.920    -0.040    28.994     8.830
    34   6 C        2.924    -0.033    28.815     8.803
    35   6 C        2.910    -0.049    29.210     8.862
    36   6 C        3.073     0.050    26.802     8.488
    37   6 C        2.923    -0.055    29.368     8.887
    38   6 C        2.909     0.049    26.891     8.503
    39   7 N        2.800    -0.050    22.195     6.997
    40   6 C        3.075     0.050    26.798     8.487
    41   6 C        2.910    -0.049    29.208     8.862
    42   6 C        2.924    -0.033    28.815     8.803
    43   6 C        2.920    -0.040    28.997     8.830
    44   6 C        2.913    -0.031    28.769     8.795
    45   6 C        3.069    -0.013    28.278     8.720
    46   6 C        3.067    -0.015    28.312     8.725
    47   6 C        2.913    -0.031    28.779     8.797
    48   6 C        2.921    -0.038    28.956     8.824
    49   6 C        2.925    -0.030    28.756     8.794
    50   6 C        2.910    -0.047    29.155     8.854
    51   6 C        3.078     0.049    26.809     8.489
    52   6 C        2.920     0.058    26.711     8.475
    53   7 N        2.798    -0.052    22.246     7.005
    54   6 C        3.073     0.048    26.843     8.495
    55   6 C        2.910    -0.047    29.176     8.857
    56   6 C        2.929    -0.041    29.017     8.834
    57   6 C        2.973     0.001    27.995     8.679
    58   6 C        3.903     0.026    20.080     6.370
    59   6 C        3.762    -0.106    22.570     6.772
    60   6 C        3.762    -0.104    22.533     6.767
    61   6 C        3.761    -0.107    22.594     6.776
    62   6 C        2.921    -0.037    28.925     8.820
    63   6 C        3.068    -0.015    28.320     8.726
    64   6 C        3.063    -0.017    28.365     8.734
    65   6 C        2.919    -0.042    29.044     8.838
    66   6 C        2.974     0.001    27.999     8.680
    67   6 C        3.903     0.026    20.085     6.370
    68   6 C        3.761    -0.106    22.563     6.771
    69   6 C        3.761    -0.107    22.590     6.775
    70   6 C        3.762    -0.104    22.531     6.766
    71   6 C        2.932    -0.037    28.918     8.819
    72   6 C        2.909    -0.049    29.221     8.864
    73   6 C        3.082     0.046    26.878     8.499
    74   6 C        2.975    -0.013    28.322     8.730
    75   6 C        1.913     0.123    28.069     8.556
    76   7 N        0.911    -0.227    25.963     7.369
    77   1 H        0.925     0.036     2.505     2.475
    78   1 H        0.925     0.034     2.526     2.485
    79   1 H        0.925     0.037     2.483     2.464
    80   1 H        0.925     0.031     2.566     2.505
    81   1 H        0.925     0.037     2.495     2.470
    82   1 H        0.925     0.036     2.503     2.474
    83   1 H        0.925     0.036     2.506     2.475
    84   1 H        0.925     0.036     2.499     2.472
    85   1 H        0.925     0.036     2.499     2.472
    86   1 H        0.926     0.040     2.447     2.446
    87   1 H        0.926     0.018     2.770     2.603
    88   1 H        0.926     0.033     2.541     2.493
    89   1 H        0.926     0.039     2.458     2.451
    90   1 H        0.925     0.033     2.542     2.493
    91   1 H        0.925     0.036     2.501     2.473
    92   1 H        0.925     0.036     2.497     2.471
    93   1 H        0.925     0.036     2.506     2.476
    94   1 H        0.925     0.037     2.492     2.469
    95   1 H        0.925     0.034     2.527     2.486
    96   1 H        0.925     0.036     2.509     2.477
    97   1 H        0.925     0.036     2.504     2.475
    98   1 H        0.925     0.036     2.506     2.476
    99   1 H        0.926     0.030     2.583     2.513
   100   1 H        0.926     0.019     2.755     2.596
   101   1 H        0.926     0.022     2.706     2.572
   102   1 H        0.926     0.031     2.570     2.507
   103   1 H        0.926     0.031     2.574     2.509
   104   1 H        0.926     0.031     2.569     2.506
   105   1 H        0.926     0.034     2.529     2.487
   106   1 H        0.926     0.030     2.590     2.517
   107   1 H        0.926     0.031     2.576     2.510
   108   1 H        0.926     0.022     2.709     2.574
   109   1 H        0.926     0.061     2.183     2.311
   110   1 H        0.926     0.020     2.729     2.583
   111   1 H        0.926     0.031     2.579     2.511
   112   1 H        0.926     0.030     2.592     2.518
   113   1 H        0.926     0.034     2.529     2.487
   114   1 H        0.926     0.031     2.573     2.508
   115   1 H        0.926     0.031     2.578     2.511
   116   1 H        0.926     0.031     2.571     2.507
   117   1 H        0.926     0.022     2.707     2.573
   118   1 H        0.926     0.016     2.793     2.614
   119   1 H        0.926     0.040     2.455     2.450
   120   1 H        0.925     0.036     2.500     2.473
   121   1 H        0.925     0.036     2.507     2.476
   122   1 H        0.925     0.036     2.498     2.472
   123   1 H        0.925     0.036     2.496     2.471
   124   1 H        0.925     0.031     2.570     2.507
   125   1 H        0.925     0.036     2.502     2.474
   126   1 H        0.925     0.036     2.505     2.475
   127   1 H        0.925     0.037     2.487     2.466
   128   1 H        0.925     0.034     2.527     2.486
   129   1 H        0.926     0.033     2.542     2.493
   130   1 H        0.926     0.039     2.459     2.452
   131   1 H        0.925     0.034     2.527     2.486
   132   1 H        0.925     0.036     2.506     2.476
   133   1 H        0.925     0.037     2.493     2.469
   134   1 H        0.925     0.036     2.506     2.476
   135   1 H        0.925     0.036     2.510     2.477
   136   1 H        0.925     0.036     2.505     2.475
   137   1 H        0.925     0.036     2.499     2.472
   138   1 H        0.925     0.033     2.542     2.493
   139   1 H        0.925     0.036     2.501     2.473
   140   1 H        0.926     0.030     2.583     2.513
   141   1 H        0.926     0.019     2.754     2.595

molecular dipole:
                 x           y           z       tot (Debye)
 q only:        0.047      -0.231       0.628
   full:        0.050      -0.601       0.942       2.844

 projected vibrational frequencies (cm⁻¹)
eigval :       -0.00    -0.00    -0.00     0.00     0.00     0.00
eigval :        9.54    13.14    15.49    17.85    24.20    28.67
eigval :       31.28    32.31    33.38    34.91    36.08    38.86
eigval :       45.67    50.35    51.26    58.72    63.94    69.56
eigval :       78.34    78.62    86.02    86.77    91.51    97.19
eigval :      109.72   112.70   117.46   120.22   124.41   133.00
eigval :      138.70   140.23   154.02   155.01   167.43   168.20
eigval :      175.35   175.63   182.79   183.75   194.12   195.18
eigval :      203.16   213.86   216.99   217.22   218.83   219.67
eigval :      224.87   229.37   232.20   240.61   244.53   264.47
eigval :      270.18   271.40   275.76   277.93   283.33   287.35
eigval :      292.81   302.18   303.06   309.94   319.91   320.24
eigval :      323.49   326.45   326.70   330.21   338.34   343.72
eigval :      345.65   352.97   358.17   358.50   378.04   378.26
eigval :      385.89   399.68   401.08   402.83   404.04   410.51
eigval :      412.57   416.06   417.24   424.10   427.86   433.37
eigval :      439.79   440.26   444.89   447.38   448.99   450.11
eigval :      457.00   459.81   465.41   465.64   467.45   468.73
eigval :      510.12   512.39   516.00   518.35   519.94   531.20
eigval :      532.19   535.50   542.18   542.60   552.17   552.97
eigval :      567.60   573.75   581.62   584.10   589.11   590.12
eigval :      593.24   596.52   616.60   616.80   628.63   640.09
eigval :      640.37   644.81   658.04   662.85   672.53   673.87
eigval :      680.11   686.27   689.21   691.09   704.39   704.75
eigval :      707.25   707.64   718.39   721.50   723.12   736.32
eigval :      755.67   756.41   767.35   770.72   780.46   781.99
eigval :      787.30   805.70   813.91   826.47   826.94   831.82
eigval :      834.33   836.82   862.85   866.95   872.38   872.93
eigval :      873.33   873.60   875.88   877.06   877.51   878.64
eigval :      887.25   898.21   898.38   898.70   901.12   902.53
eigval :      903.41   904.59   905.21   906.94   917.97   918.80
eigval :      921.25   922.75   923.14   923.53   924.74   926.21
eigval :      931.00   937.22   960.20   960.26   960.89   960.89
eigval :      962.74   962.83   962.86   962.91   962.93   963.04
eigval :      966.01   966.10  1003.16  1009.69  1013.71  1023.16
eigval :     1032.65  1033.48  1035.18  1035.36  1036.43  1036.54
eigval :     1036.82  1036.84  1040.86  1040.99  1068.00  1070.88
eigval :     1071.02  1074.64  1075.13  1114.52  1123.49  1130.36
eigval :     1131.01  1133.91  1142.28  1142.56  1148.87  1152.65
eigval :     1169.35  1176.36  1177.68  1178.96  1179.44  1180.66
eigval :     1181.75  1200.88  1204.78  1216.40  1227.22  1228.07
eigval :     1228.25  1228.89  1229.08  1229.49  1232.14  1232.35
eigval :     1233.73  1234.12  1235.05  1235.76  1237.06  1244.90
eigval :     1248.44  1254.90  1255.40  1262.94  1280.67  1285.17
eigval :     1285.52  1294.26  1296.55  1298.17  1299.65  1300.38
eigval :     1302.50  1304.98  1309.98  1326.12  1341.13  1349.63
eigval :     1351.80  1356.31  1360.67  1360.73  1362.59  1363.02
eigval :     1363.67  1364.39  1402.22  1402.29  1403.73  1404.37
eigval :     1404.55  1406.00  1406.05  1406.28  1406.42  1413.39
eigval :     1413.85  1420.55  1423.75  1428.55  1429.38  1429.40
eigval :     1429.51  1429.60  1429.74  1435.15  1435.75  1459.49
eigval :     1461.20  1474.91  1475.34  1475.68  1475.82  1483.17
eigval :     1483.64  1488.45  1488.62  1491.03  1491.07  1492.06
eigval :     1492.13  1494.77  1494.83  1495.10  1495.14  1501.77
eigval :     1501.82  1502.42  1502.44  1504.36  1504.70  1504.80
eigval :     1505.72  1505.84  1514.68  1514.69  1515.23  1515.35
eigval :     1520.61  1520.84  1520.94  1520.97  1546.93  1575.91
eigval :     1576.21  1577.67  1578.12  1589.37  1590.10  1592.72
eigval :     1593.49  1601.52  1601.95  1607.83  1608.17  1616.26
eigval :     1616.98  1620.02  1621.15  2368.93  3020.63  3020.82
eigval :     3020.93  3021.09  3022.04  3022.21  3022.38  3022.64
eigval :     3026.17  3026.60  3027.65  3027.70  3029.26  3029.43
eigval :     3029.72  3030.04  3032.23  3032.25  3032.27  3032.43
eigval :     3035.80  3036.01  3036.09  3036.21  3038.13  3038.37
eigval :     3039.20  3039.39  3047.37  3047.42  3047.48  3047.58
eigval :     3051.45  3051.50  3051.64  3051.83  3075.56  3076.85
eigval :     3077.23  3077.37  3077.57  3079.18  3079.44  3081.48
eigval :     3081.61  3082.66  3082.90  3083.52  3089.13  3089.72
eigval :     3090.66  3091.55  3092.89  3092.97  3096.23  3096.39
eigval :     3097.62  3097.81  3098.45  3099.43  3099.61  3120.38
eigval :     3120.41  3121.32  3121.96

   temp. (K)  partition function   enthalpy   heat capacity  entropy
                                   cal/mol     cal/K/mol   cal/K/mol   J/K/mol
 298.15  VIB  0.786E+31            41219.877    255.950    254.434
         ROT  0.226E+09              888.752      2.981     41.211
         INT  0.178E+40            42108.629    258.931    295.645
         TR   0.301E+29             1481.254      4.968     46.525
         TOT                       43589.8828   263.8990   342.1705  1431.6414

       T/K    H(0)-H(T)+PV         H(T)/Eh          T*S/Eh         G(T)/Eh
   ------------------------------------------------------------------------
    298.15    0.694649E-01    0.121815E+01    0.162576E+00    0.105558E+01
   ------------------------------------------------------------------------

         :::::::::::::::::::::::::::::::::::::::::::::::::::::
         ::                  THERMODYNAMIC                  ::
         :::::::::::::::::::::::::::::::::::::::::::::::::::::
         :: total free energy        -198.959967803044 Eh   ::
         ::.................................................::
         :: total energy             -200.015545191417 Eh   ::
         :: zero point energy           1.148688741888 Eh   ::
         :: G(RRHO) w/o ZPVE           -0.093111353514 Eh   ::
         :: G(RRHO) contrib.            1.055577388373 Eh   ::
         :::::::::::::::::::::::::::::::::::::::::::::::::::::

           -------------------------------------------------
          | TOTAL ENERGY             -200.015545191417 Eh   |
          | TOTAL ENTHALPY           -198.797391549588 Eh   |
          | TOTAL FREE ENERGY        -198.959967803044 Eh   |
          | GRADIENT NORM               0.000106517885 Eh/α |
          | HOMO-LUMO GAP               2.074481314586 eV   |
           -------------------------------------------------

 * finished run on 2025/09/07 at 16:40:27.298
