   * xtb version 6.7.1 (edcfbbe) compiled by 'albert@albert-system' on 2024-07-22

   ID    Z sym.   atoms
    1    6 C      1-20, 22, 23, 25-38, 40-52, 54-75
    2    7 N      21, 24, 39, 53, 76
    3    1 H      77-141

          program call               : xtb data2507/gas/2Cz2tCzBn/2Cz2tCzBn.xyz --gfn 2 --ohess vtight --parallel 40 --molden --ceasefiles --namespace data2507/gas/2Cz2tCzBn/2Cz2tCzBn_gas_S0_preOpt
          :  Hamiltonian                  GFN2-xTB          :
 * total energy  :  -199.9641581 Eh     change       -0.5307925E-08 Eh
 * total energy  :  -199.9901889 Eh     change       -0.2603082E-01 Eh
 * total energy  :  -199.9984646 Eh     change       -0.8275711E-02 Eh
 * total energy  :  -200.0011820 Eh     change       -0.2717411E-02 Eh
 * total energy  :  -200.0029723 Eh     change       -0.1790245E-02 Eh
 * total energy  :  -200.0039005 Eh     change       -0.9282384E-03 Eh
 * total energy  :  -200.0044291 Eh     change       -0.5285593E-03 Eh
 * total energy  :  -200.0047984 Eh     change       -0.3692942E-03 Eh
 * total energy  :  -200.0051312 Eh     change       -0.3328141E-03 Eh
 * total energy  :  -200.0054873 Eh     change       -0.3561014E-03 Eh
 * total energy  :  -200.0143910 Eh     change       -0.1212931E-05 Eh
 * total energy  :  -200.0143923 Eh     change       -0.1286936E-05 Eh
 * total energy  :  -200.0143933 Eh     change       -0.1000890E-05 Eh
 * total energy  :  -200.0143940 Eh     change       -0.7036215E-06 Eh
 * total energy  :  -200.0143947 Eh     change       -0.7136088E-06 Eh
 * total energy  :  -200.0143953 Eh     change       -0.5991971E-06 Eh
 * total energy  :  -200.0143956 Eh     change       -0.3038803E-06 Eh
 * total energy  :  -200.0143958 Eh     change       -0.1631958E-06 Eh
 * total energy  :  -200.0143959 Eh     change       -0.9874185E-07 Eh
   *** GEOMETRY OPTIMIZATION CONVERGED AFTER 84 ITERATIONS ***

 final structure:
================
141
 xtb: 6.7.1 (edcfbbe)
C            8.10535126898049        1.82490366074569        1.32117403336810
C            7.22304752788243        2.85664467908302        0.60405126176226
C            7.90475896073785        3.31869330540104       -0.69108123863596
C            7.07365552118468        4.07018058721230        1.52548827903133
C            5.89110859839027        2.20071881085642        0.27124645378325
C            4.67875294651213        2.68448731960906        0.76617222038881
C            3.47462246100623        2.04937295696800        0.52422266294397
C            3.49326464782585        0.88334358816194       -0.21678853958759
C            4.68641167680999        0.42175465250117       -0.80443877766485
C            5.87818916404189        1.07776925404845       -0.54794893141279
C            4.33548982388912       -0.74552318883432       -1.56902967447150
C            5.08398475514041       -1.63713613530589       -2.32340441739092
C            4.46593035243464       -2.72887935312825       -2.91152090840183
C            5.22642642136160       -3.75496428575393       -3.73872942170097
C            6.71321922123834       -3.41536131168624       -3.87454666810003
C            5.11166091295228       -5.12749015278390       -3.06001222969471
C            4.62229633695130       -3.81771355967658       -5.14835950128988
C            3.09004861624253       -2.90204809150240       -2.72030194477219
C            2.32130491318702       -2.03173876158925       -1.97358863156306
C            2.95063137822433       -0.94035536742162       -1.40185452543695
N            2.44272202063020        0.05088106018473       -0.57093553685232
C            1.23488749107570       -0.00378091440239        0.12386797245017
C            1.21943151143552       -0.09914733547890        1.52806277616339
N            2.41794768532500       -0.16939499030610        2.24974483437706
C            2.88624069527763        0.80418595621649        3.11662229172408
C            2.21900487507463        1.88831266685610        3.66399734033288
C            2.93665711288782        2.73924381885597        4.48358642317639
C            4.28492850233956        2.52094134950931        4.75317001674884
C            4.95369553001089        1.44327778154844        4.20685111378648
C            4.25490699345818        0.57496896946820        3.38020902876406
C            4.62628909128497       -0.59928006579632        2.64027492779006
C            5.80971635653499       -1.30905445166870        2.49486650105966
C            5.81024777256763       -2.43786876447025        1.69898327127947
C            4.64415523732086       -2.88477009237883        1.08449372158788
C            3.45351516923757       -2.19686848739347        1.21868523658319
C            3.46479249952655       -1.02910788678514        1.96398716954125
C            0.00551151428415       -0.11357105857154        2.20203341473048
C           -1.20436600325782       -0.05522631044631        1.52313534649421
N           -2.40687956418005       -0.06398141166345        2.24162512359193
C           -2.87748790173775       -1.12620495281048        2.99593584280527
C           -2.21099582311562       -2.26249632121528        3.42581479824020
C           -2.93094048697221       -3.19798416629724        4.14511190622473
C           -4.28076392070053       -3.01168926420264        4.43048350439362
C           -4.94883917515830       -1.88204703297688        4.00077941747787
C           -4.24776963774143       -0.92860055713406        3.27617462785213
C           -4.61798520973783        0.31800285961245        2.66531581248496
C           -5.80252710933672        1.03689674068475        2.59058387794256
C           -5.80211990719880        2.24426545180063        1.91989393496178
C           -4.63389314485472        2.75684429441251        1.36359312008777
C           -3.44196148115309        2.06133566965030        1.43003803342243
C           -3.45412457860615        0.82004782765194        2.04516529079150
C           -1.21124827867747        0.00062701354649        0.11667026874292
N           -2.41458921652348        0.02212409596605       -0.58764274455152
C           -2.91729813181542        1.09975007382809       -1.30741910406147
C           -2.28448607466171        2.24243139601786       -1.75767179649440
C           -3.04595798202314        3.19737232716770       -2.40831652448884
C           -4.41903179513887        3.05236459336365       -2.61360953076232
C           -5.25778364341121        4.11489847595050       -3.30961711220169
C           -4.42850677762567        5.30741296048160       -3.79373783218413
C           -5.94811060886951        3.49114016285828       -4.53054952562201
C           -6.31344666457153        4.63624620662677       -2.32377529039072
C           -5.04223384992979        1.90209006251990       -2.14583606657427
C           -4.30415941853231        0.92847954997682       -1.49580116597459
C           -4.65947626487352       -0.31495445940384       -0.86409641538333
C           -5.85289626038469       -0.99251963367514       -0.68405214911202
C           -5.87005201963093       -2.19892759887112        0.00668783000406
C           -7.20379765866293       -2.88578772308696        0.26045271708923
C           -7.05911449934989       -4.19192790693098        1.04601189403468
C           -7.87894097442084       -3.20462122463457       -1.08051158637987
C           -8.08979611529588       -1.93739956046999        1.08063725473814
C           -4.65997565715859       -2.73618954768578        0.44867893512971
C           -3.45399986336350       -2.08075083466868        0.28064837328543
C           -3.46855087941248       -0.84078310772170       -0.32854686112020
C            0.01391833660918        0.03518404049143       -0.56571789076541
C            0.01825015258726        0.11022617758975       -1.97879868688039
N            0.02197503105148        0.17046065646152       -3.12328829303792
H            9.06381607376784        2.26703899487320        1.58580501999809
H            8.28982495257076        0.95674085690377        0.69472102821973
H            7.61346843922190        1.48856699178728        2.23109129662020
H            8.85134668140233        3.80507624062114       -0.46447348872653
H            7.26918841497522        4.02786692940258       -1.21731091047750
H            8.10300445371767        2.48225747576753       -1.35527575443360
H            6.60405919687726        3.79015199289284        2.46587879937141
H            6.48542058325735        4.85260152314575        1.05163098154319
H            8.05758309757501        4.47904679491703        1.74743462939027
H            4.65545822557822        3.57747940009519        1.36756223246370
H            2.55250973696923        2.45569421534310        0.91360438825148
H            6.78816645892452        0.69818765741961       -0.98569675874646
H            6.14160724331187       -1.46201855874853       -2.42618091100564
H            6.85046281044576       -2.45385285157713       -4.36370130455016
H            7.20102071774524       -3.39513915753365       -2.90264770889268
H            7.20440728529157       -4.17418969884714       -4.48056510159973
H            5.53085209838798       -5.08558676260128       -2.05654226455177
H            5.65816833154655       -5.87554421385663       -3.63062781305814
H            4.07610090997071       -5.44723341045649       -2.98404015831507
H            4.67484304349948       -2.83980368878965       -5.62207787626458
H            5.17258051312413       -4.52908923352070       -5.76084619545067
H            3.58120166877516       -4.12622907933317       -5.12234492986320
H            2.59492419368876       -3.75136896415313       -3.16521808127505
H            1.26454372974340       -2.21271119800160       -1.84343403274281
H            1.17628955507578        2.07374119407549        3.45071345973856
H            2.44085782415326        3.59289729863244        4.92163935052999
H            4.81163277464483        3.20923461703352        5.39749107347975
H            6.00014951176311        1.27722816481950        4.41431620377081
H            6.70829445441189       -0.98564735381014        2.99778700039898
H            6.72409564305209       -2.99713685908654        1.56485617701767
H            4.66557316423150       -3.78611022298939        0.49074182380254
H            2.54769825102236       -2.56181546659605        0.75821373327559
H            0.00225943845862       -0.17158031565474        3.28022782697425
H           -1.16703600768022       -2.42263461606849        3.19859476899093
H           -2.43571717226490       -4.09348141857587        4.49045796217362
H           -4.80923073841344       -3.76626348540994        4.99409378939909
H           -5.99650870741949       -1.74064382257894        4.22004429822328
H           -6.70270521224673        0.65958320406274        3.05132901975714
H           -6.71651289263293        2.81289155524532        1.84045565095991
H           -4.65577814650414        3.71621837896936        0.86937138869876
H           -2.53459085129016        2.47537357776280        1.01645294564522
H           -1.22697875068743        2.40346437413870       -1.60862411403029
H           -2.53861602538468        4.08147848723483       -2.75647070468575
H           -3.94748653927194        5.81623511480995       -2.96147962395205
H           -3.67020928047287        4.99221734307719       -4.50655385416138
H           -5.08056048574745        6.02303415499498       -4.29087535718717
H           -6.53392579362392        4.24295963280736       -5.05549823943902
H           -6.61389103657129        2.68305473701377       -4.24127539701797
H           -5.20478398884541        3.09073727860355       -5.21657103258990
H           -6.93008116520880        5.39585022251473       -2.79989026987906
H           -5.82978494908823        5.07968211517488       -1.45568438606833
H           -6.96217365345174        3.83602695076726       -1.97860267170679
H           -6.10362012963251        1.75375532169474       -2.26983988071495
H           -6.76115682313954       -0.56552270643990       -1.07972878645509
H           -6.46975492485085       -4.91942045148195        0.49271619410277
H           -6.59294188515119       -4.01564722418540        2.01290470440669
H           -8.04427593639865       -4.62106830914394        1.21873398597889
H           -7.24107188511266       -3.85372177509262       -1.67680808753781
H           -8.07288734974798       -2.30117065194436       -1.65171934860004
H           -8.82710221908110       -3.71134652480475       -0.91269522444693
H           -9.04973873044182       -2.40498993872819        1.29050983591717
H           -8.27089588751916       -1.00611370922205        0.55140906936655
H           -7.60280516647911       -1.70234341553112        2.02433005582364
H           -4.63975434275000       -3.68967852745531        0.94877305990144
H           -2.53367230582290       -2.52900736968420        0.62570517650217

          :  Hamiltonian                  GFN2-xTB          :
         :: gradient norm              0.000102671294 Eh/a0 ::
         :: HOMO-LUMO gap              2.063479832181 eV    ::
         :: SCC energy              -203.621907115329 Eh    ::
         :: -> dispersion             -0.231756844150 Eh    ::
         :: repulsion energy           3.607511254879 Eh    ::

    * Orbital Energies and Occupations

         #    Occupation            Energy/Eh            Energy/eV
      -------------------------------------------------------------
         1        2.0000           -0.7002278             -19.0542
       ...           ...                  ...                  ...
       175        2.0000           -0.4076962             -11.0940
       176        2.0000           -0.4067476             -11.0682
       177        2.0000           -0.4062635             -11.0550
       178        2.0000           -0.3949115             -10.7461
       179        2.0000           -0.3943775             -10.7316
       180        2.0000           -0.3843848             -10.4596
       181        2.0000           -0.3841391             -10.4530
       182        2.0000           -0.3739537             -10.1758
       183        2.0000           -0.3735807             -10.1656
       184        2.0000           -0.3710785             -10.0976
       185        2.0000           -0.3688444             -10.0368
       186        2.0000           -0.3610549              -9.8248
       187        2.0000           -0.3597056              -9.7881 (HOMO)
       188                         -0.2838742              -7.7246 (LUMO)
       189                         -0.2642435              -7.1904
       190                         -0.2488951              -6.7728
       191                         -0.2473783              -6.7315
       192                         -0.2411042              -6.5608
       193                         -0.2402491              -6.5375
       194                         -0.2279973              -6.2041
       195                         -0.2276749              -6.1953
       196                         -0.2156904              -5.8692
       197                         -0.2151723              -5.8551
       198                         -0.2124253              -5.7804
       ...                                ...                  ...
       369                          1.1657573              31.7219
      -------------------------------------------------------------
                  HL-Gap            0.0758314 Eh            2.0635 eV

     #   Z          covCN         q      C6AA      α(0)
     1   6 C        3.763    -0.104    22.531     6.766
     2   6 C        3.903     0.026    20.084     6.370
     3   6 C        3.761    -0.105    22.561     6.771
     4   6 C        3.761    -0.107    22.589     6.775
     5   6 C        2.974     0.001    28.000     8.680
     6   6 C        2.930    -0.042    29.034     8.837
     7   6 C        2.910    -0.050    29.244     8.867
     8   6 C        3.083     0.046    26.882     8.500
     9   6 C        3.061    -0.016    28.359     8.733
    10   6 C        2.921    -0.038    28.947     8.823
    11   6 C        3.068    -0.016    28.338     8.729
    12   6 C        2.919    -0.041    29.030     8.835
    13   6 C        2.973     0.001    27.991     8.678
    14   6 C        3.903     0.026    20.081     6.370
    15   6 C        3.761    -0.107    22.592     6.776
    16   6 C        3.762    -0.104    22.533     6.767
    17   6 C        3.762    -0.106    22.574     6.773
    18   6 C        2.932    -0.036    28.897     8.816
    19   6 C        2.909    -0.048    29.181     8.858
    20   6 C        3.074     0.048    26.838     8.494
    21   7 N        2.797    -0.055    22.309     7.015
    22   6 C        2.919     0.059    26.683     8.471
    23   6 C        2.910     0.051    26.857     8.498
    24   7 N        2.800    -0.052    22.234     7.003
    25   6 C        3.074     0.050    26.792     8.487
    26   6 C        2.910    -0.049    29.223     8.864
    27   6 C        2.925    -0.032    28.807     8.802
    28   6 C        2.920    -0.040    28.986     8.829
    29   6 C        2.913    -0.031    28.764     8.795
    30   6 C        3.069    -0.014    28.281     8.720
    31   6 C        3.066    -0.015    28.313     8.725
    32   6 C        2.913    -0.031    28.775     8.796
    33   6 C        2.921    -0.038    28.949     8.823
    34   6 C        2.925    -0.030    28.755     8.794
    35   6 C        2.910    -0.047    29.156     8.854
    36   6 C        3.079     0.050    26.804     8.488
    37   6 C        2.923    -0.055    29.362     8.886
    38   6 C        2.910     0.051    26.858     8.498
    39   7 N        2.800    -0.052    22.236     7.004
    40   6 C        3.074     0.050    26.793     8.487
    41   6 C        2.910    -0.049    29.224     8.864
    42   6 C        2.925    -0.032    28.807     8.802
    43   6 C        2.920    -0.040    28.986     8.829
    44   6 C        2.913    -0.031    28.765     8.795
    45   6 C        3.069    -0.014    28.281     8.720
    46   6 C        3.066    -0.015    28.315     8.726
    47   6 C        2.913    -0.031    28.776     8.796
    48   6 C        2.921    -0.038    28.949     8.823
    49   6 C        2.925    -0.030    28.751     8.793
    50   6 C        2.910    -0.047    29.158     8.854
    51   6 C        3.079     0.050    26.805     8.488
    52   6 C        2.919     0.059    26.683     8.471
    53   7 N        2.797    -0.056    22.319     7.017
    54   6 C        3.071     0.049    26.837     8.494
    55   6 C        2.909    -0.048    29.195     8.860
    56   6 C        2.930    -0.040    29.005     8.832
    57   6 C        2.973     0.001    27.990     8.678
    58   6 C        3.903     0.026    20.080     6.370
    59   6 C        3.761    -0.107    22.598     6.777
    60   6 C        3.762    -0.106    22.568     6.772
    61   6 C        3.762    -0.104    22.528     6.766
    62   6 C        2.921    -0.037    28.925     8.820
    63   6 C        3.067    -0.015    28.325     8.727
    64   6 C        3.060    -0.016    28.357     8.733
    65   6 C        2.921    -0.038    28.940     8.822
    66   6 C        2.974     0.001    28.000     8.680
    67   6 C        3.903     0.026    20.083     6.370
    68   6 C        3.761    -0.107    22.589     6.775
    69   6 C        3.761    -0.105    22.559     6.771
    70   6 C        3.763    -0.104    22.530     6.766
    71   6 C        2.930    -0.041    29.031     8.836
    72   6 C        2.910    -0.050    29.244     8.867
    73   6 C        3.082     0.046    26.873     8.498
    74   6 C        2.974    -0.012    28.311     8.728
    75   6 C        1.912     0.124    28.062     8.555
    76   7 N        0.911    -0.225    25.921     7.363
    77   1 H        0.925     0.036     2.503     2.474
    78   1 H        0.925     0.036     2.506     2.475
    79   1 H        0.925     0.034     2.537     2.491
    80   1 H        0.925     0.037     2.495     2.470
    81   1 H        0.925     0.034     2.534     2.489
    82   1 H        0.925     0.036     2.497     2.471
    83   1 H        0.925     0.036     2.505     2.475
    84   1 H        0.925     0.035     2.520     2.483
    85   1 H        0.925     0.036     2.503     2.474
    86   1 H        0.926     0.037     2.490     2.468
    87   1 H        0.926     0.017     2.774     2.605
    88   1 H        0.926     0.033     2.548     2.496
    89   1 H        0.926     0.039     2.458     2.452
    90   1 H        0.925     0.036     2.500     2.472
    91   1 H        0.925     0.035     2.519     2.482
    92   1 H        0.925     0.036     2.506     2.476
    93   1 H        0.925     0.031     2.566     2.505
    94   1 H        0.925     0.037     2.494     2.470
    95   1 H        0.925     0.035     2.511     2.478
    96   1 H        0.925     0.036     2.508     2.477
    97   1 H        0.925     0.036     2.499     2.472
    98   1 H        0.925     0.037     2.485     2.465
    99   1 H        0.926     0.033     2.537     2.491
   100   1 H        0.926     0.021     2.724     2.581
   101   1 H        0.926     0.024     2.679     2.560
   102   1 H        0.926     0.031     2.572     2.508
   103   1 H        0.926     0.030     2.591     2.517
   104   1 H        0.926     0.031     2.577     2.510
   105   1 H        0.926     0.033     2.546     2.495
   106   1 H        0.926     0.030     2.582     2.513
   107   1 H        0.926     0.031     2.574     2.509
   108   1 H        0.926     0.022     2.710     2.574
   109   1 H        0.926     0.062     2.177     2.307
   110   1 H        0.926     0.024     2.679     2.560
   111   1 H        0.926     0.031     2.572     2.508
   112   1 H        0.926     0.030     2.592     2.517
   113   1 H        0.926     0.031     2.578     2.511
   114   1 H        0.926     0.033     2.547     2.496
   115   1 H        0.926     0.031     2.572     2.508
   116   1 H        0.926     0.031     2.573     2.508
   117   1 H        0.926     0.021     2.713     2.576
   118   1 H        0.926     0.021     2.722     2.580
   119   1 H        0.926     0.040     2.443     2.444
   120   1 H        0.925     0.034     2.525     2.485
   121   1 H        0.925     0.037     2.484     2.464
   122   1 H        0.925     0.036     2.504     2.475
   123   1 H        0.925     0.036     2.499     2.472
   124   1 H        0.925     0.036     2.502     2.474
   125   1 H        0.925     0.036     2.507     2.476
   126   1 H        0.925     0.036     2.496     2.471
   127   1 H        0.925     0.031     2.570     2.507
   128   1 H        0.925     0.036     2.506     2.475
   129   1 H        0.926     0.032     2.553     2.499
   130   1 H        0.926     0.032     2.557     2.501
   131   1 H        0.925     0.035     2.520     2.482
   132   1 H        0.925     0.036     2.504     2.474
   133   1 H        0.925     0.036     2.503     2.474
   134   1 H        0.925     0.034     2.533     2.489
   135   1 H        0.925     0.036     2.500     2.473
   136   1 H        0.925     0.037     2.495     2.470
   137   1 H        0.925     0.036     2.503     2.474
   138   1 H        0.925     0.036     2.508     2.477
   139   1 H        0.925     0.034     2.536     2.490
   140   1 H        0.926     0.037     2.489     2.467
   141   1 H        0.926     0.017     2.772     2.604

molecular dipole:
                 x           y           z       tot (Debye)
 q only:       -0.007      -0.030       0.629
   full:       -0.025      -0.064       1.094       2.785

 projected vibrational frequencies (cm⁻¹)
eigval :       -0.00    -0.00     0.00     0.00     0.00     0.00
eigval :       10.73    10.96    14.68    17.59    20.97    30.01
eigval :       30.79    32.24    33.74    33.88    34.99    36.02
eigval :       42.02    50.62    53.13    57.92    63.11    69.41
eigval :       80.22    80.64    81.40    85.85    92.79    94.10
eigval :      111.97   112.71   119.40   126.59   130.33   133.43
eigval :      138.28   142.99   154.16   155.43   168.32   169.13
eigval :      175.79   176.10   178.21   183.33   189.13   196.77
eigval :      205.10   206.72   215.34   215.76   218.85   219.44
eigval :      221.10   225.00   232.04   241.11   257.91   259.80
eigval :      268.57   276.69   277.41   277.82   281.55   283.93
eigval :      294.26   297.58   306.51   310.28   316.33   320.75
eigval :      322.33   329.45   330.19   331.77   334.03   343.44
eigval :      348.68   354.46   357.95   359.59   375.96   381.12
eigval :      381.59   400.74   401.68   402.64   403.62   412.29
eigval :      413.18   415.52   420.64   427.95   428.52   431.49
eigval :      438.93   439.08   445.27   447.89   451.97   452.12
eigval :      457.41   459.00   464.24   465.45   467.63   468.87
eigval :      507.54   510.81   516.74   518.56   520.39   529.01
eigval :      533.36   540.16   542.52   542.74   545.10   556.09
eigval :      557.48   580.20   580.64   584.10   588.47   591.57
eigval :      593.72   599.00   612.76   619.20   628.02   639.98
eigval :      640.40   647.23   657.25   666.29   671.54   674.21
eigval :      677.99   686.15   688.95   695.97   704.15   704.64
eigval :      707.52   707.94   716.94   722.33   723.88   736.25
eigval :      755.24   755.81   770.49   770.91   781.83   782.08
eigval :      787.22   816.13   819.39   822.65   822.77   831.87
eigval :      834.91   836.77   868.11   870.05   872.80   872.83
eigval :      873.25   876.65   876.81   877.95   879.78   880.13
eigval :      887.05   894.59   900.22   902.67   903.56   904.11
eigval :      904.77   905.19   905.98   911.74   911.94   912.27
eigval :      922.60   922.72   923.04   923.62   923.96   925.14
eigval :      930.72   936.70   960.16   960.54   960.86   960.88
eigval :      962.67   962.69   962.71   962.86   962.97   963.26
eigval :      963.87   963.94  1003.40  1009.01  1013.44  1022.26
eigval :     1032.77  1035.01  1036.03  1036.19  1036.27  1036.38
eigval :     1036.39  1036.50  1037.01  1039.83  1070.27  1070.53
eigval :     1071.54  1073.92  1075.71  1114.40  1123.54  1130.74
eigval :     1132.10  1133.13  1141.84  1142.86  1151.44  1151.90
eigval :     1169.38  1178.39  1179.00  1180.18  1180.65  1181.25
eigval :     1181.45  1202.22  1204.30  1215.10  1226.20  1228.06
eigval :     1228.32  1228.55  1229.28  1230.43  1232.36  1232.72
eigval :     1233.59  1234.73  1235.37  1236.18  1236.73  1245.77
eigval :     1250.30  1255.20  1255.53  1263.16  1278.40  1285.19
eigval :     1286.09  1293.19  1296.54  1298.02  1300.10  1301.46
eigval :     1302.66  1304.83  1306.06  1323.41  1339.94  1347.89
eigval :     1352.57  1356.77  1360.16  1360.38  1362.70  1362.96
eigval :     1363.37  1365.21  1402.02  1402.25  1403.37  1403.95
eigval :     1404.16  1405.08  1405.22  1405.88  1406.03  1413.23
eigval :     1414.55  1420.51  1423.84  1428.58  1428.60  1429.37
eigval :     1429.42  1429.54  1429.70  1434.29  1436.05  1458.28
eigval :     1459.47  1474.01  1474.34  1474.90  1475.40  1475.49
eigval :     1483.28  1488.26  1488.43  1490.87  1490.88  1492.08
eigval :     1492.20  1494.41  1494.57  1494.89  1494.91  1501.51
eigval :     1501.86  1502.22  1502.53  1502.80  1504.75  1504.80
eigval :     1505.72  1505.85  1514.76  1514.95  1514.99  1515.18
eigval :     1520.64  1520.69  1521.58  1521.60  1547.00  1575.10
eigval :     1576.84  1577.57  1577.71  1590.18  1591.69  1592.82
eigval :     1593.37  1601.57  1601.60  1607.57  1608.25  1616.08
eigval :     1616.55  1620.11  1621.81  2368.47  3020.08  3020.12
eigval :     3020.87  3021.20  3022.10  3022.11  3022.36  3022.37
eigval :     3025.91  3026.59  3027.63  3027.71  3029.25  3029.28
eigval :     3029.75  3030.00  3032.09  3032.53  3032.81  3032.91
eigval :     3035.81  3036.03  3037.01  3037.16  3037.83  3037.96
eigval :     3038.90  3039.51  3047.17  3047.47  3047.94  3047.96
eigval :     3051.24  3051.34  3051.53  3052.29  3073.46  3073.49
eigval :     3075.07  3075.20  3076.91  3078.49  3078.57  3078.59
eigval :     3079.32  3079.85  3082.57  3082.63  3086.25  3086.32
eigval :     3090.64  3091.23  3091.52  3093.03  3094.29  3095.14
eigval :     3095.18  3095.41  3098.33  3099.12  3099.93  3120.03
eigval :     3122.23  3125.09  3125.15

   temp. (K)  partition function   enthalpy   heat capacity  entropy
                                   cal/mol     cal/K/mol   cal/K/mol   J/K/mol
 298.15  VIB  0.112E+32            41220.043    255.732    254.508
         ROT  0.226E+09              888.752      2.981     41.212
         INT  0.254E+40            42108.795    258.713    295.720
         TR   0.301E+29             1481.254      4.968     46.525
         TOT                       43590.0493   263.6812   342.2451  1431.9535

       T/K    H(0)-H(T)+PV         H(T)/Eh          T*S/Eh         G(T)/Eh
   ------------------------------------------------------------------------
    298.15    0.694652E-01    0.121811E+01    0.162612E+00    0.105550E+01
   ------------------------------------------------------------------------

         :::::::::::::::::::::::::::::::::::::::::::::::::::::
         ::                  THERMODYNAMIC                  ::
         :::::::::::::::::::::::::::::::::::::::::::::::::::::
         :: total free energy        -198.958894309345 Eh   ::
         ::.................................................::
         :: total energy             -200.014395860440 Eh   ::
         :: zero point energy           1.148648073704 Eh   ::
         :: G(RRHO) w/o ZPVE           -0.093146522609 Eh   ::
         :: G(RRHO) contrib.            1.055501551095 Eh   ::
         :::::::::::::::::::::::::::::::::::::::::::::::::::::

           -------------------------------------------------
          | TOTAL ENERGY             -200.014395860440 Eh   |
          | TOTAL ENTHALPY           -198.796282621473 Eh   |
          | TOTAL FREE ENERGY        -198.958894309345 Eh   |
          | GRADIENT NORM               0.000102820775 Eh/α |
          | HOMO-LUMO GAP               2.063477556784 eV   |
           -------------------------------------------------

 * finished run on 2025/09/07 at 16:11:00.349
