   * xtb version 6.7.1 (edcfbbe) compiled by 'albert@albert-system' on 2024-07-22

   ID    Z sym.   atoms
    1    6 C      1-6, 8-18, 20, 21, 23, 25-40, 42-44, 46
    2   16 S      7, 41
    3    7 N      19, 22, 24, 45
    4    1 H      47-68

          program call               : xtb data2507/gas/BTCZPZ1/BTCZPZ1_gas_S0_finalOpt.xtbopt.xyz --gfn 2 --spinpol --tblite --uhf 2 --ohess vtight --parallel 40 --molden --ceasefiles --namespace data2507/gas/BTCZPZ1/BTCZPZ1_gas_T1_preOpt
 * total energy  :  -115.1080554 Eh     change       -0.7823587E-08 Eh
 * total energy  :  -115.1110896 Eh     change       -0.3034214E-02 Eh
 * total energy  :  -115.1116377 Eh     change       -0.5480778E-03 Eh
 * total energy  :  -115.1117452 Eh     change       -0.1074691E-03 Eh
 * total energy  :  -115.1118757 Eh     change       -0.1305546E-03 Eh
 * total energy  :  -115.1119285 Eh     change       -0.5277429E-04 Eh
 * total energy  :  -115.1119830 Eh     change       -0.5454205E-04 Eh
 * total energy  :  -115.1120205 Eh     change       -0.3742519E-04 Eh
 * total energy  :  -115.1120400 Eh     change       -0.1957787E-04 Eh
 * total energy  :  -115.1120570 Eh     change       -0.1699978E-04 Eh
 * total energy  :  -115.1121280 Eh     change       -0.9105131E-06 Eh
 * total energy  :  -115.1121290 Eh     change       -0.9958781E-06 Eh
 * total energy  :  -115.1121301 Eh     change       -0.1055209E-05 Eh
 * total energy  :  -115.1121311 Eh     change       -0.9793518E-06 Eh
 * total energy  :  -115.1121322 Eh     change       -0.1172892E-05 Eh
 * total energy  :  -115.1121333 Eh     change       -0.1058958E-05 Eh
 * total energy  :  -115.1121343 Eh     change       -0.1027711E-05 Eh
 * total energy  :  -115.1121353 Eh     change       -0.1021171E-05 Eh
 * total energy  :  -115.1121353 Eh     change       -0.5119460E-08 Eh
   *** GEOMETRY OPTIMIZATION CONVERGED AFTER 44 ITERATIONS ***

 final structure:
================
68
 xtb: 6.7.1 (edcfbbe)
C            6.50595542152952        3.81355567240996       -0.20765888517826
C            7.54036626833867        2.88177039600534       -0.19147350533226
C            7.27297349623267        1.53075189190481       -0.12164722378837
C            5.95152964558873        1.09212826859242       -0.06982654612636
C            4.92087720933240        2.04607070686659       -0.08474424200331
C            5.18840206458300        3.40326923703480       -0.15014827689943
S            3.32909539693877        1.32320589611163        0.02047448223198
C            4.03444610564045       -0.27350765865735        0.04386938953113
C            5.44236435358309       -0.25136605556472       -0.00706375523772
C            6.17647639350107       -1.44238517683767       -0.01808450510985
C            5.53735677684315       -2.66137299304974        0.00357709599362
C            4.14563552316985       -2.69671238754548        0.03470069887203
C            3.20056397159609       -3.77811840622177        0.02386016989918
C            3.33225156343608       -5.15990035594309        0.00561684499391
C            2.18671398987704       -5.93273745521061        0.02280771804351
C            0.92403881844552       -5.34652261295591        0.07490442807274
C            0.76703485334390       -3.97264036530155        0.09215006876408
C            1.91354373254075       -3.19325719078812        0.04837504257172
N            2.04236999187037       -1.81632554068392        0.07320977251915
C            0.99959265772555       -0.91228077738837        0.07141987761744
C           -0.05969268625028       -1.03569077532509       -0.80079425546593
N           -1.04809127285069       -0.14126999035036       -0.85883406057994
C           -0.97944201746062        0.92199562975880       -0.01153450628188
N           -2.01960007439023        1.82803122641352       -0.01728887522166
C           -1.88644935812922        3.20383961569264        0.04407314481603
C           -0.73753287759967        3.98120286708259        0.03583363866270
C           -0.89097019317210        5.35462309246499        0.08791890766620
C           -2.15245043397504        5.94346660463613        0.13851703274370
C           -3.30002583530061        5.17392410461835        0.11642528577371
C           -3.17163322124243        3.79276981162386        0.06248932743426
C           -4.11998509033150        2.71607532473470        0.00412506554866
C           -5.51219299108846        2.68868374460973        0.00414322708219
C           -6.15806208045489        1.47371998478837       -0.02638102099001
C           -5.42976295658926        0.27956838529779       -0.05862246287093
C           -5.94915159422667       -1.06139804646358       -0.05454849397385
C           -7.27438586422126       -1.49169887144642       -0.05385904478406
C           -7.55219043170405       -2.84232321132096       -0.03989085623934
C           -6.52454591279808       -3.78168670383295       -0.02945239640588
C           -5.20336259738172       -3.37927743749625       -0.03686016462743
C           -4.92546156585318       -2.02259816056071       -0.04628213753488
S           -3.32677596016326       -1.30811668132826       -0.08728300546156
C           -4.02070647566529        0.29400137881928       -0.07523668619910
C           -3.36632643208782        1.51928857019863       -0.04707998340850
C            0.07757360575194        1.04203432646605        0.86446416899110
N            1.06857261143800        0.15054685795761        0.91899913953341
C            3.38731245649411       -1.50232850352794        0.06771951437611
H            6.73572230620960        4.86695025928052       -0.26473840766864
H            8.56375787462500        3.22373006983307       -0.23401737265749
H            8.07925585129896        0.81311792364191       -0.10619651174693
H            4.37980421867664        4.11785473841448       -0.15850818237641
H            7.25358980638353       -1.39328325316853       -0.05578504655792
H            6.10071517903518       -3.58130233844444       -0.01346228623209
H            4.30977384261710       -5.61682241667653       -0.01578897662554
H            2.26779284567301       -7.00927186055300        0.00739595643711
H            0.04915155399249       -5.97818070685586        0.10714804141985
H           -0.21325967174092       -3.52524524763954        0.15322149651756
H           -0.07874345331012       -1.82220576538522       -1.53866566047638
H            0.24267520824676        3.53391008324983       -0.02636322999783
H           -0.01383263680171        5.98397704799053        0.08453482100469
H           -2.23070457397413        7.01940152107736        0.18283935644892
H           -4.27662900280322        5.63292058813279        0.13481887949344
H           -6.07041127397795        3.61131915783444        0.03650180977149
H           -7.23597737547645        1.42963949852690       -0.01489379534054
H           -8.07541855672557       -0.76813296645290       -0.06590907328685
H           -8.57853107288286       -3.17806631284835       -0.03776200033692
H           -6.76256192436793       -4.83473772630826       -0.01689426061450
H           -4.39981834132954       -4.09959023417354       -0.03321474797277
H            0.09273462135120        1.82337159918711        1.60788771909845

 projected vibrational frequencies (cm⁻¹)
eigval :       -0.00    -0.00    -0.00    -0.00     0.00     0.00
eigval :        9.12    12.12    21.29    30.41    40.63    44.41
eigval :       47.75    69.68    81.48    91.39   109.66   110.73
eigval :      113.56   117.78   143.46   143.97   147.04   160.23
eigval :      204.34   207.67   219.99   231.61   243.58   252.35
eigval :      256.71   267.56   276.00   289.64   316.62   322.87
eigval :      344.71   351.58   365.63   383.95   400.31   402.50
eigval :      403.01   409.07   425.57   435.70   437.65   464.33
eigval :      466.10   477.80   478.06   481.23   481.30   488.07
eigval :      493.85   506.24   524.38   535.56   541.68   551.29
eigval :      552.43   559.48   562.27   592.44   597.52   599.29
eigval :      606.87   612.98   633.90   635.66   660.69   663.12
eigval :      663.64   670.31   683.78   683.98   692.72   703.66
eigval :      703.73   707.62   716.21   768.25   770.37   770.97
eigval :      771.11   772.54   786.43   793.53   793.91   817.28
eigval :      817.32   833.43   834.81   868.80   868.90   875.40
eigval :      875.88   892.63   892.74   898.27   904.05   904.13
eigval :      905.26   905.61   918.34   918.52   920.73   920.78
eigval :      921.56   921.76   953.19   985.81  1032.76  1033.87
eigval :     1046.50  1049.07  1070.08  1070.69  1076.47  1076.54
eigval :     1091.30  1112.77  1117.99  1122.08  1126.38  1148.25
eigval :     1148.52  1160.74  1162.16  1164.51  1176.74  1178.40
eigval :     1179.88  1184.34  1184.63  1206.22  1219.53  1221.12
eigval :     1234.18  1236.08  1241.58  1269.43  1278.10  1290.27
eigval :     1290.51  1299.78  1307.45  1312.47  1341.49  1341.67
eigval :     1352.89  1353.33  1373.70  1375.87  1376.16  1378.34
eigval :     1385.18  1393.88  1404.61  1410.56  1411.90  1434.25
eigval :     1443.96  1444.38  1446.14  1457.52  1459.50  1471.64
eigval :     1473.62  1496.98  1550.00  1550.10  1559.15  1565.99
eigval :     1566.65  1567.91  1580.81  1582.19  1584.14  1584.90
eigval :     1593.79  1595.78  3079.12  3079.27  3082.04  3082.05
eigval :     3084.35  3084.64  3085.01  3085.13  3087.36  3087.55
eigval :     3090.89  3090.94  3093.00  3093.13  3094.43  3094.64
eigval :     3098.79  3099.02  3099.95  3100.20  3102.72  3102.96

   temp. (K)  partition function   enthalpy   heat capacity  entropy
                                   cal/mol     cal/K/mol   cal/K/mol   J/K/mol
 298.15  VIB  0.448E+15            19981.737    130.786    121.794
         ROT  0.770E+08              888.752      2.981     39.068
         INT  0.345E+23            20870.489    133.767    160.862
         TR   0.150E+29             1481.254      4.968     45.149
         TOT                       22351.7429   138.7353   206.0113   861.9515

       T/K    H(0)-H(T)+PV         H(T)/Eh          T*S/Eh         G(T)/Eh
   ------------------------------------------------------------------------
    298.15    0.356198E-01    0.527124E+00    0.978826E-01    0.429241E+00
   ------------------------------------------------------------------------

         :::::::::::::::::::::::::::::::::::::::::::::::::::::
         ::                  THERMODYNAMIC                  ::
         :::::::::::::::::::::::::::::::::::::::::::::::::::::
         :: total free energy        -114.682893968031 Eh   ::
         ::.................................................::
         :: total energy             -115.112135309477 Eh   ::
         :: zero point energy           0.491504209865 Eh   ::
         :: G(RRHO) w/o ZPVE           -0.062262868419 Eh   ::
         :: G(RRHO) contrib.            0.429241341446 Eh   ::
         :::::::::::::::::::::::::::::::::::::::::::::::::::::

           -------------------------------------------------
          | TOTAL ENERGY             -115.112135309477 Eh   |
          | TOTAL ENTHALPY           -114.585011329944 Eh   |
          | TOTAL FREE ENERGY        -114.682893968031 Eh   |
          | GRADIENT NORM               0.000068250997 Eh/α |
           -------------------------------------------------

 * finished run on 2025/08/21 at 18:36:45.122
