   * xtb version 6.7.1 (edcfbbe) compiled by 'albert@albert-system' on 2024-07-22

   ID    Z sym.   atoms
    1    6 C      1-6, 8-18, 20, 21, 23, 25-40, 42-44, 46
    2   16 S      7, 41
    3    7 N      19, 22, 24, 45
    4    1 H      47-68

          program call               : xtb data2507/gas/BTCZPZ1/BTCZPZ1.xyz --gfn 2 --ohess vtight --parallel 40 --molden --ceasefiles --namespace data2507/gas/BTCZPZ1/BTCZPZ1_gas_S0_preOpt
          :  Hamiltonian                  GFN2-xTB          :
 * total energy  :  -115.1047138 Eh     change       -0.8413863E-08 Eh
 * total energy  :  -115.1524565 Eh     change       -0.4774270E-01 Eh
 * total energy  :  -115.1730157 Eh     change       -0.2055922E-01 Eh
 * total energy  :  -115.1795358 Eh     change       -0.6520094E-02 Eh
 * total energy  :  -115.1824429 Eh     change       -0.2907113E-02 Eh
 * total energy  :  -115.1829626 Eh     change       -0.5197221E-03 Eh
 * total energy  :  -115.1832412 Eh     change       -0.2786000E-03 Eh
 * total energy  :  -115.1834366 Eh     change       -0.1953576E-03 Eh
 * total energy  :  -115.1836298 Eh     change       -0.1931656E-03 Eh
 * total energy  :  -115.1838572 Eh     change       -0.2274099E-03 Eh
 * total energy  :  -115.1847418 Eh     change       -0.1662423E-05 Eh
 * total energy  :  -115.1847436 Eh     change       -0.1798866E-05 Eh
 * total energy  :  -115.1847453 Eh     change       -0.1669180E-05 Eh
 * total energy  :  -115.1847461 Eh     change       -0.8639429E-06 Eh
 * total energy  :  -115.1847463 Eh     change       -0.1933875E-06 Eh
 * total energy  :  -115.1847466 Eh     change       -0.2657678E-06 Eh
 * total energy  :  -115.1847469 Eh     change       -0.2755425E-06 Eh
 * total energy  :  -115.1847470 Eh     change       -0.1309917E-06 Eh
 * total energy  :  -115.1847470 Eh     change       -0.8639702E-08 Eh
   *** GEOMETRY OPTIMIZATION CONVERGED AFTER 32 ITERATIONS ***

 final structure:
================
68
 xtb: 6.7.1 (edcfbbe)
C            6.86086463867033        3.42899765039472        0.28595104791039
C            7.81300608010721        2.43506171550733        0.08034674004843
C            7.43945106919675        1.11281203820060       -0.04217289356685
C            6.09298130401761        0.76659378669756        0.03869389086158
C            5.14786668807145        1.78405735113389        0.24587205294113
C            5.51905704261353        3.11184902126543        0.37111485213452
S            3.50936032317382        1.17331562281607        0.31906928817948
C            4.08373814857463       -0.46348332549897        0.05721192771658
C            5.48333417197312       -0.53468682946756       -0.05271404723669
C            6.12568199965484       -1.76996748055432       -0.19237737716074
C            5.40054502565486       -2.93828000006136       -0.18300965932222
C            4.01298663919675       -2.87814113321295       -0.06719324279806
C            3.00242168474064       -3.89299113312353        0.04046210454140
C            3.04083216589973       -5.28194620365148        0.02863682989055
C            1.85462930153896       -5.97443767619607        0.16470413998127
C            0.64190529905739       -5.30286665242178        0.30651315964869
C            0.57815512238953       -3.92231723602071        0.31918837519252
C            1.76832427860722       -3.22577761719481        0.19024029781825
N            1.98336523395320       -1.85641528673291        0.13879115708616
C            0.97992872235437       -0.90203374739024        0.07518083553565
C            0.99992444031944        0.13014914896781       -0.87074630866387
N            0.03203295994372        1.01895525563642       -0.93309423984585
C           -0.97989929360222        0.90216703155013       -0.07532460436172
N           -1.98338121238916        1.85649222478712       -0.13899584596676
C           -1.76840936162003        3.22586121565760       -0.19061820616625
C           -0.57828465171153        3.92244658145262       -0.31972814818388
C           -0.64210421557514        5.30299461665640       -0.30721860646941
C           -1.85485159783472        5.97452203935529       -0.16540736968416
C           -3.04100944531451        5.28198629486985       -0.02917395396260
C           -3.00252855428837        3.89303207144102       -0.04083576606866
C           -4.01303842679665        2.87814657870422        0.06700201632785
C           -5.40059038616491        2.93824091282229        0.18291360340492
C           -6.12567641426656        1.76989851818645        0.19247431290263
C           -5.48328564012507        0.53463122805339        0.05289564648733
C           -6.09288774521323       -0.76668455020681       -0.03831157786718
C           -7.43933456396097       -1.11295064903556        0.04273263601505
C           -7.81284518775178       -2.43523094139707       -0.07959183347759
C           -6.86068230962682       -3.42915009107064       -0.28517813877690
C           -5.51889717163189       -3.11195368993540       -0.37051922594136
C           -5.14775110982771       -1.78413150782770       -0.24546836529949
S           -3.50927787447315       -1.17332873732411       -0.31888991540541
C           -4.08369511613425        0.46347454376233       -0.05714072729145
C           -3.34155213511510        1.63628329720533       -0.01004454939553
C           -0.99986272363505       -0.12998059301293        0.87064397022011
N           -0.03198423517554       -1.01880123151830        0.93297479635228
C            3.34155130011577       -1.63625607602185        0.00994498827884
H            7.17257421972943        4.45830145394913        0.37956536908421
H            8.85666059996193        2.70439502939985        0.01633071745005
H            8.18236713985077        0.34611764748727       -0.20112831094240
H            4.77245135988955        3.87430399525905        0.53088284059572
H            7.20058151020427       -1.79500896777125       -0.27997091319933
H            5.89385772983158       -3.89522472670453       -0.25133499726924
H            3.97943948690340       -5.80264662384708       -0.08521794449972
H            1.86228464167580       -7.05426856776968        0.16162151990637
H           -0.26825103652835       -5.87440771379329        0.41088342805386
H           -0.35861803901095       -3.40095460211190        0.43612740698471
H            1.78602612308451        0.22344664014256       -1.60595459432871
H            0.35850731162624        3.40111749361905       -0.43666128807123
H            0.26801798365824        5.87456840852291       -0.41170984532642
H           -1.86256216702470        7.05435291180340       -0.16245767722149
H           -3.97963700254710        5.80265198700024        0.08467288923282
H           -5.89393753917377        3.89517291471256        0.25116717305356
H           -7.20056983360532        1.79490273838083        0.28015261306458
H           -8.18226720318796       -0.34626997464881        0.20167669123972
H           -8.85648138808045       -2.70460167099843       -0.01543566190132
H           -7.17235713074698       -4.45847852356506       -0.37863690815760
H           -4.77227492592829       -3.87439560900149       -0.53027176707297
H           -1.78592610817405       -0.22323559631184        1.60589819276110

          :  Hamiltonian                  GFN2-xTB          :
         :: gradient norm              0.000109925692 Eh/a0 ::
         :: HOMO-LUMO gap              2.093724799599 eV    ::
         :: SCC energy              -117.217853920798 Eh    ::
         :: -> dispersion             -0.107914010464 Eh    ::
         :: repulsion energy           2.033106921006 Eh    ::

    * Orbital Energies and Occupations

         #    Occupation            Energy/Eh            Energy/eV
      -------------------------------------------------------------
         1        2.0000           -0.7285628             -19.8252
       ...           ...                  ...                  ...
        95        2.0000           -0.4214534             -11.4683
        96        2.0000           -0.4213387             -11.4652
        97        2.0000           -0.4149072             -11.2902
        98        2.0000           -0.4137939             -11.2599
        99        2.0000           -0.4096696             -11.1477
       100        2.0000           -0.4096580             -11.1474
       101        2.0000           -0.3890047             -10.5854
       102        2.0000           -0.3863094             -10.5120
       103        2.0000           -0.3785158             -10.2999
       104        2.0000           -0.3784562             -10.2983
       105        2.0000           -0.3717705             -10.1164
       106        2.0000           -0.3696462             -10.0586
       107        2.0000           -0.3591871              -9.7740 (HOMO)
       108                         -0.2822441              -7.6803 (LUMO)
       109                         -0.2691857              -7.3249
       110                         -0.2636208              -7.1735
       111                         -0.2530970              -6.8871
       112                         -0.2355288              -6.4091
       113                         -0.2344469              -6.3796
       114                         -0.2302069              -6.2642
       115                         -0.2299961              -6.2585
       116                         -0.2243780              -6.1056
       117                         -0.2243051              -6.1037
       118                         -0.2077252              -5.6525
       ...                                ...                  ...
       216                          0.7448384              20.2681
      -------------------------------------------------------------
                  HL-Gap            0.0769430 Eh            2.0937 eV

     #   Z          covCN         q      C6AA      α(0)
     1   6 C        2.924    -0.030    28.761     8.795
     2   6 C        2.918    -0.034    28.848     8.808
     3   6 C        2.918    -0.032    28.799     8.800
     4   6 C        3.107    -0.001    27.917     8.657
     5   6 C        3.004     0.042    27.054     8.532
     6   6 C        2.936    -0.038    28.939     8.823
     7  16 S        2.206    -0.113   145.804    20.323
     8   6 C        2.991     0.018    27.603     8.618
     9   6 C        3.102    -0.006    28.031     8.676
    10   6 C        2.917    -0.042    29.052     8.839
    11   6 C        2.911    -0.037    28.931     8.820
    12   6 C        3.067    -0.015    28.315     8.725
    13   6 C        3.069    -0.013    28.268     8.718
    14   6 C        2.913    -0.032    28.794     8.799
    15   6 C        2.920    -0.038    28.937     8.821
    16   6 C        2.926    -0.030    28.754     8.794
    17   6 C        2.910    -0.043    29.079     8.842
    18   6 C        3.075     0.053    26.729     8.477
    19   7 N        2.805    -0.038    21.977     6.963
    20   6 C        2.899     0.137    25.005     8.199
    21   6 C        2.907     0.044    27.022     8.524
    22   7 N        1.847    -0.218    26.605     7.644
    23   6 C        2.899     0.137    25.005     8.199
    24   7 N        2.805    -0.038    21.977     6.963
    25   6 C        3.075     0.053    26.729     8.477
    26   6 C        2.910    -0.043    29.079     8.842
    27   6 C        2.926    -0.030    28.754     8.794
    28   6 C        2.920    -0.038    28.937     8.821
    29   6 C        2.913    -0.032    28.794     8.799
    30   6 C        3.069    -0.013    28.268     8.718
    31   6 C        3.067    -0.015    28.315     8.725
    32   6 C        2.911    -0.037    28.931     8.820
    33   6 C        2.917    -0.042    29.052     8.839
    34   6 C        3.102    -0.006    28.031     8.676
    35   6 C        3.107    -0.001    27.917     8.657
    36   6 C        2.918    -0.032    28.799     8.800
    37   6 C        2.918    -0.034    28.848     8.808
    38   6 C        2.924    -0.030    28.761     8.795
    39   6 C        2.936    -0.038    28.939     8.823
    40   6 C        3.004     0.042    27.054     8.532
    41  16 S        2.206    -0.113   145.804    20.323
    42   6 C        2.991     0.018    27.603     8.618
    43   6 C        3.078     0.038    27.070     8.530
    44   6 C        2.907     0.044    27.022     8.524
    45   7 N        1.847    -0.218    26.604     7.644
    46   6 C        3.078     0.038    27.070     8.530
    47   1 H        0.926     0.037     2.491     2.468
    48   1 H        0.926     0.035     2.515     2.480
    49   1 H        0.926     0.037     2.487     2.466
    50   1 H        0.926     0.040     2.452     2.449
    51   1 H        0.926     0.038     2.476     2.461
    52   1 H        0.926     0.039     2.461     2.453
    53   1 H        0.926     0.035     2.521     2.483
    54   1 H        0.926     0.033     2.546     2.495
    55   1 H        0.926     0.035     2.513     2.479
    56   1 H        0.926     0.046     2.365     2.405
    57   1 H        0.926     0.056     2.245     2.343
    58   1 H        0.926     0.046     2.365     2.405
    59   1 H        0.926     0.035     2.513     2.479
    60   1 H        0.926     0.033     2.546     2.495
    61   1 H        0.926     0.035     2.521     2.483
    62   1 H        0.926     0.039     2.461     2.453
    63   1 H        0.926     0.038     2.476     2.461
    64   1 H        0.926     0.037     2.487     2.466
    65   1 H        0.926     0.035     2.515     2.480
    66   1 H        0.926     0.037     2.491     2.468
    67   1 H        0.926     0.040     2.452     2.449
    68   1 H        0.926     0.056     2.245     2.343

molecular dipole:
                 x           y           z       tot (Debye)
 q only:       -0.000       0.000      -0.000
   full:       -0.000       0.000       0.000       0.000

 projected vibrational frequencies (cm⁻¹)
eigval :       -0.00    -0.00    -0.00     0.00     0.00     0.00
eigval :        8.14    10.82    23.06    33.88    34.52    41.06
eigval :       42.94    79.05    82.48   101.99   105.88   114.41
eigval :      116.74   134.48   139.59   144.83   152.08   163.51
eigval :      201.03   210.45   224.25   230.74   238.39   257.53
eigval :      258.56   265.48   273.92   298.29   318.84   322.38
eigval :      355.59   359.01   383.70   399.72   401.84   403.86
eigval :      408.19   412.98   424.04   436.60   438.03   465.10
eigval :      471.37   480.00   480.08   482.82   484.42   486.82
eigval :      494.00   499.50   529.19   535.79   542.56   544.73
eigval :      553.11   563.18   591.06   597.51   598.58   601.71
eigval :      609.27   631.89   639.67   661.99   662.54   664.07
eigval :      670.99   684.42   684.46   699.82   704.78   705.31
eigval :      710.09   721.19   741.38   772.22   772.45   775.37
eigval :      775.85   776.37   800.93   819.72   819.72   832.30
eigval :      833.05   856.95   870.18   870.18   872.22   872.24
eigval :      895.48   895.48   903.99   904.06   904.08   905.49
eigval :      905.50   911.97   919.95   922.32   922.32   922.81
eigval :      922.85   940.73   966.91  1025.86  1035.12  1040.43
eigval :     1047.69  1048.89  1069.97  1070.03  1077.14  1077.16
eigval :     1120.62  1120.76  1128.87  1129.14  1149.71  1149.88
eigval :     1162.64  1162.95  1179.09  1179.19  1179.88  1181.12
eigval :     1187.80  1192.29  1219.95  1224.90  1225.40  1236.62
eigval :     1238.97  1239.25  1267.24  1277.49  1289.46  1293.95
eigval :     1297.32  1315.36  1325.35  1340.18  1340.19  1355.69
eigval :     1357.08  1376.27  1376.72  1381.03  1382.30  1394.04
eigval :     1397.46  1407.74  1414.34  1417.08  1436.97  1443.21
eigval :     1456.47  1457.83  1460.56  1460.59  1480.50  1481.29
eigval :     1504.33  1556.89  1557.21  1566.05  1568.78  1568.79
eigval :     1579.74  1580.71  1586.29  1586.79  1591.57  1591.78
eigval :     1606.26  1607.11  3071.10  3072.84  3079.77  3079.77
eigval :     3081.37  3081.37  3087.09  3087.10  3087.57  3087.58
eigval :     3092.30  3092.31  3095.28  3095.35  3095.91  3096.03
eigval :     3101.38  3101.40  3103.89  3104.01  3106.09  3106.15

   temp. (K)  partition function   enthalpy   heat capacity  entropy
                                   cal/mol     cal/K/mol   cal/K/mol   J/K/mol
 298.15  VIB  0.392E+15            19765.927    129.284    120.325
         ROT  0.781E+08              888.752      2.981     39.097
         INT  0.306E+23            20654.680    132.265    159.422
         TR   0.150E+29             1481.254      4.968     45.149
         TOT                       22135.9336   137.2330   204.5712   855.9257

       T/K    H(0)-H(T)+PV         H(T)/Eh          T*S/Eh         G(T)/Eh
   ------------------------------------------------------------------------
    298.15    0.352759E-01    0.529987E+00    0.971984E-01    0.432788E+00
   ------------------------------------------------------------------------

         :::::::::::::::::::::::::::::::::::::::::::::::::::::
         ::                  THERMODYNAMIC                  ::
         :::::::::::::::::::::::::::::::::::::::::::::::::::::
         :: total free energy        -114.751958502345 Eh   ::
         ::.................................................::
         :: total energy             -115.184746999792 Eh   ::
         :: zero point energy           0.494711000967 Eh   ::
         :: G(RRHO) w/o ZPVE           -0.061922503520 Eh   ::
         :: G(RRHO) contrib.            0.432788497447 Eh   ::
         :::::::::::::::::::::::::::::::::::::::::::::::::::::

           -------------------------------------------------
          | TOTAL ENERGY             -115.184746999792 Eh   |
          | TOTAL ENTHALPY           -114.654760143274 Eh   |
          | TOTAL FREE ENERGY        -114.751958502345 Eh   |
          | GRADIENT NORM               0.000109900903 Eh/α |
          | HOMO-LUMO GAP               2.093725293263 eV   |
           -------------------------------------------------

 * finished run on 2025/08/21 at 18:32:23.588
