   * xtb version 6.7.1 (edcfbbe) compiled by 'albert@albert-system' on 2024-07-22

   ID    Z sym.   atoms
    1    6 C      1-6, 8-18, 20, 21, 23, 25-40, 42-44, 46
    2   16 S      7, 41
    3    7 N      19, 22, 24, 45
    4    1 H      47-68

          program call               : xtb data2507/gas/BTCZPZ1/BTCZPZ1_gas_S0_crest.xyz --gfn 2 --ohess vtight --parallel 40 --molden --ceasefiles --namespace data2507/gas/BTCZPZ1/BTCZPZ1_gas_S0_finalOpt
          :  Hamiltonian                  GFN2-xTB          :
 * total energy  :  -115.1853085 Eh     change       -0.2163901E-08 Eh
 * total energy  :  -115.1853119 Eh     change       -0.3357949E-05 Eh
 * total energy  :  -115.1853152 Eh     change       -0.3366738E-05 Eh
 * total energy  :  -115.1853186 Eh     change       -0.3356870E-05 Eh
 * total energy  :  -115.1853220 Eh     change       -0.3419791E-05 Eh
 * total energy  :  -115.1853254 Eh     change       -0.3414202E-05 Eh
 * total energy  :  -115.1853288 Eh     change       -0.3398029E-05 Eh
 * total energy  :  -115.1853322 Eh     change       -0.3380958E-05 Eh
 * total energy  :  -115.1853356 Eh     change       -0.3372685E-05 Eh
 * total energy  :  -115.1853390 Eh     change       -0.3402171E-05 Eh
 * total energy  :  -115.1857140 Eh     change       -0.7173442E-06 Eh
 * total energy  :  -115.1857147 Eh     change       -0.7299517E-06 Eh
 * total energy  :  -115.1857155 Eh     change       -0.7384120E-06 Eh
 * total energy  :  -115.1857162 Eh     change       -0.7487363E-06 Eh
 * total energy  :  -115.1857170 Eh     change       -0.7550691E-06 Eh
 * total energy  :  -115.1857177 Eh     change       -0.7626970E-06 Eh
 * total energy  :  -115.1857185 Eh     change       -0.7678162E-06 Eh
 * total energy  :  -115.1857193 Eh     change       -0.7742628E-06 Eh
 * total energy  :  -115.1857193 Eh     change       -0.5600029E-08 Eh
   *** GEOMETRY OPTIMIZATION CONVERGED AFTER 221 ITERATIONS ***

 final structure:
================
68
 xtb: 6.7.1 (edcfbbe)
C            6.49978125079665        3.83599076613555       -0.34546440033125
C            7.53823222393507        2.91225517870498       -0.27063903546552
C            7.27628922038550        1.56233904420494       -0.16235819742986
C            5.95710937852608        1.11727150635806       -0.12660051202402
C            4.92253764204933        2.06373253710834       -0.20218574839786
C            5.18332922536774        3.41940136882076       -0.31163363232043
S            3.33475009872394        1.33136750926831       -0.13746770677709
C            4.04895529260091       -0.26013358743089       -0.01892001283557
C            5.45497808527112       -0.22841041013358       -0.03046163127761
C            6.19738710739177       -1.41330544467185        0.02183389518057
C            5.56424110771204       -2.63300023078342        0.06019474770031
C            4.17091783201796       -2.67519623961573        0.06209282812249
C            3.23444989670766       -3.76390924802079        0.05938602930618
C            3.38365501325785       -5.14432869452012        0.09941879694429
C            2.24931908468426       -5.93060961200562        0.11849369173766
C            0.98044648416375       -5.35670118157020        0.11706645414179
C            0.80712681753881       -3.98557613708545        0.07576992277489
C            1.94344538343819       -3.19267459918613        0.02541174051721
N            2.06081567970887       -1.81138494499380        0.00662397309869
C            1.01010142255154       -0.90892237588981        0.04097293924279
C           -0.12112946182980       -1.04682131598331       -0.76812122890263
N           -1.09787709913604       -0.16615462181712       -0.72844361150919
C           -0.98943487752994        0.86045895909175        0.11548418667562
N           -2.02283616041304        1.78036343923075        0.12757106962751
C           -1.87458071587424        3.15928558624799        0.17779084386527
C           -0.72174514150474        3.92972959026672        0.20165047270951
C           -0.86563521522321        5.30487569746310        0.22126636868056
C           -2.12123959167711        5.90655515231278        0.20561297309391
C           -3.27066437628593        5.14493170233274        0.14310695909855
C           -3.15013572218604        3.76142457377348        0.12036161695733
C           -4.10865005402106        2.69689393878900        0.02142583268153
C           -5.50062417630162        2.69526050382525       -0.04773869859515
C           -6.16542871191331        1.49401326250666       -0.11262743351753
C           -5.45593378081394        0.28857992682818       -0.09204709999856
C           -5.99920379687156       -1.04421062260508       -0.11066286401249
C           -7.32960877682996       -1.44974227111141       -0.18402339909098
C           -7.63338242168231       -2.79515998110115       -0.18379089515046
C           -6.62626268014949       -3.75312609280668       -0.10936771244416
C           -5.29980327219257       -3.37561271751720       -0.03524893077386
C           -4.99661774837144       -2.02421932304974       -0.03723137836861
S           -3.38877772949733       -1.33767943174445        0.03414669999318
C           -4.05024951420397        0.27941665429776       -0.02649983541673
C           -3.37335291331927        1.49138811566264        0.01357064481322
C            0.13225975327859        0.98418958661982        0.94260611728414
N            1.11434320078390        0.11083455250540        0.89433590517093
C            3.40593286569364       -1.48853606072571        0.04344921016973
H            6.72479751213683        4.88849163303825       -0.43078676854137
H            8.56052815097353        3.25886797167509       -0.29856984364860
H            8.08575487578583        0.85046586778971       -0.10567751194818
H            4.37130636840702        4.12773849383508       -0.36945133579227
H            7.27480865575455       -1.35770448075245        0.01709403884258
H            6.13123959180606       -3.55060696681120        0.07994823315525
H            4.36765403258668       -5.58701525879765        0.12279308151955
H            2.34219116842698       -7.00585315164829        0.14806244999540
H            0.11113116390488       -5.99598970625707        0.15421930643612
H           -0.18237984257029       -3.55527614057739        0.10048137355392
H           -0.23348992519781       -1.85575703451414       -1.47512870202477
H            0.26016718238161        3.48244834546325        0.18434700371282
H            0.01767607685649        5.92536388695373        0.24398921284324
H           -2.19120911447750        6.98369419307901        0.22733198742532
H           -4.24418056852419        5.60910623363501        0.10429228103955
H           -6.04138667883001        3.62872672567880       -0.04430377385484
H           -7.24254684503588        1.46812510038821       -0.16762818786022
H           -8.11498472470758       -0.71143709815389       -0.24176235687316
H           -8.66417885672524       -3.11152077883850       -0.24224506355721
H           -6.88399572676951       -4.80159925390016       -0.11065215682288
H           -4.51190760188468       -4.11072349220591        0.02192400644028
H            0.23110747443632        1.77567616422117        1.67084333291837

          :  Hamiltonian                  GFN2-xTB          :
         :: gradient norm              0.000055600256 Eh/a0 ::
         :: HOMO-LUMO gap              2.037904654847 eV    ::
         :: SCC energy              -117.219359075812 Eh    ::
         :: -> dispersion             -0.108406546951 Eh    ::
         :: repulsion energy           2.033639797029 Eh    ::

    * Orbital Energies and Occupations

         #    Occupation            Energy/Eh            Energy/eV
      -------------------------------------------------------------
         1        2.0000           -0.7224296             -19.6583
       ...           ...                  ...                  ...
        95        2.0000           -0.4240628             -11.5393
        96        2.0000           -0.4226718             -11.5015
        97        2.0000           -0.4137812             -11.2596
        98        2.0000           -0.4137107             -11.2576
        99        2.0000           -0.4093776             -11.1397
       100        2.0000           -0.4093080             -11.1378
       101        2.0000           -0.3893775             -10.5955
       102        2.0000           -0.3877188             -10.5504
       103        2.0000           -0.3776345             -10.2760
       104        2.0000           -0.3775867             -10.2747
       105        2.0000           -0.3688374             -10.0366
       106        2.0000           -0.3666409              -9.9768
       107        2.0000           -0.3602327              -9.8024 (HOMO)
       108                         -0.2853411              -7.7645 (LUMO)
       109                         -0.2678220              -7.2878
       110                         -0.2619732              -7.1287
       111                         -0.2533549              -6.8941
       112                         -0.2333795              -6.3506
       113                         -0.2331359              -6.3440
       114                         -0.2279394              -6.2025
       115                         -0.2276258              -6.1940
       116                         -0.2250987              -6.1252
       117                         -0.2243658              -6.1053
       118                         -0.2062761              -5.6131
       ...                                ...                  ...
       216                          0.7461892              20.3048
      -------------------------------------------------------------
                  HL-Gap            0.0748916 Eh            2.0379 eV

     #   Z          covCN         q      C6AA      α(0)
     1   6 C        2.923    -0.031    28.772     8.796
     2   6 C        2.918    -0.035    28.865     8.810
     3   6 C        2.918    -0.032    28.801     8.800
     4   6 C        3.107    -0.002    27.926     8.658
     5   6 C        3.004     0.038    27.124     8.543
     6   6 C        2.936    -0.038    28.949     8.824
     7  16 S        2.227    -0.098   145.159    20.278
     8   6 C        2.991     0.025    27.432     8.592
     9   6 C        3.105    -0.006    28.028     8.675
    10   6 C        2.917    -0.042    29.041     8.837
    11   6 C        2.911    -0.038    28.944     8.822
    12   6 C        3.067    -0.016    28.346     8.730
    13   6 C        3.070    -0.011    28.226     8.711
    14   6 C        2.913    -0.031    28.780     8.797
    15   6 C        2.920    -0.038    28.938     8.821
    16   6 C        2.925    -0.031    28.767     8.796
    17   6 C        2.910    -0.049    29.214     8.863
    18   6 C        3.069     0.047    26.884     8.502
    19   7 N        2.805    -0.039    21.986     6.964
    20   6 C        2.896     0.136    25.028     8.202
    21   6 C        2.900     0.041    27.086     8.533
    22   7 N        1.886    -0.210    26.402     7.617
    23   6 C        2.895     0.136    25.023     8.202
    24   7 N        2.805    -0.037    21.962     6.960
    25   6 C        3.067     0.046    26.898     8.504
    26   6 C        2.910    -0.049    29.216     8.863
    27   6 C        2.924    -0.031    28.768     8.796
    28   6 C        2.920    -0.037    28.932     8.821
    29   6 C        2.913    -0.031    28.780     8.797
    30   6 C        3.069    -0.011    28.220     8.711
    31   6 C        3.068    -0.016    28.343     8.730
    32   6 C        2.911    -0.038    28.949     8.823
    33   6 C        2.918    -0.042    29.034     8.836
    34   6 C        3.107    -0.006    28.025     8.674
    35   6 C        3.107    -0.002    27.933     8.659
    36   6 C        2.918    -0.032    28.802     8.801
    37   6 C        2.918    -0.035    28.869     8.811
    38   6 C        2.923    -0.031    28.772     8.796
    39   6 C        2.936    -0.038    28.950     8.824
    40   6 C        3.004     0.038    27.140     8.546
    41  16 S        2.243    -0.096   145.053    20.271
    42   6 C        2.990     0.025    27.427     8.591
    43   6 C        3.074     0.045    26.925     8.508
    44   6 C        2.901     0.040    27.092     8.534
    45   7 N        1.870    -0.211    26.440     7.622
    46   6 C        3.079     0.045    26.907     8.504
    47   1 H        0.926     0.035     2.511     2.478
    48   1 H        0.926     0.034     2.533     2.489
    49   1 H        0.926     0.036     2.504     2.474
    50   1 H        0.926     0.038     2.479     2.462
    51   1 H        0.926     0.038     2.481     2.463
    52   1 H        0.926     0.038     2.477     2.461
    53   1 H        0.926     0.036     2.501     2.473
    54   1 H        0.926     0.034     2.534     2.489
    55   1 H        0.926     0.035     2.513     2.479
    56   1 H        0.926     0.033     2.550     2.497
    57   1 H        0.926     0.057     2.230     2.335
    58   1 H        0.926     0.034     2.533     2.489
    59   1 H        0.926     0.035     2.511     2.478
    60   1 H        0.926     0.034     2.531     2.488
    61   1 H        0.926     0.036     2.498     2.472
    62   1 H        0.926     0.038     2.477     2.461
    63   1 H        0.926     0.038     2.479     2.462
    64   1 H        0.926     0.036     2.508     2.477
    65   1 H        0.926     0.033     2.537     2.491
    66   1 H        0.926     0.035     2.514     2.479
    67   1 H        0.926     0.038     2.480     2.463
    68   1 H        0.926     0.057     2.230     2.335

molecular dipole:
                 x           y           z       tot (Debye)
 q only:        0.001       0.027      -0.002
   full:        0.008       0.039      -0.011       0.103

 projected vibrational frequencies (cm⁻¹)
eigval :       -0.00    -0.00    -0.00    -0.00    -0.00     0.00
eigval :        8.63    11.92    21.31    30.94    43.14    44.10
eigval :       47.38    72.07    80.90    94.24   109.76   111.46
eigval :      112.77   124.75   144.13   147.20   149.50   167.11
eigval :      203.14   209.76   221.74   233.12   243.65   255.17
eigval :      257.11   269.19   281.58   289.67   318.39   323.98
eigval :      352.92   360.69   385.17   397.11   401.76   403.99
eigval :      408.49   412.97   426.35   438.31   440.55   465.03
eigval :      466.87   479.82   480.57   484.34   485.77   486.00
eigval :      494.55   499.10   531.29   535.85   543.20   547.04
eigval :      556.97   563.97   586.49   598.34   599.15   601.61
eigval :      614.06   633.75   637.07   663.41   663.74   664.48
eigval :      671.96   685.21   685.38   700.53   704.81   705.42
eigval :      710.28   722.87   735.55   771.87   772.14   772.79
eigval :      776.07   776.33   801.62   819.89   820.12   834.66
eigval :      835.37   850.50   869.90   869.94   871.13   878.69
eigval :      895.22   895.36   898.15   904.91   904.97   905.97
eigval :      911.35   916.96   920.95   921.88   921.91   923.87
eigval :      927.18   938.80   968.43  1025.60  1035.90  1039.57
eigval :     1048.81  1050.25  1074.52  1075.95  1077.10  1077.18
eigval :     1121.24  1121.36  1130.68  1131.95  1152.30  1153.31
eigval :     1164.03  1164.43  1178.15  1179.63  1180.54  1181.50
eigval :     1187.75  1188.46  1220.35  1224.85  1229.19  1237.68
eigval :     1238.72  1242.15  1266.05  1276.28  1292.26  1294.40
eigval :     1304.59  1317.21  1324.06  1340.94  1341.33  1357.48
eigval :     1358.90  1376.58  1377.47  1382.99  1384.94  1388.82
eigval :     1398.24  1410.35  1414.62  1420.31  1437.60  1445.09
eigval :     1454.15  1455.25  1460.88  1461.06  1478.42  1479.62
eigval :     1503.65  1557.67  1558.66  1566.51  1568.82  1569.06
eigval :     1580.29  1581.96  1585.47  1585.87  1591.07  1591.63
eigval :     1605.44  1606.22  3075.17  3077.05  3079.53  3079.83
eigval :     3081.21  3081.61  3085.48  3085.74  3086.41  3087.22
eigval :     3090.93  3091.26  3093.49  3093.69  3094.14  3094.91
eigval :     3099.59  3099.74  3099.82  3100.33  3102.97  3103.33

   temp. (K)  partition function   enthalpy   heat capacity  entropy
                                   cal/mol     cal/K/mol   cal/K/mol   J/K/mol
 298.15  VIB  0.328E+15            19758.345    129.389    120.506
         ROT  0.774E+08              888.752      2.981     39.077
         INT  0.254E+23            20647.097    132.370    159.583
         TR   0.150E+29             1481.254      4.968     45.149
         TOT                       22128.3509   137.3384   204.7327   856.6017

       T/K    H(0)-H(T)+PV         H(T)/Eh          T*S/Eh         G(T)/Eh
   ------------------------------------------------------------------------
    298.15    0.352638E-01    0.530096E+00    0.972751E-01    0.432821E+00
   ------------------------------------------------------------------------

         :::::::::::::::::::::::::::::::::::::::::::::::::::::
         ::                  THERMODYNAMIC                  ::
         :::::::::::::::::::::::::::::::::::::::::::::::::::::
         :: total free energy        -114.752898151993 Eh   ::
         ::.................................................::
         :: total energy             -115.185719278784 Eh   ::
         :: zero point energy           0.494832474710 Eh   ::
         :: G(RRHO) w/o ZPVE           -0.062011347918 Eh   ::
         :: G(RRHO) contrib.            0.432821126791 Eh   ::
         :::::::::::::::::::::::::::::::::::::::::::::::::::::

           -------------------------------------------------
          | TOTAL ENERGY             -115.185719278784 Eh   |
          | TOTAL ENTHALPY           -114.655623032308 Eh   |
          | TOTAL FREE ENERGY        -114.752898151993 Eh   |
          | GRADIENT NORM               0.000055587781 Eh/α |
          | HOMO-LUMO GAP               2.037904490891 eV   |
           -------------------------------------------------

 * finished run on 2025/08/21 at 18:36:36.554
