   * xtb version 6.7.1 (edcfbbe) compiled by 'albert@albert-system' on 2024-07-22

   ID    Z sym.   atoms
    1    6 C      1-6, 8-18, 20, 21, 23, 25-40, 42-44, 46
    2   16 S      7, 41
    3    7 N      19, 22, 24, 45
    4    1 H      47-68

          program call               : xtb data2507/gas/BTCZPZ1/BTCZPZ1_gas_T1_crest.xyz --gfn 2 --spinpol --tblite --uhf 2 --ohess vtight --parallel 40 --molden --ceasefiles --namespace data2507/gas/BTCZPZ1/BTCZPZ1_gas_T1_finalOpt
 * total energy  :  -115.1118579 Eh     change        0.2681730E-08 Eh
 * total energy  :  -115.1120316 Eh     change       -0.1736379E-03 Eh
 * total energy  :  -115.1121030 Eh     change       -0.7139905E-04 Eh
 * total energy  :  -115.1121172 Eh     change       -0.1429227E-04 Eh
 * total energy  :  -115.1121288 Eh     change       -0.1152848E-04 Eh
 * total energy  :  -115.1121326 Eh     change       -0.3844240E-05 Eh
 * total energy  :  -115.1121362 Eh     change       -0.3539327E-05 Eh
 * total energy  :  -115.1121375 Eh     change       -0.1306807E-05 Eh
 * total energy  :  -115.1121384 Eh     change       -0.9106673E-06 Eh
 * total energy  :  -115.1121388 Eh     change       -0.4152421E-06 Eh
 * total energy  :  -115.1121402 Eh     change       -0.3750721E-06 Eh
 * total energy  :  -115.1121410 Eh     change       -0.8438824E-06 Eh
 * total energy  :  -115.1121413 Eh     change       -0.3138316E-06 Eh
 * total energy  :  -115.1121416 Eh     change       -0.2407722E-06 Eh
 * total energy  :  -115.1121418 Eh     change       -0.2326965E-06 Eh
 * total energy  :  -115.1121421 Eh     change       -0.2862964E-06 Eh
 * total energy  :  -115.1121425 Eh     change       -0.3902465E-06 Eh
 * total energy  :  -115.1121428 Eh     change       -0.3591314E-06 Eh
 * total energy  :  -115.1121429 Eh     change       -0.2186817E-07 Eh
   *** GEOMETRY OPTIMIZATION CONVERGED AFTER 22 ITERATIONS ***

 final structure:
================
68
 xtb: 6.7.1 (edcfbbe)
C            6.48546836812603        3.79711754663299       -0.13310900549386
C            7.52187128129341        2.86743700873848       -0.12295719998564
C            7.25722184376785        1.51506182075566       -0.07133694877142
C            5.93649496203976        1.07291023489540       -0.03185396096768
C            4.90389884587125        2.02471718806150       -0.04042952696771
C            5.16860076663023        3.38321719060219       -0.08768933556276
S            3.31334355498167        1.29730794516691        0.04966970098867
C            4.02177460502448       -0.29834239310330        0.05919172686444
C            5.42987870619882       -0.27226149095090        0.01334122396986
C            6.16718443229390       -1.46116019487057       -0.00834599597066
C            5.53111320295103       -2.68180550548181       -0.00103708357956
C            4.13940526342253       -2.72087369720442        0.02680693873486
C            3.19787007399057       -3.80508251547204        0.00504054201006
C            3.33432136854237       -5.18618897675718       -0.02559232026927
C            2.19148008475976       -5.96308564083079       -0.01593305368494
C            0.92684692543171       -5.38160328383423        0.04146420567142
C            0.76519283777871       -4.00847632544102        0.07100526631774
C            1.90893358474805       -3.22463174024826        0.03382059493801
N            2.03317527841785       -1.84752168668370        0.07020091110173
C            0.98823802759724       -0.94611120310811        0.07100120618461
C           -0.07246268037725       -1.06966866714207       -0.79981454497367
N           -1.05894655708041       -0.17324655262471       -0.85980650091157
C           -0.98319751359425        0.89574293586563       -0.02024852870400
N           -2.01286867107918        1.81378002474887       -0.03668008162538
C           -1.86113104195517        3.18849952753023       -0.00166086841998
C           -0.70143528338822        3.94911829466284       -0.02824302594001
C           -0.83567939817901        5.32529060182585       -0.00383650806115
C           -2.08884371267696        5.93231510013550        0.03815566505053
C           -3.24713892983213        5.17859683383848        0.03597572009151
C           -3.13820769442100        3.79493595602067        0.00982455605906
C           -4.10108850287950        2.72993879723731       -0.02350462776480
C           -5.49350755454573        2.71966753992309       -0.01604436057445
C           -6.15451357570860        1.51234592226116       -0.01984801450306
C           -5.44146365073684        0.30865014139951       -0.03323613449526
C           -5.97651605052893       -1.02575842547016       -0.00107355672756
C           -7.30672399182825       -1.44003725131955        0.01596029456538
C           -7.60052640128736       -2.78671463901820        0.05714609880548
C           -6.58405782907429       -3.73793918595379        0.07898706706647
C           -5.25821319192377       -3.35166877160772        0.05586176255574
C           -4.96416662423028       -1.99887538004102        0.01895977366746
S           -3.35731996257084       -1.30448556053400       -0.04404460854743
C           -4.03254479873534        0.30544089921994       -0.05753038666686
C           -3.36318079927604        1.52269269054426       -0.05526504556681
C            0.07283688027974        1.01431983186787        0.85675185685972
N            1.05853481774087        0.11739340668935        0.91749891143909
C            3.37750341815694       -1.52903326548723        0.06940967534067
H            6.71316310552127        4.85165229595933       -0.17571832174679
H            8.54469751714897        3.21219960135300       -0.15544438242946
H            8.06511943676293        0.79916428959790       -0.06009599793196
H            4.35836031810169        4.09599579595240       -0.09120604574778
H            7.24426025942813       -1.40883307054417       -0.04266984740667
H            6.09672977880298       -3.60016481741563       -0.02616195002368
H            4.31341732184032       -5.63954185944130       -0.05066541158988
H            2.27620803617802       -7.03915104771081       -0.04121337462711
H            0.05408159387353       -6.01645270486515        0.06809452434451
H           -0.21666617588314       -3.56527990339085        0.13682658293820
H           -0.09268299553470       -1.85683263169546       -1.53696510314990
H            0.27208641984831        3.48638652046466       -0.08302546148392
H            0.05000624131964        5.94227506555833       -0.02256981955785
H           -2.15209019893133        7.00992656313051        0.06008687303863
H           -4.21710984293904        5.65164167945081        0.04818274942118
H           -6.04033014302941        3.64950777000304        0.00148167625780
H           -7.23282443035983        1.48211162707874       -0.00184657607757
H           -8.09907734616089       -0.70716550199187       -0.00454367068756
H           -8.63075576762131       -3.10998833650294        0.07204068046425
H           -6.83447077556398       -4.78762840361071        0.11297426946276
H           -4.46338083956008       -4.08146878532069        0.06842776938284
H            0.09261913822375        1.80136109430060        1.59401362070375

 projected vibrational frequencies (cm⁻¹)
eigval :       -0.00    -0.00    -0.00     0.00     0.00     0.00
eigval :        9.79    12.28    21.79    30.42    40.54    44.53
eigval :       48.04    69.80    81.60    91.20   109.80   110.69
eigval :      113.77   117.76   143.68   144.35   147.15   160.23
eigval :      204.55   207.57   220.03   231.70   243.62   252.32
eigval :      256.68   267.59   275.77   289.73   316.76   323.21
eigval :      344.71   351.78   365.92   383.90   400.40   402.77
eigval :      403.04   409.26   425.73   435.49   437.64   464.28
eigval :      466.38   477.76   477.95   481.29   481.41   488.13
eigval :      494.16   506.27   524.05   535.58   542.16   551.38
eigval :      552.41   559.50   562.21   592.65   597.51   599.34
eigval :      606.70   612.46   633.86   635.66   660.63   663.16
eigval :      663.75   670.30   683.73   684.03   692.49   703.69
eigval :      703.74   707.58   716.34   768.88   770.64   771.36
eigval :      771.38   772.76   786.77   793.03   794.20   817.71
eigval :      817.74   833.36   834.76   869.25   869.29   875.80
eigval :      876.24   893.07   893.16   898.20   904.43   904.50
eigval :      905.67   906.03   918.25   918.39   921.06   921.18
eigval :      921.99   922.17   953.12   985.90  1032.69  1033.69
eigval :     1046.49  1049.12  1070.33  1070.72  1076.46  1076.49
eigval :     1092.02  1112.94  1118.07  1121.98  1126.18  1148.60
eigval :     1148.80  1161.06  1162.66  1164.73  1177.23  1178.76
eigval :     1179.51  1184.62  1185.47  1206.34  1219.82  1221.15
eigval :     1234.39  1236.25  1241.64  1270.08  1279.01  1290.40
eigval :     1290.72  1299.91  1307.60  1312.17  1341.54  1341.59
eigval :     1352.96  1353.31  1373.94  1375.80  1375.97  1378.25
eigval :     1385.05  1393.90  1403.80  1410.52  1411.84  1434.35
eigval :     1444.09  1444.27  1446.32  1457.73  1459.20  1471.00
eigval :     1473.50  1496.35  1549.98  1550.09  1558.98  1566.02
eigval :     1566.60  1567.95  1580.87  1582.47  1584.23  1585.37
eigval :     1593.69  1595.87  3079.25  3079.30  3082.09  3082.12
eigval :     3084.37  3084.94  3085.14  3085.19  3087.44  3087.58
eigval :     3090.93  3090.99  3093.13  3093.24  3094.58  3094.67
eigval :     3098.84  3099.03  3099.93  3100.14  3102.69  3102.79

   temp. (K)  partition function   enthalpy   heat capacity  entropy
                                   cal/mol     cal/K/mol   cal/K/mol   J/K/mol
 298.15  VIB  0.398E+15            19975.483    130.778    121.663
         ROT  0.770E+08              888.752      2.981     39.068
         INT  0.306E+23            20864.235    133.758    160.731
         TR   0.150E+29             1481.254      4.968     45.149
         TOT                       22345.4891   138.7266   205.8807   861.4047

       T/K    H(0)-H(T)+PV         H(T)/Eh          T*S/Eh         G(T)/Eh
   ------------------------------------------------------------------------
    298.15    0.356098E-01    0.527157E+00    0.978205E-01    0.429336E+00
   ------------------------------------------------------------------------

         :::::::::::::::::::::::::::::::::::::::::::::::::::::
         ::                  THERMODYNAMIC                  ::
         :::::::::::::::::::::::::::::::::::::::::::::::::::::
         :: total free energy        -114.682806369777 Eh   ::
         ::.................................................::
         :: total energy             -115.112142864223 Eh   ::
         :: zero point energy           0.491547237263 Eh   ::
         :: G(RRHO) w/o ZPVE           -0.062210742817 Eh   ::
         :: G(RRHO) contrib.            0.429336494446 Eh   ::
         :::::::::::::::::::::::::::::::::::::::::::::::::::::

           -------------------------------------------------
          | TOTAL ENERGY             -115.112142864223 Eh   |
          | TOTAL ENTHALPY           -114.584985823448 Eh   |
          | TOTAL FREE ENERGY        -114.682806369777 Eh   |
          | GRADIENT NORM               0.000058766300 Eh/α |
           -------------------------------------------------

 * finished run on 2025/08/21 at 18:40:36.344
