   * xtb version 6.7.1 (edcfbbe) compiled by 'albert@albert-system' on 2024-07-22

   ID    Z sym.   atoms
    1    6 C      1-6, 10-15, 17-28
    2   16 S      7
    3    8 O      8, 9
    4    7 N      16
    5    1 H      29-45

          program call               : xtb data250606/toluene/PSPCz/PSPCz.xyz --gfn 2 --gbsa toluene --ohess vtight --parallel 14 --molden --ceasefiles --namespace data250606/toluene/PSPCz/PSPCz_toluene_S0_preOpt
      * Solvation model:               GBSA
        Solvent                        toluene
        Solvent mass                       9.2140E+01 g/mol
          :  Hamiltonian                  GFN2-xTB          :
 * total energy  :   -74.3801558 Eh     change       -0.2352749E-09 Eh
 * total energy  :   -74.3882755 Eh     change       -0.8119749E-02 Eh
 * total energy  :   -74.3897926 Eh     change       -0.1517054E-02 Eh
 * total energy  :   -74.3900383 Eh     change       -0.2457375E-03 Eh
 * total energy  :   -74.3901816 Eh     change       -0.1432893E-03 Eh
 * total energy  :   -74.3902166 Eh     change       -0.3496717E-04 Eh
 * total energy  :   -74.3902450 Eh     change       -0.2837610E-04 Eh
 * total energy  :   -74.3902646 Eh     change       -0.1959456E-04 Eh
 * total energy  :   -74.3902660 Eh     change       -0.1416207E-05 Eh
 * total energy  :   -74.3902793 Eh     change       -0.1335027E-04 Eh
 * total energy  :   -74.3904544 Eh     change       -0.2976724E-05 Eh
 * total energy  :   -74.3904572 Eh     change       -0.2732571E-05 Eh
 * total energy  :   -74.3904603 Eh     change       -0.3105310E-05 Eh
 * total energy  :   -74.3904636 Eh     change       -0.3354310E-05 Eh
 * total energy  :   -74.3904667 Eh     change       -0.3107377E-05 Eh
 * total energy  :   -74.3904691 Eh     change       -0.2373582E-05 Eh
 * total energy  :   -74.3904706 Eh     change       -0.1504185E-05 Eh
 * total energy  :   -74.3904715 Eh     change       -0.8841033E-06 Eh
 * total energy  :   -74.3904715 Eh     change       -0.9992334E-08 Eh
   *** GEOMETRY OPTIMIZATION CONVERGED AFTER 44 ITERATIONS ***

 final structure:
================
45
 xtb: 6.7.1 (edcfbbe)
C            4.62272606214734        0.00443439015136        2.76664279345245
C            4.90736184092209       -0.93142414143425        1.78319982041490
C            4.53651936609090       -0.68785618187967        0.47098299166333
C            3.88960018071340        0.49441001109918        0.16476511916026
C            3.60056781784948        1.43471079821648        1.13433153004599
C            3.97272799511014        1.18625131540782        2.44594680512501
S            3.36511025548339        0.77043181634028       -1.52883605897622
O            2.97295999730890        2.15637567441457       -1.68052093284045
O            4.38525042388420        0.27619775711700       -2.42932219486759
C            1.89844980049935       -0.25491915958909       -1.69983477473492
C            1.94200555188101       -1.41879670962224       -2.44143784745437
C            0.79574975169918       -2.19452050398190       -2.53291341750786
C           -0.36710275660988       -1.79877095573709       -1.89717435871242
C           -0.40048775725739       -0.62282586935050       -1.14469876936240
C            0.75625500757211        0.14836121754929       -1.04031841394137
N           -1.57608053200813       -0.21755029282556       -0.51093594428622
C           -2.12798818249730        1.05189057410827       -0.56696991943225
C           -1.69864539808594        2.17556107861401       -1.25880274179200
C           -2.46536967892619        3.32257887526965       -1.16626561935331
C           -3.63725914839550        3.35682477888973       -0.41357304387365
C           -4.08252591123520        2.23438724548190        0.25642546164575
C           -3.32851374360188        1.07034868482407        0.17874452609584
C           -3.49806341738678       -0.25118957612927        0.71828885718654
C           -4.45886253729210       -0.82968299538958        1.53795943812033
C           -4.30571969742360       -2.15206462334037        1.90546783016534
C           -3.20305199292781       -2.88949324262014        1.47988111111921
C           -2.23519642148139       -2.33538249190477        0.66259083452091
C           -2.39835519983932       -1.01543151819040        0.26722524731173
H            4.91257873287256       -0.18720830021039        3.78880416241153
H            5.41794866419881       -1.84773447284888        2.03700886275342
H            4.75265895375899       -1.38810108242428       -0.32046221245795
H            3.10365721893777        2.34749830390408        0.84392677657199
H            3.75668153357082        1.91406787328236        3.21302504916223
H            2.85898085507856       -1.68736644164617       -2.94101397693870
H            0.80591821211238       -3.10300368028401       -3.11507150243903
H           -1.26638242396003       -2.38711650329613       -1.99663866172346
H            0.77094461464911        1.05602445419213       -0.45877766834761
H           -0.80093099127053        2.16152935001954       -1.85856165353470
H           -2.14751421036485        4.21105826850899       -1.69222944080489
H           -4.20646628966002        4.27342804391530       -0.36441398123807
H           -4.99925007940942        2.25553591255891        0.82624639191858
H           -5.30306241264853       -0.25176345480583        1.88270178435558
H           -5.04284531484635       -2.62164111357664        2.54009905963705
H           -3.09928260446284       -3.91642679741990        1.79820089800215
H           -1.37569513475184       -2.91163831536460        0.35630878378097

          :  Hamiltonian                  GFN2-xTB          :
         :: gradient norm              0.000067810609 Eh/a0 ::
         :: HOMO-LUMO gap              2.705392072515 eV    ::
         :: SCC energy               -75.652366773442 Eh    ::
         :: -> dispersion             -0.059347866799 Eh    ::
         :: -> Gsolv                  -0.038856038572 Eh    ::
         :: repulsion energy           1.261895254293 Eh    ::

    * Orbital Energies and Occupations

         #    Occupation            Energy/Eh            Energy/eV
      -------------------------------------------------------------
         1        2.0000           -0.7772706             -21.1506
       ...           ...                  ...                  ...
        56        2.0000           -0.4411242             -12.0036
        57        2.0000           -0.4379775             -11.9180
        58        2.0000           -0.4323790             -11.7656
        59        2.0000           -0.4291113             -11.6767
        60        2.0000           -0.4283210             -11.6552
        61        2.0000           -0.4277422             -11.6395
        62        2.0000           -0.4249144             -11.5625
        63        2.0000           -0.4215520             -11.4710
        64        2.0000           -0.4205492             -11.4437
        65        2.0000           -0.4095437             -11.1443
        66        2.0000           -0.4085046             -11.1160
        67        2.0000           -0.3820680             -10.3966
        68        2.0000           -0.3686308             -10.0310 (HOMO)
        69                         -0.2692094              -7.3256 (LUMO)
        70                         -0.2549253              -6.9369
        71                         -0.2519530              -6.8560
        72                         -0.2465248              -6.7083
        73                         -0.2455070              -6.6806
        74                         -0.2252853              -6.1303
        75                         -0.1966756              -5.3518
        76                         -0.1892464              -5.1497
        77                         -0.1434508              -3.9035
        78                         -0.1270802              -3.4580
        79                         -0.1211941              -3.2979
       ...                                ...                  ...
       134                          1.1644940              31.6875
      -------------------------------------------------------------
                  HL-Gap            0.0994213 Eh            2.7054 eV

     #   Z          covCN         q      C6AA      α(0)
     1   6 C        2.920    -0.021    28.519     8.757
     2   6 C        2.922    -0.021    28.523     8.758
     3   6 C        2.961    -0.026    28.653     8.780
     4   6 C        2.972    -0.072    29.791     8.953
     5   6 C        2.954    -0.024    28.601     8.772
     6   6 C        2.921    -0.021    28.531     8.759
     7  16 S        3.824     0.939   108.429    17.526
     8   8 O        0.860    -0.579    25.606     6.785
     9   8 O        0.860    -0.576    25.543     6.776
    10   6 C        2.971    -0.071    29.767     8.949
    11   6 C        2.950    -0.030    28.738     8.793
    12   6 C        2.921    -0.020    28.517     8.757
    13   6 C        2.922    -0.038    28.955     8.824
    14   6 C        2.913     0.074    26.347     8.417
    15   6 C        2.969    -0.043    29.074     8.845
    16   7 N        2.801    -0.038    21.981     6.963
    17   6 C        3.068     0.045    26.926     8.509
    18   6 C        2.909    -0.051    29.264     8.870
    19   6 C        2.924    -0.033    28.826     8.805
    20   6 C        2.919    -0.041    29.008     8.832
    21   6 C        2.912    -0.034    28.838     8.806
    22   6 C        3.066    -0.015    28.329     8.728
    23   6 C        3.066    -0.015    28.324     8.727
    24   6 C        2.912    -0.033    28.827     8.804
    25   6 C        2.920    -0.041    29.008     8.832
    26   6 C        2.924    -0.033    28.831     8.805
    27   6 C        2.910    -0.052    29.290     8.874
    28   6 C        3.069     0.045    26.926     8.508
    29   1 H        0.926     0.065     2.146     2.291
    30   1 H        0.926     0.064     2.157     2.297
    31   1 H        0.926     0.055     2.260     2.351
    32   1 H        0.926     0.057     2.238     2.339
    33   1 H        0.926     0.063     2.168     2.302
    34   1 H        0.926     0.062     2.172     2.305
    35   1 H        0.926     0.069     2.099     2.266
    36   1 H        0.926     0.070     2.089     2.260
    37   1 H        0.926     0.058     2.218     2.329
    38   1 H        0.926     0.028     2.609     2.526
    39   1 H        0.926     0.032     2.563     2.504
    40   1 H        0.926     0.032     2.556     2.500
    41   1 H        0.926     0.036     2.503     2.474
    42   1 H        0.926     0.035     2.520     2.482
    43   1 H        0.926     0.032     2.555     2.500
    44   1 H        0.926     0.035     2.516     2.480
    45   1 H        0.926     0.035     2.517     2.481

molecular dipole:
                 x           y           z       tot (Debye)
 q only:       -1.012      -1.924       2.056
   full:       -0.844      -1.809       1.875       6.962

 projected vibrational frequencies (cm⁻¹)
eigval :       -0.00    -0.00    -0.00     0.00     0.00     0.00
eigval :        3.98    18.45    27.25    39.63    44.04    60.96
eigval :       96.42   117.29   129.21   139.73   147.33   179.26
eigval :      223.84   231.78   234.70   272.24   279.33   291.63
eigval :      292.92   333.54   361.88   362.74   393.30   397.44
eigval :      423.50   423.86   435.55   438.97   486.52   516.18
eigval :      517.21   525.98   540.37   555.26   584.11   585.94
eigval :      605.64   609.53   656.11   663.12   666.05   673.72
eigval :      691.81   708.25   745.21   751.92   765.54   771.06
eigval :      782.15   798.28   867.89   871.76   878.14   887.08
eigval :      895.70   901.22   907.10   907.71   908.56   922.86
eigval :      924.97   927.43   931.27   932.54   941.65   966.91
eigval :      995.78  1010.92  1067.46  1069.49  1070.67  1073.29
eigval :     1099.83  1103.48  1108.65  1117.63  1123.15  1151.81
eigval :     1168.39  1174.57  1175.77  1176.07  1180.61  1189.13
eigval :     1192.87  1230.86  1235.19  1244.81  1257.46  1296.16
eigval :     1298.18  1314.21  1318.59  1351.99  1355.78  1358.03
eigval :     1414.99  1421.00  1426.51  1427.27  1440.86  1465.76
eigval :     1472.95  1485.24  1553.63  1572.58  1573.72  1586.77
eigval :     1590.83  1595.47  1597.03  1610.99  3072.64  3075.52
eigval :     3079.07  3081.00  3085.88  3086.81  3089.17  3091.18
eigval :     3092.68  3093.37  3096.30  3096.83  3101.97  3102.79
eigval :     3105.59  3109.47  3112.06

   temp. (K)  partition function   enthalpy   heat capacity  entropy
                                   cal/mol     cal/K/mol   cal/K/mol   J/K/mol
 298.15  VIB  0.107E+11            12580.732     80.750     78.009
         ROT  0.166E+08              888.752      2.981     36.016
         INT  0.177E+18            13469.484     83.731    114.025
         TR   0.727E+28             1481.254      4.968     43.705
         TOT                       14950.7380    88.6989   157.7293   659.9395

       T/K    H(0)-H(T)+PV         H(T)/Eh          T*S/Eh         G(T)/Eh
   ------------------------------------------------------------------------
    298.15    0.238255E-01    0.359838E+00    0.749423E-01    0.284895E+00
   ------------------------------------------------------------------------

         :::::::::::::::::::::::::::::::::::::::::::::::::::::
         ::                  THERMODYNAMIC                  ::
         :::::::::::::::::::::::::::::::::::::::::::::::::::::
         :: total free energy         -74.105576098407 Eh   ::
         ::.................................................::
         :: total energy              -74.390471518813 Eh   ::
         :: zero point energy           0.336012190217 Eh   ::
         :: G(RRHO) w/o ZPVE           -0.051116769811 Eh   ::
         :: G(RRHO) contrib.            0.284895420406 Eh   ::
         :::::::::::::::::::::::::::::::::::::::::::::::::::::

           -------------------------------------------------
          | TOTAL ENERGY              -74.390471518813 Eh   |
          | TOTAL ENTHALPY            -74.030633811091 Eh   |
          | TOTAL FREE ENERGY         -74.105576098407 Eh   |
          | GRADIENT NORM               0.000067783516 Eh/α |
          | HOMO-LUMO GAP               2.705392172293 eV   |
           -------------------------------------------------

 * finished run on 2025/06/06 at 20:18:52.167
