   * xtb version 6.7.1 (edcfbbe) compiled by 'albert@albert-system' on 2024-07-22

   ID    Z sym.   atoms
    1    6 C      1-6, 10-15, 17-28
    2   16 S      7
    3    8 O      8, 9
    4    7 N      16
    5    1 H      29-45

          program call               : xtb data250606/toluene/PSPCz/PSPCz_toluene_S0_finalOpt.xtbopt.xyz --gfn 2 --uhf 2 --gbsa toluene --ohess vtight --parallel 14 --molden --ceasefiles --namespace data250606/toluene/PSPCz/PSPCz_toluene_T1_preOpt
      * Solvation model:               GBSA
        Solvent                        toluene
        Solvent mass                       9.2140E+01 g/mol
          :  Hamiltonian                  GFN2-xTB          :
 * total energy  :   -74.2750180 Eh     change       -0.5522793E-08 Eh
 * total energy  :   -74.2772274 Eh     change       -0.2209405E-02 Eh
 * total energy  :   -74.2778008 Eh     change       -0.5733959E-03 Eh
 * total energy  :   -74.2778853 Eh     change       -0.8452278E-04 Eh
 * total energy  :   -74.2779285 Eh     change       -0.4321590E-04 Eh
 * total energy  :   -74.2779459 Eh     change       -0.1733116E-04 Eh
 * total energy  :   -74.2779672 Eh     change       -0.2130784E-04 Eh
 * total energy  :   -74.2779922 Eh     change       -0.2501235E-04 Eh
 * total energy  :   -74.2780248 Eh     change       -0.3267520E-04 Eh
 * total energy  :   -74.2780671 Eh     change       -0.4229529E-04 Eh
 * total energy  :   -74.2788640 Eh     change       -0.4065345E-06 Eh
 * total energy  :   -74.2788643 Eh     change       -0.3028548E-06 Eh
 * total energy  :   -74.2788647 Eh     change       -0.3670821E-06 Eh
 * total energy  :   -74.2788651 Eh     change       -0.4198868E-06 Eh
 * total energy  :   -74.2788654 Eh     change       -0.3226502E-06 Eh
 * total energy  :   -74.2788656 Eh     change       -0.2402425E-06 Eh
 * total energy  :   -74.2788658 Eh     change       -0.1421092E-06 Eh
 * total energy  :   -74.2788659 Eh     change       -0.1073647E-06 Eh
 * total energy  :   -74.2788660 Eh     change       -0.7993690E-07 Eh
   *** GEOMETRY OPTIMIZATION CONVERGED AFTER 88 ITERATIONS ***

 final structure:
================
45
 xtb: 6.7.1 (edcfbbe)
C            4.29726844017693        2.55561976254391       -1.42834433716852
C            3.43149974509467        2.80740652952108       -0.37032841376552
C            3.04915875820985        1.78047319633187        0.47083973533666
C            3.54767170729502        0.50237607661138        0.25395989445248
C            4.41037443345964        0.24017796223232       -0.80188290617347
C            4.78848752264219        1.27237602285728       -1.63869877721932
S            2.93616429567365       -0.84929901203357        1.23880012931022
O            3.91895525243337       -1.91696361618518        1.25654093240582
O            2.49625925591038       -0.33414803309677        2.52421833854618
C            1.52124663995134       -1.35936749569850        0.30865037209416
C            1.63802107490000       -2.34348611729660       -0.70087616524350
C            0.53763829972783       -2.63481059213918       -1.47942506445293
C           -0.66593588783973       -1.96975087397721       -1.30335835696885
C           -0.76811104541035       -0.95909511712868       -0.30093533530076
C            0.34015343238976       -0.66460878797044        0.48603248253253
N           -1.95023839270147       -0.26680314471055       -0.12228221822484
C           -2.04726675165299        1.09966238894378        0.06235096034319
C           -1.05461607923330        2.06553587275331        0.00411895145885
C           -1.42650392824453        3.39325394185409        0.21272693653352
C           -2.75500697591221        3.73272465057176        0.45478633302773
C           -3.76338876495320        2.77538069988656        0.46731008747299
C           -3.41821166961265        1.44435083471089        0.25307487521982
C           -4.16321591774332        0.22704077528171        0.16103148776579
C           -5.51502411677261       -0.08677797300982        0.25966625922426
C           -5.89687515801093       -1.41979227979467        0.15616058129189
C           -4.96331353213731       -2.43532090022206       -0.03408063013342
C           -3.60380122354101       -2.14563642247765       -0.14042316717902
C           -3.21675131105219       -0.81633233093674       -0.06900211315169
H            4.59263814472363        3.35948550088347       -2.08512534032330
H            3.05905052870214        3.80704711864770       -0.20340706330436
H            2.39141258172819        1.94383000259859        1.31063315370773
H            4.78079522141794       -0.76484874062124       -0.93063188932358
H            5.46684401448815        1.08021564695336       -2.45646929515507
H            2.57952988549056       -2.85397925877164       -0.81338501668929
H            0.61613151851596       -3.38384408548258       -2.25322659778736
H           -1.49656336798764       -2.14063248299460       -1.96699642719260
H            0.27321306499509        0.03950765388136        1.30077321748725
H           -0.02925282818999        1.80752721951951       -0.21030144418124
H           -0.67384530822946        4.16432129477567        0.17859042970278
H           -3.00994584369241        4.76921189947079        0.61953443110850
H           -4.79070988289675        3.05716870016888        0.63471282584212
H           -6.24853717438894        0.68722912404922        0.42020570568998
H           -6.94274747515813       -1.67665599514747        0.23732584679741
H           -5.29106821319612       -3.46108084670589       -0.08889631642831
H           -2.87933375936447       -2.93659376252991       -0.25229674345620

          :  Hamiltonian                  GFN2-xTB          :
         :: gradient norm              0.000033025132 Eh/a0 ::
         :: HOMO-LUMO gap              0.107839588717 eV    ::
         :: SCC energy               -75.518647269927 Eh    ::
         :: -> dispersion             -0.060991451092 Eh    ::
         :: -> Gsolv                  -0.042207424778 Eh    ::
         :: repulsion energy           1.239781305019 Eh    ::

    * Orbital Energies and Occupations

         #    Occupation            Energy/Eh            Energy/eV
      -------------------------------------------------------------
         1        2.0000           -0.7644326             -20.8013
       ...           ...                  ...                  ...
        57        2.0000           -0.4354798             -11.8500
        58        2.0000           -0.4341216             -11.8130
        59        2.0000           -0.4337177             -11.8021
        60        2.0000           -0.4309519             -11.7268
        61        2.0000           -0.4262334             -11.5984
        62        2.0000           -0.4231884             -11.5155
        63        2.0000           -0.4192120             -11.4073
        64        2.0000           -0.4171962             -11.3525
        65        2.0000           -0.4146253             -11.2825
        66        2.0000           -0.3999554             -10.8833
        67        1.9973           -0.3934626             -10.7067
        68        1.0027           -0.3821992             -10.4002
        69        0.8895           -0.2660939              -7.2408 (HOMO)
        70        0.1105           -0.2621308              -7.1329 (LUMO)
        71                         -0.2475541              -6.7363
        72                         -0.2420462              -6.5864
        73                         -0.2386100              -6.4929
        74                         -0.2343652              -6.3774
        75                         -0.2099227              -5.7123
        76                         -0.2026649              -5.5148
        77                         -0.1382204              -3.7612
        78                         -0.1165014              -3.1702
        79                         -0.1093774              -2.9763
        80                         -0.0985192              -2.6808
       ...                                ...                  ...
       134                          1.1556213              31.4461
      -------------------------------------------------------------
                  HL-Gap            0.0039631 Eh            0.1078 eV

     #   Z          covCN         q      C6AA      α(0)
     1   6 C        2.919    -0.034    28.853     8.809
     2   6 C        2.920    -0.027    28.670     8.781
     3   6 C        2.958    -0.034    28.836     8.808
     4   6 C        2.970    -0.081    30.020     8.987
     5   6 C        2.957    -0.032    28.797     8.802
     6   6 C        2.920    -0.026    28.655     8.778
     7  16 S        3.836     0.902   109.518    17.613
     8   8 O        0.860    -0.585    25.753     6.804
     9   8 O        0.860    -0.587    25.790     6.809
    10   6 C        2.964    -0.093    30.339     9.035
    11   6 C        2.943    -0.039    28.971     8.828
    12   6 C        2.913    -0.022    28.564     8.764
    13   6 C        2.914    -0.061    29.520     8.909
    14   6 C        2.912     0.053    26.818     8.492
    15   6 C        2.971    -0.039    28.954     8.826
    16   7 N        2.799     0.039    20.553     6.733
    17   6 C        3.062     0.040    27.038     8.527
    18   6 C        2.907    -0.032    28.788     8.798
    19   6 C        2.919    -0.042    29.037     8.836
    20   6 C        2.917    -0.017    28.443     8.746
    21   6 C        2.909    -0.031    28.782     8.797
    22   6 C        3.055    -0.011    28.232     8.714
    23   6 C        3.057    -0.011    28.225     8.713
    24   6 C        2.909    -0.031    28.774     8.796
    25   6 C        2.917    -0.017    28.439     8.745
    26   6 C        2.918    -0.041    29.031     8.836
    27   6 C        2.907    -0.032    28.787     8.798
    28   6 C        3.059     0.042    27.012     8.523
    29   1 H        0.926     0.051     2.310     2.377
    30   1 H        0.926     0.052     2.300     2.372
    31   1 H        0.926     0.044     2.402     2.424
    32   1 H        0.926     0.042     2.425     2.435
    33   1 H        0.926     0.050     2.321     2.383
    34   1 H        0.926     0.045     2.384     2.414
    35   1 H        0.926     0.059     2.211     2.325
    36   1 H        0.926     0.060     2.202     2.321
    37   1 H        0.926     0.056     2.245     2.343
    38   1 H        0.926     0.046     2.367     2.406
    39   1 H        0.926     0.045     2.380     2.412
    40   1 H        0.926     0.051     2.311     2.377
    41   1 H        0.926     0.050     2.317     2.380
    42   1 H        0.926     0.050     2.324     2.384
    43   1 H        0.926     0.050     2.316     2.380
    44   1 H        0.926     0.046     2.371     2.408
    45   1 H        0.926     0.053     2.279     2.361

molecular dipole:
                 x           y           z       tot (Debye)
 q only:       -3.839       1.438      -2.522
   full:       -3.564       1.306      -2.375      11.381

 projected vibrational frequencies (cm⁻¹)
eigval :       -0.00    -0.00     0.00     0.00     0.00     0.00
eigval :       14.62    23.06    35.82    44.72    45.21    68.06
eigval :       96.26   119.52   126.59   140.04   144.93   182.92
eigval :      200.43   214.70   245.10   262.01   279.78   293.83
eigval :      299.91   329.56   362.26   367.73   369.80   376.67
eigval :      403.84   406.94   416.57   431.05   455.06   483.46
eigval :      492.93   496.36   499.89   556.14   567.96   580.14
eigval :      583.20   596.72   624.55   638.84   652.14   657.48
eigval :      680.16   686.50   722.44   736.38   739.60   746.71
eigval :      749.07   755.77   790.31   829.13   834.23   865.88
eigval :      868.46   880.36   881.04   885.78   890.69   895.25
eigval :      898.17   901.45   917.49   922.47   924.72   940.29
eigval :      962.23   977.94  1013.82  1038.48  1047.80  1056.01
eigval :     1060.81  1063.47  1082.02  1091.99  1102.35  1105.78
eigval :     1135.27  1145.12  1165.64  1172.33  1172.95  1177.33
eigval :     1178.63  1191.00  1211.77  1224.54  1224.79  1240.65
eigval :     1258.98  1267.67  1279.41  1310.45  1327.99  1369.06
eigval :     1373.70  1386.18  1397.85  1405.91  1420.25  1424.12
eigval :     1425.84  1429.33  1437.55  1452.66  1480.35  1521.90
eigval :     1523.86  1529.60  1530.18  1570.40  3080.44  3082.88
eigval :     3083.11  3083.62  3083.90  3091.63  3093.31  3096.77
eigval :     3097.10  3098.93  3100.90  3101.72  3103.34  3108.39
eigval :     3109.29  3115.91  3119.78

   temp. (K)  partition function   enthalpy   heat capacity  entropy
                                   cal/mol     cal/K/mol   cal/K/mol   J/K/mol
 298.15  VIB  0.215E+10            12902.791     83.898     78.330
         ROT  0.156E+08              888.752      2.981     35.896
         INT  0.335E+17            13791.543     86.879    114.227
         TR   0.727E+28             1481.254      4.968     43.705
         TOT                       15272.7974    91.8471   157.9315   660.7853

       T/K    H(0)-H(T)+PV         H(T)/Eh          T*S/Eh         G(T)/Eh
   ------------------------------------------------------------------------
    298.15    0.243388E-01    0.354095E+00    0.750383E-01    0.279056E+00
   ------------------------------------------------------------------------

         :::::::::::::::::::::::::::::::::::::::::::::::::::::
         ::                  THERMODYNAMIC                  ::
         :::::::::::::::::::::::::::::::::::::::::::::::::::::
         :: total free energy         -73.999809532578 Eh   ::
         ::.................................................::
         :: total energy              -74.278865958492 Eh   ::
         :: zero point energy           0.329756015553 Eh   ::
         :: G(RRHO) w/o ZPVE           -0.050699589639 Eh   ::
         :: G(RRHO) contrib.            0.279056425914 Eh   ::
         :::::::::::::::::::::::::::::::::::::::::::::::::::::

           -------------------------------------------------
          | TOTAL ENERGY              -74.278865958492 Eh   |
          | TOTAL ENTHALPY            -73.924771191059 Eh   |
          | TOTAL FREE ENERGY         -73.999809532578 Eh   |
          | GRADIENT NORM               0.000033857847 Eh/α |
          | HOMO-LUMO GAP               0.107841281469 eV   |
           -------------------------------------------------

 * finished run on 2025/06/06 at 20:21:39.762
