   * xtb version 6.7.1 (edcfbbe) compiled by 'albert@albert-system' on 2024-07-22

   ID    Z sym.   atoms
    1    6 C      1-6, 10-15, 17-28
    2   16 S      7
    3    8 O      8, 9
    4    7 N      16
    5    1 H      29-45

          program call               : xtb data250606/toluene/PSPCz/PSPCz_toluene_S0_crest.xyz --gfn 2 --gbsa toluene --ohess vtight --parallel 14 --molden --ceasefiles --namespace data250606/toluene/PSPCz/PSPCz_toluene_S0_finalOpt
      * Solvation model:               GBSA
        Solvent                        toluene
        Solvent mass                       9.2140E+01 g/mol
          :  Hamiltonian                  GFN2-xTB          :
 * total energy  :   -74.3904749 Eh     change       -0.1652253E-08 Eh
 * total energy  :   -74.3905818 Eh     change       -0.1069662E-03 Eh
 * total energy  :   -74.3906474 Eh     change       -0.6552134E-04 Eh
 * total energy  :   -74.3906707 Eh     change       -0.2333295E-04 Eh
 * total energy  :   -74.3906887 Eh     change       -0.1804367E-04 Eh
 * total energy  :   -74.3907130 Eh     change       -0.2421858E-04 Eh
 * total energy  :   -74.3907349 Eh     change       -0.2198025E-04 Eh
 * total energy  :   -74.3907651 Eh     change       -0.3017955E-04 Eh
 * total energy  :   -74.3907972 Eh     change       -0.3204937E-04 Eh
 * total energy  :   -74.3908345 Eh     change       -0.3735703E-04 Eh
 * total energy  :   -74.3912243 Eh     change       -0.1535706E-05 Eh
 * total energy  :   -74.3912246 Eh     change       -0.3839570E-06 Eh
 * total energy  :   -74.3912256 Eh     change       -0.9550085E-06 Eh
 * total energy  :   -74.3912261 Eh     change       -0.5290370E-06 Eh
 * total energy  :   -74.3912265 Eh     change       -0.3537682E-06 Eh
 * total energy  :   -74.3912269 Eh     change       -0.4393735E-06 Eh
 * total energy  :   -74.3912273 Eh     change       -0.3474484E-06 Eh
 * total energy  :   -74.3912274 Eh     change       -0.1295495E-06 Eh
 * total energy  :   -74.3912275 Eh     change       -0.9683865E-07 Eh
   *** GEOMETRY OPTIMIZATION CONVERGED AFTER 75 ITERATIONS ***

 final structure:
================
45
 xtb: 6.7.1 (edcfbbe)
C            3.85002387761114        3.02568256458640       -0.73391713854708
C            3.33727095664514        2.85855626918021        0.54325769844450
C            3.12020415039253        1.58221720250654        1.03791440719459
C            3.42671149480528        0.49343368432465        0.24492251431039
C            3.93830256409191        0.64625530640802       -1.02996496986379
C            4.15385899490991        1.92387194120608       -1.52000468587040
S            3.08927914014228       -1.16669292393195        0.83799868382663
O            4.14948468017075       -2.05492167992966        0.41116852591991
O            2.81298009036132       -1.11152402233238        2.25833212657667
C            1.57705124998688       -1.60770208190664       -0.02832117236570
C            1.56182240311333       -2.64000026524649       -0.94484802152539
C            0.37996553355439       -2.91831499355993       -1.61592265466241
C           -0.75202924908465       -2.15886528318953       -1.38104307371701
C           -0.72713042208856       -1.11713030260340       -0.45160681512914
C            0.45614864315505       -0.84864479165681        0.23476066590104
N           -1.86270053011859       -0.34036110567733       -0.21767057393942
C           -1.89445616630941        1.04347541219920       -0.17390550963321
C           -0.88031987683068        1.95997440920698       -0.41266709910140
C           -1.19535784753718        3.30436837506271       -0.34152223191175
C           -2.48761690218919        3.73465039862033       -0.04854881751290
C           -3.50652994890773        2.82699679981863        0.16395467794476
C           -3.21414914632772        1.47070153960684        0.09658474734429
C           -4.01102538739300        0.28187634583353        0.23182529488112
C           -5.35297356182420        0.06121543247223        0.51464572739574
C           -5.80636262698490       -1.24060096613140        0.59750732558764
C           -4.93597913952336       -2.31385924140138        0.42050172302764
C           -3.59641833211480       -2.11875550587929        0.13911638193397
C           -3.14099470440590       -0.81292409755326        0.02774702145170
H            4.01734358517860        4.02044883921134       -1.11864337344461
H            3.10371567842363        3.71757758336659        1.15343712451074
H            2.73079166301536        1.41193128792776        2.02983443497558
H            4.17196487366396       -0.23265393521648       -1.61011493524927
H            4.55687334453886        2.05881825471829       -2.51198685266693
H            2.46506513159746       -3.20468047984636       -1.11202420574353
H            0.34663046388589       -3.72153482217216       -2.33571134535212
H           -1.66069611245842       -2.35622198177875       -1.92881992865768
H            0.50139959109635       -0.07352314749162        0.98291669151828
H            0.12083377598246        1.64013923827085       -0.65907589045959
H           -0.42235268057872        4.03652766125149       -0.52210136114802
H           -2.69356857136155        4.79369336362607        0.00105255312358
H           -4.51206924576565        3.15982024659089        0.37278680550486
H           -6.02315456541393        0.89315871807392        0.67035962129425
H           -6.84669233274282       -1.43419373159212        0.81376611232546
H           -5.31474115247872       -3.32156780093950        0.50920075988516
H           -2.92819051067212       -2.95869481613332        0.02646342012921

          :  Hamiltonian                  GFN2-xTB          :
         :: gradient norm              0.000056029306 Eh/a0 ::
         :: HOMO-LUMO gap              2.725236178911 eV    ::
         :: SCC energy               -75.653356971429 Eh    ::
         :: -> dispersion             -0.060993885787 Eh    ::
         :: -> Gsolv                  -0.038379990570 Eh    ::
         :: repulsion energy           1.262129480282 Eh    ::

    * Orbital Energies and Occupations

         #    Occupation            Energy/Eh            Energy/eV
      -------------------------------------------------------------
         1        2.0000           -0.7774839             -21.1564
       ...           ...                  ...                  ...
        56        2.0000           -0.4415879             -12.0162
        57        2.0000           -0.4376079             -11.9079
        58        2.0000           -0.4330275             -11.7833
        59        2.0000           -0.4296051             -11.6902
        60        2.0000           -0.4288542             -11.6697
        61        2.0000           -0.4281717             -11.6511
        62        2.0000           -0.4253705             -11.5749
        63        2.0000           -0.4218500             -11.4791
        64        2.0000           -0.4212362             -11.4624
        65        2.0000           -0.4098645             -11.1530
        66        2.0000           -0.4087831             -11.1236
        67        2.0000           -0.3823933             -10.4055
        68        2.0000           -0.3688677             -10.0374 (HOMO)
        69                         -0.2687171              -7.3122 (LUMO)
        70                         -0.2551472              -6.9429
        71                         -0.2530827              -6.8867
        72                         -0.2471292              -6.7247
        73                         -0.2457771              -6.6879
        74                         -0.2256095              -6.1391
        75                         -0.1968027              -5.3553
        76                         -0.1896203              -5.1598
        77                         -0.1432608              -3.8983
        78                         -0.1281395              -3.4869
        79                         -0.1216181              -3.3094
       ...                                ...                  ...
       134                          1.1674049              31.7667
      -------------------------------------------------------------
                  HL-Gap            0.1001506 Eh            2.7252 eV

     #   Z          covCN         q      C6AA      α(0)
     1   6 C        2.920    -0.020    28.514     8.757
     2   6 C        2.921    -0.020    28.519     8.757
     3   6 C        2.954    -0.024    28.591     8.770
     4   6 C        2.972    -0.072    29.794     8.953
     5   6 C        2.961    -0.026    28.658     8.781
     6   6 C        2.921    -0.021    28.521     8.758
     7  16 S        3.824     0.940   108.404    17.524
     8   8 O        0.860    -0.576    25.527     6.774
     9   8 O        0.860    -0.579    25.605     6.784
    10   6 C        2.971    -0.071    29.762     8.949
    11   6 C        2.948    -0.029    28.720     8.790
    12   6 C        2.921    -0.020    28.514     8.757
    13   6 C        2.922    -0.038    28.956     8.824
    14   6 C        2.913     0.074    26.343     8.416
    15   6 C        2.972    -0.044    29.098     8.848
    16   7 N        2.801    -0.038    21.976     6.963
    17   6 C        3.069     0.044    26.938     8.510
    18   6 C        2.910    -0.052    29.289     8.874
    19   6 C        2.924    -0.034    28.839     8.807
    20   6 C        2.920    -0.041    29.007     8.832
    21   6 C        2.912    -0.033    28.830     8.805
    22   6 C        3.066    -0.015    28.321     8.727
    23   6 C        3.066    -0.015    28.329     8.728
    24   6 C        2.912    -0.033    28.830     8.805
    25   6 C        2.920    -0.041    29.010     8.832
    26   6 C        2.924    -0.033    28.830     8.805
    27   6 C        2.910    -0.052    29.286     8.874
    28   6 C        3.069     0.045    26.917     8.507
    29   1 H        0.926     0.065     2.146     2.291
    30   1 H        0.926     0.063     2.164     2.300
    31   1 H        0.926     0.057     2.240     2.340
    32   1 H        0.926     0.054     2.273     2.357
    33   1 H        0.926     0.063     2.160     2.298
    34   1 H        0.926     0.062     2.175     2.306
    35   1 H        0.926     0.069     2.099     2.266
    36   1 H        0.926     0.070     2.087     2.259
    37   1 H        0.926     0.057     2.231     2.336
    38   1 H        0.926     0.027     2.631     2.537
    39   1 H        0.926     0.036     2.508     2.477
    40   1 H        0.926     0.033     2.540     2.492
    41   1 H        0.926     0.036     2.509     2.477
    42   1 H        0.926     0.035     2.516     2.480
    43   1 H        0.926     0.032     2.559     2.502
    44   1 H        0.926     0.034     2.530     2.487
    45   1 H        0.926     0.033     2.538     2.492

molecular dipole:
                 x           y           z       tot (Debye)
 q only:       -1.351       1.591      -2.071
   full:       -1.170       1.425      -1.949       6.820

 projected vibrational frequencies (cm⁻¹)
eigval :       -0.00    -0.00     0.00     0.00     0.00     0.00
eigval :       13.89    25.78    38.43    44.02    47.29    62.23
eigval :       95.95   116.86   128.10   138.01   146.51   181.82
eigval :      224.47   227.64   239.37   273.97   276.82   289.23
eigval :      294.66   333.27   359.21   364.75   391.89   398.91
eigval :      417.22   424.95   438.18   443.83   490.77   514.80
eigval :      519.43   530.47   543.19   551.08   584.32   586.12
eigval :      606.82   609.87   657.27   663.16   667.06   675.64
eigval :      692.22   711.19   746.38   753.26   765.60   769.43
eigval :      781.08   800.41   867.76   871.65   881.21   888.28
eigval :      896.10   900.70   906.23   908.01   909.12   922.44
eigval :      924.19   929.56   932.89   933.41   941.99   967.03
eigval :      995.83  1011.14  1067.14  1069.40  1070.91  1073.39
eigval :     1098.92  1102.80  1106.65  1117.54  1122.70  1150.19
eigval :     1167.06  1172.83  1175.69  1175.80  1179.82  1189.19
eigval :     1192.47  1230.38  1234.39  1244.00  1256.89  1295.64
eigval :     1297.74  1314.23  1318.17  1352.33  1355.82  1358.44
eigval :     1414.50  1420.93  1426.38  1426.64  1440.76  1466.30
eigval :     1472.92  1485.14  1553.75  1572.48  1573.83  1587.11
eigval :     1591.14  1594.89  1597.35  1611.40  3074.63  3075.87
eigval :     3080.11  3080.64  3086.07  3087.36  3088.73  3091.03
eigval :     3093.40  3094.36  3096.41  3096.81  3101.86  3103.36
eigval :     3105.16  3109.33  3109.67

   temp. (K)  partition function   enthalpy   heat capacity  entropy
                                   cal/mol     cal/K/mol   cal/K/mol   J/K/mol
 298.15  VIB  0.141E+10            12524.747     81.107     76.415
         ROT  0.154E+08              888.752      2.981     35.872
         INT  0.218E+17            13413.499     84.088    112.287
         TR   0.727E+28             1481.254      4.968     43.705
         TOT                       14894.7530    89.0561   155.9917   652.6692

       T/K    H(0)-H(T)+PV         H(T)/Eh          T*S/Eh         G(T)/Eh
   ------------------------------------------------------------------------
    298.15    0.237363E-01    0.359869E+00    0.741167E-01    0.285752E+00
   ------------------------------------------------------------------------

         :::::::::::::::::::::::::::::::::::::::::::::::::::::
         ::                  THERMODYNAMIC                  ::
         :::::::::::::::::::::::::::::::::::::::::::::::::::::
         :: total free energy         -74.105475116544 Eh   ::
         ::.................................................::
         :: total energy              -74.391227491911 Eh   ::
         :: zero point energy           0.336132752597 Eh   ::
         :: G(RRHO) w/o ZPVE           -0.050380377230 Eh   ::
         :: G(RRHO) contrib.            0.285752375366 Eh   ::
         :::::::::::::::::::::::::::::::::::::::::::::::::::::

           -------------------------------------------------
          | TOTAL ENERGY              -74.391227491911 Eh   |
          | TOTAL ENTHALPY            -74.031358439587 Eh   |
          | TOTAL FREE ENERGY         -74.105475116544 Eh   |
          | GRADIENT NORM               0.000056069868 Eh/α |
          | HOMO-LUMO GAP               2.725236979681 eV   |
           -------------------------------------------------

 * finished run on 2025/06/06 at 20:21:35.766
