   * xtb version 6.7.1 (edcfbbe) compiled by 'albert@albert-system' on 2024-07-22

   ID    Z sym.   atoms
    1    6 C      1-6, 10-15, 17-28
    2   16 S      7
    3    8 O      8, 9
    4    7 N      16
    5    1 H      29-45

          program call               : xtb data250606/toluene/PSPCz/PSPCz_toluene_T1_crest.xyz --gfn 2 --uhf 2 --gbsa toluene --ohess vtight --parallel 14 --molden --ceasefiles --namespace data250606/toluene/PSPCz/PSPCz_toluene_T1_finalOpt
      * Solvation model:               GBSA
        Solvent                        toluene
        Solvent mass                       9.2140E+01 g/mol
          :  Hamiltonian                  GFN2-xTB          :
 * total energy  :   -74.2781285 Eh     change       -0.1548649E-07 Eh
 * total energy  :   -74.2783343 Eh     change       -0.2058162E-03 Eh
 * total energy  :   -74.2784813 Eh     change       -0.1470110E-03 Eh
 * total energy  :   -74.2784962 Eh     change       -0.1489663E-04 Eh
 * total energy  :   -74.2785190 Eh     change       -0.2280025E-04 Eh
 * total energy  :   -74.2785292 Eh     change       -0.1026806E-04 Eh
 * total energy  :   -74.2785500 Eh     change       -0.2076455E-04 Eh
 * total energy  :   -74.2785772 Eh     change       -0.2717138E-04 Eh
 * total energy  :   -74.2785931 Eh     change       -0.1594653E-04 Eh
 * total energy  :   -74.2786223 Eh     change       -0.2920860E-04 Eh
 * total energy  :   -74.2788108 Eh     change       -0.1205431E-05 Eh
 * total energy  :   -74.2788119 Eh     change       -0.1135625E-05 Eh
 * total energy  :   -74.2788130 Eh     change       -0.1162539E-05 Eh
 * total energy  :   -74.2788143 Eh     change       -0.1244224E-05 Eh
 * total energy  :   -74.2788156 Eh     change       -0.1266933E-05 Eh
 * total energy  :   -74.2788168 Eh     change       -0.1263653E-05 Eh
 * total energy  :   -74.2788180 Eh     change       -0.1203539E-05 Eh
 * total energy  :   -74.2788192 Eh     change       -0.1165127E-05 Eh
 * total energy  :   -74.2788192 Eh     change       -0.4651616E-07 Eh
   *** GEOMETRY OPTIMIZATION CONVERGED AFTER 44 ITERATIONS ***

 final structure:
================
45
 xtb: 6.7.1 (edcfbbe)
C            4.37744928639221        2.47181821782087       -1.41043899260611
C            3.57898206634463        2.68195594346158       -0.29243839626280
C            3.18136541507853        1.61160539189751        0.48551398242435
C            3.59876535878062        0.33151295007427        0.14522123701184
C            4.39283795204117        0.11072116200289       -0.97203945696488
C            4.78495167210231        1.18570009981384       -1.74603901972966
S            2.97776457855850       -1.06292332772166        1.06292514738265
O            3.93615415771080       -2.15071865025042        0.99620546049857
O            2.58057344589590       -0.61226614439994        2.38597637426821
C            1.53058247678896       -1.49761631278585        0.14339026087216
C            1.58726778280385       -2.48128437478290       -0.87120937601597
C            0.45984784822055       -2.72721369351929       -1.62662370964350
C           -0.71265801022093       -2.01647331467995       -1.42259630703770
C           -0.75221495032417       -1.00419415901143       -0.41765834255460
C            0.38274360003617       -0.75598216956584        0.34668050293284
N           -1.90174484899993       -0.26500630528902       -0.21404246747725
C           -1.94146817770578        1.10518456852015       -0.03777675007994
C           -0.91349075704038        2.03093745040430       -0.12552093575767
C           -1.22945677716961        3.37420614435516        0.07694411241150
C           -2.53843595193558        3.76697382359006        0.34350321087609
C           -3.58225801808839        2.84932322725971        0.38984398318319
C           -3.29349196092011        1.50374988095546        0.18211786633047
C           -4.08622439899108        0.31523531191691        0.11986137402782
C           -5.44561102134351        0.05277207684852        0.25838361080416
C           -5.87918308583359       -1.26595417002312        0.17731412132493
C           -4.98990671702430       -2.31738539890390       -0.02961153908441
C           -3.62387250682074       -2.07963934223524       -0.17569174086058
C           -3.18618833260471       -0.76527115768702       -0.12517072536372
H            4.68533832560020        3.30934821377705       -2.01750098815712
H            3.27168935357851        3.68267971514521       -0.02781808246285
H            2.57465390792128        1.74057682892744        1.36863859700230
H            4.70101908078034       -0.89818228082856       -1.19777693995661
H            5.41020727071254        1.02514941618924       -2.61155620823394
H            2.50549910278736       -3.02806471893670       -1.00392923550194
H            0.49223637874039       -3.47706741655230       -2.40290761441983
H           -1.56516918493316       -2.15490877909323       -2.06594395660029
H            0.36019469999578       -0.05069481394049        1.16283270674798
H            0.09673943766768        1.73136431765677       -0.35720170917603
H           -0.44843605802335        4.11489873410029        0.01789788745268
H           -2.75001814302389        4.81422240164044        0.50148611669807
H           -4.59390464075018        3.17226693144287        0.57717035326158
H           -6.14514677398884        0.85476497840106        0.43248961441906
H           -6.93114669567556       -1.48289269580261        0.29012541588958
H           -5.35719309214751       -3.33044956927323       -0.06662773925342
H           -2.93234534066784       -2.89755486431955       -0.30141470471841

          :  Hamiltonian                  GFN2-xTB          :
         :: gradient norm              0.000086703488 Eh/a0 ::
         :: HOMO-LUMO gap              0.107440935347 eV    ::
         :: SCC energy               -75.518583194829 Eh    ::
         :: -> dispersion             -0.060921944431 Eh    ::
         :: -> Gsolv                  -0.042198927748 Eh    ::
         :: repulsion energy           1.239763954942 Eh    ::

    * Orbital Energies and Occupations

         #    Occupation            Energy/Eh            Energy/eV
      -------------------------------------------------------------
         1        2.0000           -0.7644884             -20.8028
       ...           ...                  ...                  ...
        57        2.0000           -0.4355772             -11.8527
        58        2.0000           -0.4339664             -11.8088
        59        2.0000           -0.4336311             -11.7997
        60        2.0000           -0.4310293             -11.7289
        61        2.0000           -0.4262419             -11.5986
        62        2.0000           -0.4231292             -11.5139
        63        2.0000           -0.4193904             -11.4122
        64        2.0000           -0.4173714             -11.3573
        65        2.0000           -0.4149406             -11.2911
        66        2.0000           -0.4000389             -10.8856
        67        1.9971           -0.3932994             -10.7022
        68        1.0029           -0.3822275             -10.4009
        69        0.8888           -0.2659289              -7.2363 (HOMO)
        70        0.1112           -0.2619804              -7.1288 (LUMO)
        71                         -0.2474481              -6.7334
        72                         -0.2419313              -6.5833
        73                         -0.2393135              -6.5121
        74                         -0.2345368              -6.3821
        75                         -0.2099205              -5.7122
        76                         -0.2025446              -5.5115
        77                         -0.1382794              -3.7628
        78                         -0.1169640              -3.1828
        79                         -0.1096730              -2.9844
        80                         -0.0982968              -2.6748
       ...                                ...                  ...
       134                          1.1553133              31.4377
      -------------------------------------------------------------
                  HL-Gap            0.0039485 Eh            0.1074 eV

     #   Z          covCN         q      C6AA      α(0)
     1   6 C        2.919    -0.034    28.848     8.808
     2   6 C        2.920    -0.027    28.667     8.780
     3   6 C        2.957    -0.033    28.826     8.806
     4   6 C        2.970    -0.081    30.013     8.986
     5   6 C        2.958    -0.032    28.795     8.802
     6   6 C        2.920    -0.026    28.656     8.778
     7  16 S        3.835     0.902   109.520    17.614
     8   8 O        0.860    -0.585    25.756     6.804
     9   8 O        0.860    -0.587    25.798     6.810
    10   6 C        2.964    -0.093    30.326     9.033
    11   6 C        2.943    -0.039    28.966     8.827
    12   6 C        2.913    -0.022    28.563     8.764
    13   6 C        2.914    -0.061    29.513     8.908
    14   6 C        2.912     0.053    26.821     8.492
    15   6 C        2.971    -0.038    28.952     8.826
    16   7 N        2.800     0.039    20.554     6.733
    17   6 C        3.062     0.040    27.037     8.527
    18   6 C        2.907    -0.032    28.786     8.798
    19   6 C        2.919    -0.042    29.043     8.837
    20   6 C        2.917    -0.017    28.441     8.745
    21   6 C        2.909    -0.032    28.787     8.798
    22   6 C        3.056    -0.011    28.236     8.714
    23   6 C        3.056    -0.011    28.229     8.713
    24   6 C        2.909    -0.031    28.778     8.796
    25   6 C        2.917    -0.017    28.437     8.745
    26   6 C        2.918    -0.042    29.037     8.836
    27   6 C        2.907    -0.032    28.787     8.798
    28   6 C        3.060     0.042    27.010     8.523
    29   1 H        0.926     0.051     2.307     2.375
    30   1 H        0.926     0.052     2.299     2.371
    31   1 H        0.926     0.044     2.397     2.421
    32   1 H        0.926     0.042     2.425     2.435
    33   1 H        0.926     0.050     2.318     2.381
    34   1 H        0.926     0.046     2.376     2.411
    35   1 H        0.926     0.059     2.210     2.325
    36   1 H        0.926     0.060     2.203     2.321
    37   1 H        0.926     0.055     2.253     2.347
    38   1 H        0.926     0.046     2.376     2.410
    39   1 H        0.926     0.045     2.379     2.412
    40   1 H        0.926     0.051     2.311     2.377
    41   1 H        0.926     0.050     2.319     2.381
    42   1 H        0.926     0.049     2.326     2.385
    43   1 H        0.926     0.050     2.317     2.380
    44   1 H        0.926     0.046     2.374     2.409
    45   1 H        0.926     0.053     2.283     2.363

molecular dipole:
                 x           y           z       tot (Debye)
 q only:       -3.814       1.689      -2.396
   full:       -3.541       1.540      -2.258      11.369

 projected vibrational frequencies (cm⁻¹)
eigval :       -0.00    -0.00     0.00     0.00     0.00     0.00
eigval :       11.78    24.14    39.34    44.37    49.21    68.30
eigval :       96.23   115.95   125.33   138.73   144.33   181.86
eigval :      202.11   214.82   244.40   258.44   279.76   293.55
eigval :      297.64   329.26   359.84   365.77   367.67   377.85
eigval :      402.55   405.71   418.06   430.81   455.39   482.08
eigval :      493.03   495.59   498.71   555.07   567.57   579.61
eigval :      582.71   596.61   624.74   639.77   650.97   657.34
eigval :      679.84   684.66   724.95   737.75   741.95   746.31
eigval :      748.49   755.72   793.39   828.25   832.07   867.14
eigval :      871.49   877.57   884.91   886.61   890.16   894.30
eigval :      898.00   900.62   919.70   920.79   924.34   940.22
eigval :      962.31   974.43  1011.21  1037.31  1047.66  1056.99
eigval :     1059.91  1062.93  1082.47  1091.32  1100.55  1104.78
eigval :     1134.06  1145.19  1165.82  1169.65  1172.35  1176.23
eigval :     1177.88  1191.49  1210.16  1224.31  1224.96  1239.36
eigval :     1258.00  1268.09  1278.57  1309.45  1327.57  1369.02
eigval :     1373.43  1386.48  1397.70  1405.66  1419.61  1422.69
eigval :     1425.65  1428.68  1437.69  1452.15  1479.51  1520.73
eigval :     1523.27  1529.31  1529.59  1569.86  3079.51  3082.61
eigval :     3083.18  3083.57  3084.45  3091.85  3093.26  3096.65
eigval :     3097.02  3098.85  3101.07  3101.31  3103.38  3108.07
eigval :     3109.67  3112.56  3118.58

   temp. (K)  partition function   enthalpy   heat capacity  entropy
                                   cal/mol     cal/K/mol   cal/K/mol   J/K/mol
 298.15  VIB  0.230E+10            12915.396     84.094     78.663
         ROT  0.156E+08              888.752      2.981     35.896
         INT  0.359E+17            13804.148     87.075    114.558
         TR   0.727E+28             1481.254      4.968     43.705
         TOT                       15285.4023    92.0427   158.2629   662.1718

       T/K    H(0)-H(T)+PV         H(T)/Eh          T*S/Eh         G(T)/Eh
   ------------------------------------------------------------------------
    298.15    0.243588E-01    0.354005E+00    0.751958E-01    0.278809E+00
   ------------------------------------------------------------------------

         :::::::::::::::::::::::::::::::::::::::::::::::::::::
         ::                  THERMODYNAMIC                  ::
         :::::::::::::::::::::::::::::::::::::::::::::::::::::
         :: total free energy         -74.000010243130 Eh   ::
         ::.................................................::
         :: total energy              -74.278819238591 Eh   ::
         :: zero point energy           0.329645949961 Eh   ::
         :: G(RRHO) w/o ZPVE           -0.050836954500 Eh   ::
         :: G(RRHO) contrib.            0.278808995461 Eh   ::
         :::::::::::::::::::::::::::::::::::::::::::::::::::::

           -------------------------------------------------
          | TOTAL ENERGY              -74.278819238591 Eh   |
          | TOTAL ENTHALPY            -73.924814449498 Eh   |
          | TOTAL FREE ENERGY         -74.000010243130 Eh   |
          | GRADIENT NORM               0.000086680555 Eh/α |
          | HOMO-LUMO GAP               0.107443739966 eV   |
           -------------------------------------------------

 * finished run on 2025/06/06 at 20:23:57.495
