   * xtb version 6.7.1 (edcfbbe) compiled by 'albert@albert-system' on 2024-07-22

   ID    Z sym.   atoms
    1    6 C      1-12, 14-16, 18-29, 31
    2    7 N      13, 17, 30, 32
    3    1 H      33-50

          program call               : xtb data2507/gas/Cbz-PYR/Cbz-PYR_gas_S0_finalOpt.xtbopt.xyz --gfn 2 --spinpol --tblite --uhf 2 --ohess vtight --parallel 40 --molden --ceasefiles --namespace data2507/gas/Cbz-PYR/Cbz-PYR_gas_T1_preOpt
 * total energy  :   -80.8015987 Eh     change       -0.6586390E-08 Eh
 * total energy  :   -80.8053469 Eh     change       -0.3748178E-02 Eh
 * total energy  :   -80.8064602 Eh     change       -0.1113272E-02 Eh
 * total energy  :   -80.8065671 Eh     change       -0.1069338E-03 Eh
 * total energy  :   -80.8066260 Eh     change       -0.5891431E-04 Eh
 * total energy  :   -80.8066451 Eh     change       -0.1913909E-04 Eh
 * total energy  :   -80.8066622 Eh     change       -0.1702959E-04 Eh
 * total energy  :   -80.8066767 Eh     change       -0.1451522E-04 Eh
 * total energy  :   -80.8066871 Eh     change       -0.1036510E-04 Eh
 * total energy  :   -80.8066989 Eh     change       -0.1182044E-04 Eh
 * total energy  :   -80.8067218 Eh     change       -0.3057708E-05 Eh
 * total energy  :   -80.8067242 Eh     change       -0.2354620E-05 Eh
 * total energy  :   -80.8067265 Eh     change       -0.2310325E-05 Eh
 * total energy  :   -80.8067287 Eh     change       -0.2182417E-05 Eh
 * total energy  :   -80.8067303 Eh     change       -0.1569926E-05 Eh
 * total energy  :   -80.8067311 Eh     change       -0.8719109E-06 Eh
 * total energy  :   -80.8067316 Eh     change       -0.4828279E-06 Eh
 * total energy  :   -80.8067319 Eh     change       -0.3198345E-06 Eh
 * total energy  :   -80.8067319 Eh     change       -0.9208918E-08 Eh
   *** GEOMETRY OPTIMIZATION CONVERGED AFTER 22 ITERATIONS ***

 final structure:
================
50
 xtb: 6.7.1 (edcfbbe)
C            4.00629069167872       -3.54988439774505       -0.18452229448566
C            2.71362430611933       -3.45670028141035        0.33025882845958
C            2.09959402083220       -2.23259593462516        0.51301270836979
C            2.80123491910054       -1.08651805438013        0.16315637076838
C            4.13527033996185       -1.17336744321737       -0.31567581269303
C            4.72876773966665       -2.41394542462727       -0.49832562383570
C            4.59513419484542        0.17388682692048       -0.48778775003329
C            5.79755018786127        0.73207881598667       -0.89603632977202
C            5.90893386047378        2.11006223002284       -0.93955022414227
C            4.84096037679870        2.93150613778534       -0.57806103474173
C            3.63202793500869        2.39980282250784       -0.17213398530091
C            3.51603549212873        1.01756405502164       -0.11966268735215
N            2.43527751779463        0.24313898085675        0.25587434369905
C            1.19206120567658        0.74209233793613        0.60316190634831
C           -0.00031543367587        0.14872712782939        0.20682061941977
C           -1.18993234479575        0.74724199961269        0.60393109787332
N           -2.43502522420359        0.25127671769879        0.25878678918800
C           -2.80586668045163       -1.07751786639736        0.17583649798747
C           -2.10859062365704       -2.22305879615122        0.53590024410791
C           -2.72685806645779       -3.44637685952171        0.36249433877860
C           -4.01923504958513       -3.53892932340333       -0.15313718888649
C           -4.73726289788455       -2.40300831961066       -0.47727364295521
C           -4.13955186383656       -1.16312118940048       -0.30403013612962
C           -4.59397993199800        0.18461752900932       -0.48729797071799
C           -5.79343639533347        0.74446753334103       -0.90182929864815
C           -5.89909549596248        2.12256415899676       -0.95621975815228
C           -4.82846647093849        2.94252688175025       -0.59930488010970
C           -3.62238444738839        2.40918110699563       -0.18708760696511
C           -3.51215216584868        1.02691744769475       -0.12402591056552
N           -1.15677351337961        1.94180397654297        1.30617076305662
C            0.00464611247270        2.47648169015846        1.56820663640918
N            1.16372059691790        1.93609765539489        1.30675450451916
H            4.45116557946701       -4.52408450171954       -0.32073433312511
H            2.18405927613068       -4.35872447507587        0.59767804457978
H            1.11291360951695       -2.17562261848011        0.94410884591435
H            5.73958261598384       -2.48564469174950       -0.87030868057113
H            6.62877186348718        0.10030786825175       -1.17075562121931
H            6.83604692135593        2.56158461663290       -1.25992326663212
H            4.95997267092890        4.00346931876672       -0.62430653756415
H            2.80284302220137        3.03144410797220        0.10606564516499
H           -0.00275238792122       -0.71054895278941       -0.44418518517265
H           -1.12225808625694       -2.16544041539078        0.96785748957033
H           -2.20106872923144       -4.34815082193709        0.63809414535750
H           -4.46755408190631       -4.51257714871472       -0.28182339456037
H           -5.74786703419610       -2.47424612410132       -0.84992068656426
H           -6.62680641316762        0.11402056132700       -1.17306217041294
H           -6.82386405183084        2.57529239234774       -1.28163379250499
H           -4.94315603337466        4.01456295757353       -0.65407597502702
H           -2.79114111024591        3.03953934436052        0.08783959902171
H            0.00689887670316        3.42810082694896        2.08324210464350

 projected vibrational frequencies (cm⁻¹)
eigval :       -0.00    -0.00    -0.00     0.00     0.00     0.00
eigval :       14.20    24.26    33.01    55.96    72.41    74.15
eigval :       99.50   103.90   135.22   135.42   147.15   177.23
eigval :      193.32   201.19   245.24   267.97   269.96   280.93
eigval :      303.65   327.89   340.79   369.03   381.74   390.77
eigval :      392.27   412.53   415.82   431.49   434.57   446.98
eigval :      512.00   512.67   528.26   529.66   532.00   538.53
eigval :      557.05   579.13   583.17   592.49   606.75   616.93
eigval :      620.76   664.97   666.20   691.69   700.66   702.63
eigval :      732.85   753.97   756.73   759.08   761.92   767.86
eigval :      770.67   841.04   856.87   858.67   859.59   870.10
eigval :      879.90   889.82   892.62   894.55   895.36   897.31
eigval :      897.72   904.99   910.91   912.23   912.45   916.55
eigval :      951.84   960.91  1000.68  1006.67  1034.90  1061.84
eigval :     1063.20  1063.84  1070.35  1089.44  1113.00  1133.20
eigval :     1136.20  1155.97  1170.58  1174.47  1175.06  1175.58
eigval :     1196.13  1220.70  1223.06  1224.39  1243.18  1245.40
eigval :     1269.54  1274.04  1287.54  1295.48  1295.92  1328.35
eigval :     1332.37  1332.93  1344.57  1366.24  1367.28  1394.37
eigval :     1399.07  1400.43  1412.73  1419.50  1443.60  1447.28
eigval :     1458.91  1459.78  1481.20  1484.09  1547.07  1547.49
eigval :     1556.12  1561.86  1565.57  1566.37  1583.01  1584.98
eigval :     3052.82  3079.87  3079.95  3081.53  3081.83  3086.20
eigval :     3086.48  3087.69  3088.21  3093.25  3093.51  3095.99
eigval :     3096.59  3099.54  3100.08  3100.48  3102.08  3105.60

   temp. (K)  partition function   enthalpy   heat capacity  entropy
                                   cal/mol     cal/K/mol   cal/K/mol   J/K/mol
 298.15  VIB  0.180E+10            13418.337     90.492     80.699
         ROT  0.225E+08              888.752      2.981     36.623
         INT  0.404E+17            14307.089     93.473    117.323
         TR   0.805E+28             1481.254      4.968     43.907
         TOT                       15788.3433    98.4411   161.2299   674.5859

       T/K    H(0)-H(T)+PV         H(T)/Eh          T*S/Eh         G(T)/Eh
   ------------------------------------------------------------------------
    298.15    0.251603E-01    0.397909E+00    0.766055E-01    0.321304E+00
   ------------------------------------------------------------------------

         :::::::::::::::::::::::::::::::::::::::::::::::::::::
         ::                  THERMODYNAMIC                  ::
         :::::::::::::::::::::::::::::::::::::::::::::::::::::
         :: total free energy         -80.485428287723 Eh   ::
         ::.................................................::
         :: total energy              -80.806731935051 Eh   ::
         :: zero point energy           0.372748847922 Eh   ::
         :: G(RRHO) w/o ZPVE           -0.051445200594 Eh   ::
         :: G(RRHO) contrib.            0.321303647328 Eh   ::
         :::::::::::::::::::::::::::::::::::::::::::::::::::::

           -------------------------------------------------
          | TOTAL ENERGY              -80.806731935051 Eh   |
          | TOTAL ENTHALPY            -80.408822760507 Eh   |
          | TOTAL FREE ENERGY         -80.485428287723 Eh   |
          | GRADIENT NORM               0.000087380923 Eh/α |
           -------------------------------------------------

 * finished run on 2025/08/25 at 13:34:57.226
