   * xtb version 6.7.1 (edcfbbe) compiled by 'albert@albert-system' on 2024-07-22

   ID    Z sym.   atoms
    1    6 C      1-12, 14-16, 18-29, 31
    2    7 N      13, 17, 30, 32
    3    1 H      33-50

          program call               : xtb data2507/gas/Cbz-PYR/Cbz-PYR_gas_S0_crest.xyz --gfn 2 --ohess vtight --parallel 40 --molden --ceasefiles --namespace data2507/gas/Cbz-PYR/Cbz-PYR_gas_S0_finalOpt
          :  Hamiltonian                  GFN2-xTB          :
 * total energy  :   -80.9054928 Eh     change       -0.1591133E-08 Eh
 * total energy  :   -80.9054933 Eh     change       -0.4866372E-06 Eh
 * total energy  :   -80.9054933 Eh     change        0.2493165E-07 Eh
 * total energy  :   -80.9054939 Eh     change       -0.6255021E-06 Eh
 * total energy  :   -80.9054946 Eh     change       -0.7144068E-06 Eh
 * total energy  :   -80.9054951 Eh     change       -0.4257241E-06 Eh
 * total energy  :   -80.9054951 Eh     change       -0.4873819E-07 Eh
 * total energy  :   -80.9054955 Eh     change       -0.3469391E-06 Eh
 * total energy  :   -80.9054958 Eh     change       -0.3682144E-06 Eh
 * total energy  :   -80.9054961 Eh     change       -0.2738703E-06 Eh
 * total energy  :   -80.9054963 Eh     change       -0.2223742E-06 Eh
 * total energy  :   -80.9054965 Eh     change       -0.2066252E-06 Eh
 * total energy  :   -80.9054967 Eh     change       -0.2085204E-06 Eh
 * total energy  :   -80.9054969 Eh     change       -0.1786908E-06 Eh
 * total energy  :   -80.9054970 Eh     change       -0.9690974E-07 Eh
   *** GEOMETRY OPTIMIZATION CONVERGED AFTER 15 ITERATIONS ***

 final structure:
================
50
 xtb: 6.7.1 (edcfbbe)
C            3.94310564291976       -3.54540241030239       -0.21100172287183
C            2.65968484535781       -3.43901595220331        0.31388012156332
C            2.06007678247584       -2.20816154382108        0.51196709533156
C            2.76573003131547       -1.06913873832524        0.15693101371341
C            4.08934742940172       -1.17112147725648       -0.32537870725436
C            4.67372969616683       -2.41440181624282       -0.51901724464771
C            4.57742400098013        0.17248038282816       -0.48188673236969
C            5.78763391328246        0.69274191341586       -0.91918223152720
C            5.94388943307382        2.06449055768565       -0.94679882628433
C            4.91021945407320        2.90760065715345       -0.54964428574592
C            3.69629339158114        2.40975257345184       -0.11164094275114
C            3.53791912646882        1.03424564434866       -0.07554715660435
N            2.42484188233177        0.27348328188063        0.27967739160124
C            1.18870353318866        0.79190154091989        0.60673118671028
C           -0.00047027710940        0.15817106761094        0.24281013193137
C           -1.18693297437671        0.79699379747452        0.60604916300573
N           -2.42455247909614        0.28113212984001        0.27964023376856
C           -2.77120941240821       -1.06108325195389        0.17357764800730
C           -2.07052128035452       -2.19795705895734        0.54482405793405
C           -2.67533514000257       -3.42872748052369        0.36313689529707
C           -3.95881930732522       -3.53646488725104       -0.16152086216822
C           -4.68416658126911       -2.40672952473458       -0.48623035145210
C           -4.09462398085433       -1.16336074897247       -0.30918714749648
C           -4.57595448483098        0.18040636069331       -0.48441376672899
C           -5.78233604147234        0.70136148353686       -0.93141385285398
C           -5.93102285683621        2.07346699361328       -0.97771991801380
C           -4.89389288723000        2.91649625166612       -0.58932825732010
C           -3.68368591556927        2.41810671042440       -0.14184068785485
C           -3.53299761063422        1.04238917935760       -0.08724950955228
N           -1.17480498290382        1.97232596798638        1.24331231710688
C            0.00356297160605        2.48791841739863        1.51532826607365
N            1.17985833785774        1.96653489168818        1.24560026022890
H            4.37671313564278       -4.52324438172961       -0.35691612255226
H            2.11981526393875       -4.33506812429185        0.58162640413015
H            1.08273096522276       -2.15246944647940        0.96299868139722
H            5.68356117056792       -2.48978862649092       -0.89232735677473
H            6.58494241804742        0.03488201764139       -1.23018599457376
H            6.87806830731890        2.49160721484096       -1.27987353796766
H            5.05899787994253        3.97667318639275       -0.58143827179390
H            2.90280567047629        3.06612429528787        0.20461908258431
H           -0.00298076311856       -0.72832768360016       -0.36630841431731
H           -1.09339010797426       -2.13925231940232        0.99620205056934
H           -2.13996310896208       -4.32349715900489        0.64391264049316
H           -4.39667874131995       -4.51432379580248       -0.29405551394708
H           -5.69391406429913       -2.48298847846090       -0.85960504398462
H           -6.58252551993373        0.04382876199713       -1.23565149760359
H           -6.86207989311943        2.50103626563326       -1.31888398098007
H           -5.03703041293930        3.98579967160977       -0.63585153607040
H           -2.88724684518459        3.07423615313004        0.16764689170377
H            0.00551080768550        3.44463836489908        2.02217830651152

          :  Hamiltonian                  GFN2-xTB          :
         :: gradient norm              0.000039351603 Eh/a0 ::
         :: HOMO-LUMO gap              2.799525168403 eV    ::
         :: SCC energy               -82.377382897549 Eh    ::
         :: -> dispersion             -0.068459824831 Eh    ::
         :: repulsion energy           1.471885889440 Eh    ::

    * Orbital Energies and Occupations

         #    Occupation            Energy/Eh            Energy/eV
      -------------------------------------------------------------
         1        2.0000           -0.6941739             -18.8894
       ...           ...                  ...                  ...
        63        2.0000           -0.4285426             -11.6612
        64        2.0000           -0.4274030             -11.6302
        65        2.0000           -0.4235210             -11.5246
        66        2.0000           -0.4227570             -11.5038
        67        2.0000           -0.4223949             -11.4939
        68        2.0000           -0.4115030             -11.1976
        69        2.0000           -0.4114149             -11.1952
        70        2.0000           -0.4063306             -11.0568
        71        2.0000           -0.3850260             -10.4771
        72        2.0000           -0.3849403             -10.4748
        73        2.0000           -0.3806467             -10.3579
        74        2.0000           -0.3741672             -10.1816
        75        2.0000           -0.3727760             -10.1438 (HOMO)
        76                         -0.2698953              -7.3442 (LUMO)
        77                         -0.2600078              -7.0752
        78                         -0.2494355              -6.7875
        79                         -0.2479194              -6.7462
        80                         -0.2279619              -6.2032
        81                         -0.2277451              -6.1973
        82                         -0.2045712              -5.5667
        83                         -0.1927822              -5.2459
        84                         -0.1918913              -5.2216
        85                         -0.1914381              -5.2093
        86                         -0.1304896              -3.5508
       ...                                ...                  ...
       146                          0.7401337              20.1401
      -------------------------------------------------------------
                  HL-Gap            0.1028807 Eh            2.7995 eV

     #   Z          covCN         q      C6AA      α(0)
     1   6 C        2.920    -0.037    28.931     8.820
     2   6 C        2.923    -0.032    28.808     8.802
     3   6 C        2.911    -0.048    29.194     8.860
     4   6 C        3.059     0.047    26.886     8.503
     5   6 C        3.065    -0.011    28.227     8.712
     6   6 C        2.913    -0.031    28.783     8.797
     7   6 C        3.065    -0.013    28.271     8.719
     8   6 C        2.913    -0.032    28.806     8.801
     9   6 C        2.920    -0.037    28.923     8.819
    10   6 C        2.925    -0.031    28.769     8.796
    11   6 C        2.910    -0.045    29.105     8.846
    12   6 C        3.064     0.054    26.733     8.479
    13   7 N        2.802    -0.039    22.003     6.967
    14   6 C        2.918     0.166    24.431     8.105
    15   6 C        2.911    -0.092    30.297     9.026
    16   6 C        2.918     0.166    24.430     8.105
    17   7 N        2.802    -0.040    22.006     6.967
    18   6 C        3.060     0.047    26.885     8.503
    19   6 C        2.911    -0.048    29.193     8.860
    20   6 C        2.923    -0.032    28.807     8.802
    21   6 C        2.920    -0.038    28.933     8.821
    22   6 C        2.913    -0.031    28.783     8.797
    23   6 C        3.065    -0.011    28.228     8.712
    24   6 C        3.065    -0.013    28.272     8.719
    25   6 C        2.913    -0.032    28.805     8.801
    26   6 C        2.920    -0.037    28.925     8.819
    27   6 C        2.925    -0.031    28.769     8.796
    28   6 C        2.910    -0.044    29.104     8.846
    29   6 C        3.065     0.054    26.732     8.478
    30   7 N        1.842    -0.275    27.976     7.839
    31   6 C        2.912     0.155    24.635     8.139
    32   7 N        1.843    -0.275    27.977     7.839
    33   1 H        0.926     0.033     2.542     2.493
    34   1 H        0.926     0.034     2.535     2.490
    35   1 H        0.926     0.028     2.617     2.530
    36   1 H        0.926     0.036     2.502     2.473
    37   1 H        0.926     0.034     2.526     2.485
    38   1 H        0.926     0.033     2.549     2.497
    39   1 H        0.926     0.035     2.511     2.478
    40   1 H        0.926     0.053     2.278     2.360
    41   1 H        0.926     0.050     2.325     2.385
    42   1 H        0.926     0.028     2.622     2.532
    43   1 H        0.926     0.034     2.536     2.490
    44   1 H        0.926     0.033     2.542     2.493
    45   1 H        0.926     0.036     2.502     2.474
    46   1 H        0.926     0.034     2.526     2.486
    47   1 H        0.926     0.033     2.549     2.497
    48   1 H        0.926     0.035     2.512     2.478
    49   1 H        0.926     0.053     2.285     2.364
    50   1 H        0.925     0.047     2.359     2.402

molecular dipole:
                 x           y           z       tot (Debye)
 q only:        0.008      -0.316      -0.415
   full:        0.007      -0.582      -0.477       1.912

 projected vibrational frequencies (cm⁻¹)
eigval :       -0.00    -0.00    -0.00     0.00     0.00     0.00
eigval :       15.05    24.59    33.94    52.01    80.16    80.85
eigval :      101.80   107.63   138.30   139.97   154.29   195.52
eigval :      198.87   215.68   249.09   272.66   277.71   295.90
eigval :      308.53   339.54   346.24   388.77   394.76   405.24
eigval :      422.06   423.71   429.48   436.14   445.31   516.19
eigval :      517.95   527.30   538.58   539.65   540.42   580.16
eigval :      580.42   593.63   599.12   631.67   635.26   653.78
eigval :      675.57   675.77   709.70   710.38   719.42   732.21
eigval :      750.75   758.20   767.95   771.33   772.05   780.22
eigval :      781.71   846.83   862.59   873.35   873.46   884.32
eigval :      893.42   899.87   901.22   904.68   905.21   906.41
eigval :      915.23   920.61   923.86   923.94   928.20   935.88
eigval :     1010.58  1014.00  1022.18  1029.60  1069.00  1071.45
eigval :     1073.03  1080.26  1106.17  1122.49  1147.56  1152.06
eigval :     1162.49  1176.43  1177.72  1179.50  1180.86  1202.60
eigval :     1223.78  1229.68  1232.15  1239.62  1247.36  1278.29
eigval :     1279.51  1289.67  1296.34  1299.61  1323.43  1331.60
eigval :     1354.64  1357.04  1359.26  1361.49  1408.31  1416.03
eigval :     1423.10  1424.58  1435.19  1463.26  1472.82  1472.97
eigval :     1485.12  1485.78  1513.71  1558.04  1578.81  1578.97
eigval :     1590.17  1591.00  1599.30  1599.63  1612.37  1612.81
eigval :     3055.90  3079.55  3079.61  3081.18  3081.65  3086.71
eigval :     3086.88  3088.49  3088.94  3095.76  3095.94  3097.78
eigval :     3098.61  3104.93  3107.84  3119.42  3120.23  3129.80

   temp. (K)  partition function   enthalpy   heat capacity  entropy
                                   cal/mol     cal/K/mol   cal/K/mol   J/K/mol
 298.15  VIB  0.821E+09            12967.143     87.977     77.767
         ROT  0.223E+08              888.752      2.981     36.609
         INT  0.183E+17            13855.896     90.958    114.376
         TR   0.805E+28             1481.254      4.968     43.907
         TOT                       15337.1497    95.9260   158.2833   662.2571

       T/K    H(0)-H(T)+PV         H(T)/Eh          T*S/Eh         G(T)/Eh
   ------------------------------------------------------------------------
    298.15    0.244413E-01    0.402697E+00    0.752055E-01    0.327491E+00
   ------------------------------------------------------------------------

         :::::::::::::::::::::::::::::::::::::::::::::::::::::
         ::                  THERMODYNAMIC                  ::
         :::::::::::::::::::::::::::::::::::::::::::::::::::::
         :: total free energy         -80.578005746622 Eh   ::
         ::.................................................::
         :: total energy              -80.905497008109 Eh   ::
         :: zero point energy           0.378255439933 Eh   ::
         :: G(RRHO) w/o ZPVE           -0.050764178446 Eh   ::
         :: G(RRHO) contrib.            0.327491261487 Eh   ::
         :::::::::::::::::::::::::::::::::::::::::::::::::::::

           -------------------------------------------------
          | TOTAL ENERGY              -80.905497008109 Eh   |
          | TOTAL ENTHALPY            -80.502800264316 Eh   |
          | TOTAL FREE ENERGY         -80.578005746622 Eh   |
          | GRADIENT NORM               0.000039356490 Eh/α |
          | HOMO-LUMO GAP               2.799525166012 eV   |
           -------------------------------------------------

 * finished run on 2025/08/25 at 13:34:53.734
