   * xtb version 6.7.1 (edcfbbe) compiled by 'albert@albert-system' on 2024-07-22

   ID    Z sym.   atoms
    1    6 C      1-12, 14-16, 18-29, 31
    2    7 N      13, 17, 30, 32
    3    1 H      33-50

          program call               : xtb data2507/gas/Cbz-PYR/Cbz-PYR_gas_T1_crest.xyz --gfn 2 --spinpol --tblite --uhf 2 --ohess vtight --parallel 40 --molden --ceasefiles --namespace data2507/gas/Cbz-PYR/Cbz-PYR_gas_T1_finalOpt
 * total energy  :   -80.8068702 Eh     change        0.1796329E-07 Eh
 * total energy  :   -80.8069743 Eh     change       -0.1041759E-03 Eh
 * total energy  :   -80.8070136 Eh     change       -0.3930195E-04 Eh
 * total energy  :   -80.8070177 Eh     change       -0.4048857E-05 Eh
 * total energy  :   -80.8070207 Eh     change       -0.2969475E-05 Eh
 * total energy  :   -80.8070228 Eh     change       -0.2196547E-05 Eh
 * total energy  :   -80.8070254 Eh     change       -0.2529136E-05 Eh
 * total energy  :   -80.8070278 Eh     change       -0.2459221E-05 Eh
 * total energy  :   -80.8070300 Eh     change       -0.2194566E-05 Eh
 * total energy  :   -80.8070327 Eh     change       -0.2658340E-05 Eh
 * total energy  :   -80.8070366 Eh     change       -0.3950924E-05 Eh
 * total energy  :   -80.8070413 Eh     change       -0.4616536E-05 Eh
 * total energy  :   -80.8070442 Eh     change       -0.2922530E-05 Eh
 * total energy  :   -80.8070451 Eh     change       -0.9576759E-06 Eh
 * total energy  :   -80.8070454 Eh     change       -0.2836799E-06 Eh
 * total energy  :   -80.8070455 Eh     change       -0.8090964E-07 Eh
   *** GEOMETRY OPTIMIZATION CONVERGED AFTER 16 ITERATIONS ***

 final structure:
================
50
 xtb: 6.7.1 (edcfbbe)
C            6.08126915622893        1.22079664871604        1.43934652107017
C            5.04058212700380        2.11312481518996        1.69755082999646
C            3.77221385454404        1.90339463978180        1.19075659027440
C            3.56895271097504        0.78105618401572        0.39937995408479
C            4.61896169539410       -0.13501727440628        0.13500279878091
C            5.88234233532085        0.09629473107172        0.65863203204422
C            4.06437811789982       -1.15915267264314       -0.70201221295858
C            4.59511861913609       -2.29779823992024       -1.29076014196022
C            3.78316909745088       -3.06516939190803       -2.10452121877968
C            2.46227820160209       -2.69373869175405       -2.35240488119066
C            1.90880900355166       -1.56816529734756       -1.77138223441150
C            2.70524553208449       -0.81165910296432       -0.92137890305432
N            2.41795866504392        0.35487561967883       -0.23446867234042
C            1.18732818347485        0.97473675161707       -0.12611782827313
C            0.00090975443171        0.26101064330404       -0.00579903670233
C           -1.18397487234081        0.97797059739427        0.11050522054909
N           -2.41593531243389        0.36202261246445        0.22490306454013
C           -2.70512626010689       -0.79996141414489        0.91884096333330
C           -1.90877246075976       -1.55522402796227        1.77004676207352
C           -2.46449674743125       -2.67576253136822        2.35861597125873
C           -3.78762466943602       -3.04343142679701        2.11719352352644
C           -4.59942167229592       -2.27700861458579        1.30240939810839
C           -4.06634806759802       -1.14342202736182        0.70605885514723
C           -4.62013827492481       -0.12143363363138       -0.13403878696934
C           -5.88471276842382        0.11220351986602       -0.65373123302231
C           -6.08246312178437        1.23362888887469       -1.43914474813388
C           -5.03933978539253        2.12057225337330       -1.70595955435210
C           -3.76976125141148        1.90837128133706       -1.20325267557653
C           -3.56764914316258        0.78927484507711       -0.40697781335789
N           -1.15719302876037        2.36087859933308        0.03328156053435
C            0.00386267883448        2.95596380550160       -0.01470974613055
N            1.16368055524750        2.35813140126122       -0.05826642922796
H            7.05704624462730        1.41331215965739        1.85995929439276
H            5.22875909111847        2.97983896234923        2.31303654246010
H            2.96362335020172        2.58803351659742        1.39199969353904
H            6.69270928946801       -0.58758347831471        0.45580612260581
H            5.62598925713570       -2.56958673674806       -1.12138943079027
H            4.17770252040650       -3.95520459490181       -2.57117473753772
H            1.85974101248596       -3.29423280420788       -3.01718142767572
H            0.89415363575692       -1.28049717866095       -1.99929263541062
H           -0.00011327377576       -0.81650612959502       -0.00269727609782
H           -0.89234503109414       -1.27034208188389        1.99342486671679
H           -1.86191496556208       -3.27517016412043        3.02433439318260
H           -4.18389061645727       -3.92963049337105        2.58962982590287
H           -5.63192007148815       -2.54560428375509        1.13796505840063
H           -6.69688726047621       -0.56749340224503       -0.44419838932244
H           -7.05920874894431        1.42796390263345       -1.85665098876493
H           -5.22663815384831        2.98502744990889       -2.32487039696771
H           -2.95935261178008        2.58882605711881       -1.41123502122265
H            0.00496674566462        4.03781121317565       -0.01862705529193

 projected vibrational frequencies (cm⁻¹)
eigval :       -0.00    -0.00    -0.00     0.00     0.00     0.00
eigval :       17.04    21.94    28.21    62.79    73.45    74.61
eigval :       95.54   106.33   135.93   136.64   147.81   170.35
eigval :      199.77   218.19   231.23   269.80   270.88   291.06
eigval :      305.79   330.75   343.74   352.91   384.47   387.91
eigval :      405.89   415.62   415.98   433.11   433.88   458.36
eigval :      512.15   512.42   530.75   531.43   531.53   538.31
eigval :      567.28   579.85   582.94   592.82   601.67   619.51
eigval :      624.06   665.87   666.49   692.24   701.28   702.95
eigval :      735.36   753.26   757.77   762.83   763.82   771.34
eigval :      772.74   844.71   861.66   862.37   868.07   872.84
eigval :      879.03   889.33   892.56   895.82   898.01   898.08
eigval :      901.09   905.27   913.00   913.23   914.68   916.78
eigval :      958.96   962.53  1003.79  1006.34  1048.48  1063.40
eigval :     1063.71  1068.71  1070.61  1095.54  1112.66  1136.95
eigval :     1138.75  1157.34  1174.56  1175.26  1175.28  1175.47
eigval :     1196.24  1223.11  1224.21  1227.60  1243.63  1249.29
eigval :     1270.21  1276.39  1288.13  1295.35  1298.60  1329.52
eigval :     1333.79  1334.73  1347.33  1367.10  1367.99  1393.28
eigval :     1401.30  1401.53  1414.31  1420.32  1440.99  1451.30
eigval :     1459.43  1459.65  1481.79  1483.24  1548.64  1548.76
eigval :     1555.80  1561.96  1566.18  1566.49  1582.91  1584.54
eigval :     3055.28  3079.51  3079.56  3081.03  3081.07  3085.86
eigval :     3085.92  3087.56  3087.64  3093.45  3093.51  3095.00
eigval :     3095.39  3099.22  3100.01  3102.87  3103.49  3108.07

   temp. (K)  partition function   enthalpy   heat capacity  entropy
                                   cal/mol     cal/K/mol   cal/K/mol   J/K/mol
 298.15  VIB  0.161E+10            13367.994     90.269     80.288
         ROT  0.112E+08              888.752      2.981     35.234
         INT  0.180E+17            14256.747     93.250    115.522
         TR   0.805E+28             1481.254      4.968     43.907
         TOT                       15738.0005    98.2177   159.4293   667.0522

       T/K    H(0)-H(T)+PV         H(T)/Eh          T*S/Eh         G(T)/Eh
   ------------------------------------------------------------------------
    298.15    0.250801E-01    0.398280E+00    0.757500E-01    0.322530E+00
   ------------------------------------------------------------------------

         :::::::::::::::::::::::::::::::::::::::::::::::::::::
         ::                  THERMODYNAMIC                  ::
         :::::::::::::::::::::::::::::::::::::::::::::::::::::
         :: total free energy         -80.484515973820 Eh   ::
         ::.................................................::
         :: total energy              -80.807045518890 Eh   ::
         :: zero point energy           0.373199449170 Eh   ::
         :: G(RRHO) w/o ZPVE           -0.050669904099 Eh   ::
         :: G(RRHO) contrib.            0.322529545071 Eh   ::
         :::::::::::::::::::::::::::::::::::::::::::::::::::::

           -------------------------------------------------
          | TOTAL ENERGY              -80.807045518890 Eh   |
          | TOTAL ENTHALPY            -80.408765969433 Eh   |
          | TOTAL FREE ENERGY         -80.484515973820 Eh   |
          | GRADIENT NORM               0.000052389364 Eh/α |
           -------------------------------------------------

 * finished run on 2025/08/25 at 13:36:38.999
