   * xtb version 6.7.1 (edcfbbe) compiled by 'albert@albert-system' on 2024-07-22

   ID    Z sym.   atoms
    1    6 C      1-12, 14-16, 18-29, 31
    2    7 N      13, 17, 30, 32
    3    1 H      33-50

          program call               : xtb data2507/gas/Cbz-PYR/Cbz-PYR.xyz --gfn 2 --ohess vtight --parallel 40 --molden --ceasefiles --namespace data2507/gas/Cbz-PYR/Cbz-PYR_gas_S0_preOpt
          :  Hamiltonian                  GFN2-xTB          :
 * total energy  :   -80.8868521 Eh     change       -0.1618147E-08 Eh
 * total energy  :   -80.9011187 Eh     change       -0.1426659E-01 Eh
 * total energy  :   -80.9043867 Eh     change       -0.3267993E-02 Eh
 * total energy  :   -80.9047708 Eh     change       -0.3841440E-03 Eh
 * total energy  :   -80.9049905 Eh     change       -0.2196491E-03 Eh
 * total energy  :   -80.9050498 Eh     change       -0.5937082E-04 Eh
 * total energy  :   -80.9050947 Eh     change       -0.4489974E-04 Eh
 * total energy  :   -80.9051298 Eh     change       -0.3505278E-04 Eh
 * total energy  :   -80.9051476 Eh     change       -0.1778321E-04 Eh
 * total energy  :   -80.9051629 Eh     change       -0.1535588E-04 Eh
 * total energy  :   -80.9052793 Eh     change       -0.1030924E-05 Eh
 * total energy  :   -80.9052806 Eh     change       -0.1266743E-05 Eh
 * total energy  :   -80.9052817 Eh     change       -0.1091081E-05 Eh
 * total energy  :   -80.9052825 Eh     change       -0.8291772E-06 Eh
 * total energy  :   -80.9052831 Eh     change       -0.6247013E-06 Eh
 * total energy  :   -80.9052836 Eh     change       -0.4640492E-06 Eh
 * total energy  :   -80.9052838 Eh     change       -0.2704776E-06 Eh
 * total energy  :   -80.9052840 Eh     change       -0.1307767E-06 Eh
 * total energy  :   -80.9052840 Eh     change       -0.5861230E-07 Eh
   *** GEOMETRY OPTIMIZATION CONVERGED AFTER 36 ITERATIONS ***

 final structure:
================
50
 xtb: 6.7.1 (edcfbbe)
C            3.67710930448586       -3.02664976758454        2.03533018375158
C            2.34759999967193       -2.67060366974247        2.23432442874446
C            1.81950084375818       -1.51029270242274        1.69592274439213
C            2.65135220904788       -0.70729196862782        0.92960003970986
C            4.01535437074820       -1.03861635621491        0.76934681016235
C            4.52504116343289       -2.20737879678307        1.31600439064728
C            4.62106826526118        0.03912053912734        0.03449764005032
C            5.91336250902661        0.26576261184891       -0.41847405544798
C            6.17460661866867        1.43318786447563       -1.10838016505609
C            5.16501962848956        2.36061987107473       -1.34895736131435
C            3.87050508442806        2.15365336495468       -0.90769230862733
C            3.60641117341273        0.98737835169998       -0.20881758320188
N            2.40252818148302        0.51211929762185        0.30774772947971
C            1.17876369169996        1.12788886818630        0.14667150387549
C           -0.00000476522627        0.39688062688318       -0.00001446753007
C           -1.17876896092242        1.12790715688865       -0.14665639577331
N           -2.40253601168151        0.51215470011055       -0.30776982489684
C           -2.65135418676570       -0.70724811145054       -0.92964232262429
C           -1.81950971452667       -1.51021109674628       -1.69601260610160
C           -2.34759907568086       -2.67052225362962       -2.23442236314176
C           -3.67708997692414       -3.02660972887160       -2.03538101307429
C           -4.52501546631184       -2.20737821889794       -1.31600198985757
C           -4.01534132850057       -1.03861012319611       -0.76934607916937
C           -4.62106529134992        0.03911581482740       -0.03448930963723
C           -5.91335901864460        0.26573474676539        0.41849632967907
C           -6.17461128245316        1.43314510968234        1.10842578904943
C           -5.16503384756364        2.36058793711099        1.34900556058371
C           -3.87052220610730        2.15364895456437        0.90771756399118
C           -3.60641705538272        0.98738286097928        0.20883179018796
N           -1.17252902219864        2.46481171352584       -0.11394407362847
C            0.00000487657593        3.04869844633508        0.00007184043648
N            1.17253427298838        2.46479597565144        0.11404779157321
H            4.05090148102228       -3.94275238331216        2.46724977895320
H            1.71127713329191       -3.30835744572184        2.82965337597968
H            0.79638710523789       -1.23973674900234        1.90503345019170
H            5.56647145618106       -2.46006076212147        1.18798443891037
H            6.69247049783517       -0.45812064022737       -0.23352303219690
H            7.17348705258334        1.63216417178312       -1.46719516695471
H            5.39709097464879        3.26495811675553       -1.89152763664416
H            3.09388999295894        2.87834279332505       -1.08735749155620
H           -0.00000802659243       -0.67744922716690       -0.00004513970585
H           -0.79640982839943       -1.23962492351218       -1.90515299172905
H           -1.71127988590609       -3.30824925022761       -2.82978381335565
H           -4.05087612576811       -3.94270986847350       -2.46731251696404
H           -5.56644243312668       -2.46007409063460       -1.18797647514026
H           -6.69244677289736       -0.45817886082829        0.23358685241713
H           -7.17348444156197        1.63208973404405        1.46727846948650
H           -5.39711651477397        3.26492504847919        1.89157249769736
H           -3.09392097498322        2.87835746261608        1.08736193141795
H            0.00000832731359        4.13129485608008        0.00010925196170

          :  Hamiltonian                  GFN2-xTB          :
         :: gradient norm              0.000016438063 Eh/a0 ::
         :: HOMO-LUMO gap              2.770876576943 eV    ::
         :: SCC energy               -82.376630482806 Eh    ::
         :: -> dispersion             -0.067567258290 Eh    ::
         :: repulsion energy           1.471346446409 Eh    ::

    * Orbital Energies and Occupations

         #    Occupation            Energy/Eh            Energy/eV
      -------------------------------------------------------------
         1        2.0000           -0.6939480             -18.8833
       ...           ...                  ...                  ...
        63        2.0000           -0.4281551             -11.6507
        64        2.0000           -0.4263099             -11.6005
        65        2.0000           -0.4255482             -11.5798
        66        2.0000           -0.4222705             -11.4906
        67        2.0000           -0.4221312             -11.4868
        68        2.0000           -0.4112802             -11.1915
        69        2.0000           -0.4112603             -11.1910
        70        2.0000           -0.4054928             -11.0340
        71        2.0000           -0.3847741             -10.4702
        72        2.0000           -0.3847549             -10.4697
        73        2.0000           -0.3779387             -10.2842
        74        2.0000           -0.3777032             -10.2778
        75        2.0000           -0.3715470             -10.1103 (HOMO)
        76                         -0.2697191              -7.3394 (LUMO)
        77                         -0.2592933              -7.0557
        78                         -0.2490556              -6.7771
        79                         -0.2476440              -6.7387
        80                         -0.2277425              -6.1972
        81                         -0.2276292              -6.1941
        82                         -0.2036796              -5.5424
        83                         -0.1930898              -5.2542
        84                         -0.1915960              -5.2136
        85                         -0.1915229              -5.2116
        86                         -0.1296923              -3.5291
       ...                                ...                  ...
       146                          0.7395823              20.1251
      -------------------------------------------------------------
                  HL-Gap            0.1018278 Eh            2.7709 eV

     #   Z          covCN         q      C6AA      α(0)
     1   6 C        2.920    -0.037    28.929     8.820
     2   6 C        2.924    -0.032    28.809     8.802
     3   6 C        2.911    -0.049    29.217     8.863
     4   6 C        3.057     0.047    26.892     8.504
     5   6 C        3.066    -0.011    28.225     8.712
     6   6 C        2.913    -0.032    28.786     8.798
     7   6 C        3.064    -0.013    28.277     8.720
     8   6 C        2.913    -0.032    28.807     8.801
     9   6 C        2.920    -0.037    28.925     8.820
    10   6 C        2.925    -0.031    28.769     8.796
    11   6 C        2.910    -0.045    29.107     8.847
    12   6 C        3.064     0.054    26.733     8.479
    13   7 N        2.803    -0.040    22.011     6.968
    14   6 C        2.919     0.166    24.431     8.105
    15   6 C        2.912    -0.094    30.353     9.034
    16   6 C        2.919     0.166    24.431     8.105
    17   7 N        2.803    -0.040    22.011     6.968
    18   6 C        3.057     0.047    26.892     8.504
    19   6 C        2.911    -0.049    29.217     8.863
    20   6 C        2.924    -0.032    28.809     8.802
    21   6 C        2.920    -0.037    28.929     8.820
    22   6 C        2.913    -0.032    28.786     8.798
    23   6 C        3.066    -0.011    28.225     8.712
    24   6 C        3.064    -0.013    28.277     8.720
    25   6 C        2.913    -0.032    28.807     8.801
    26   6 C        2.920    -0.037    28.925     8.820
    27   6 C        2.925    -0.031    28.769     8.796
    28   6 C        2.910    -0.045    29.107     8.847
    29   6 C        3.064     0.054    26.733     8.479
    30   7 N        1.842    -0.275    27.990     7.841
    31   6 C        2.913     0.155    24.635     8.139
    32   7 N        1.842    -0.275    27.990     7.841
    33   1 H        0.926     0.033     2.542     2.493
    34   1 H        0.926     0.034     2.535     2.490
    35   1 H        0.926     0.030     2.588     2.516
    36   1 H        0.926     0.036     2.501     2.473
    37   1 H        0.926     0.034     2.528     2.487
    38   1 H        0.926     0.033     2.551     2.498
    39   1 H        0.926     0.035     2.512     2.478
    40   1 H        0.926     0.054     2.274     2.358
    41   1 H        0.926     0.051     2.309     2.376
    42   1 H        0.926     0.030     2.588     2.516
    43   1 H        0.926     0.034     2.535     2.490
    44   1 H        0.926     0.033     2.542     2.493
    45   1 H        0.926     0.036     2.501     2.473
    46   1 H        0.926     0.034     2.528     2.487
    47   1 H        0.926     0.033     2.551     2.498
    48   1 H        0.926     0.035     2.512     2.478
    49   1 H        0.926     0.054     2.274     2.358
    50   1 H        0.925     0.047     2.355     2.400

molecular dipole:
                 x           y           z       tot (Debye)
 q only:       -0.000      -0.493      -0.000
   full:       -0.000      -0.753      -0.000       1.914

 projected vibrational frequencies (cm⁻¹)
eigval :       -0.00    -0.00    -0.00     0.00     0.00     0.00
eigval :       18.40    21.56    29.74    57.53    76.77    83.87
eigval :       96.13   108.33   136.94   141.36   153.32   197.53
eigval :      203.42   228.43   237.69   273.89   275.64   290.17
eigval :      308.93   344.63   345.24   390.52   393.67   407.15
eigval :      423.11   423.67   429.36   439.63   443.89   516.25
eigval :      517.02   527.45   538.57   540.21   540.27   570.71
eigval :      584.62   591.38   605.13   634.54   634.68   652.04
eigval :      675.41   676.63   709.95   710.54   721.69   728.62
eigval :      751.18   757.27   771.00   771.82   772.40   781.31
eigval :      782.82   843.09   873.23   873.55   875.90   883.27
eigval :      894.19   898.60   904.60   904.74   905.88   906.12
eigval :      913.93   923.62   924.01   924.04   926.59   935.34
eigval :     1011.14  1012.78  1024.60  1029.51  1070.85  1071.19
eigval :     1075.77  1079.53  1114.98  1121.94  1151.51  1152.86
eigval :     1163.18  1177.85  1179.42  1180.33  1182.75  1202.26
eigval :     1224.74  1231.47  1238.48  1240.98  1247.62  1279.53
eigval :     1279.65  1291.11  1296.75  1299.61  1323.00  1332.23
eigval :     1354.75  1356.94  1358.59  1360.54  1408.58  1417.12
eigval :     1424.18  1424.21  1437.10  1464.34  1472.21  1472.57
eigval :     1485.01  1485.38  1514.09  1559.54  1578.63  1578.91
eigval :     1589.51  1590.01  1598.77  1599.00  1612.04  1612.23
eigval :     3056.93  3079.46  3079.46  3081.03  3081.04  3086.49
eigval :     3086.51  3087.94  3087.97  3095.12  3095.13  3096.32
eigval :     3096.61  3100.88  3100.99  3119.61  3119.64  3143.67

   temp. (K)  partition function   enthalpy   heat capacity  entropy
                                   cal/mol     cal/K/mol   cal/K/mol   J/K/mol
 298.15  VIB  0.811E+09            12959.347     87.914     77.683
         ROT  0.111E+08              888.752      2.981     35.220
         INT  0.901E+16            13848.099     90.895    112.903
         TR   0.805E+28             1481.254      4.968     43.907
         TOT                       15329.3528    95.8633   156.8106   656.0954

       T/K    H(0)-H(T)+PV         H(T)/Eh          T*S/Eh         G(T)/Eh
   ------------------------------------------------------------------------
    298.15    0.244289E-01    0.402813E+00    0.745058E-01    0.328307E+00
   ------------------------------------------------------------------------

         :::::::::::::::::::::::::::::::::::::::::::::::::::::
         ::                  THERMODYNAMIC                  ::
         :::::::::::::::::::::::::::::::::::::::::::::::::::::
         :: total free energy         -80.576976835871 Eh   ::
         ::.................................................::
         :: total energy              -80.905284036397 Eh   ::
         :: zero point energy           0.378384078169 Eh   ::
         :: G(RRHO) w/o ZPVE           -0.050076877643 Eh   ::
         :: G(RRHO) contrib.            0.328307200526 Eh   ::
         :::::::::::::::::::::::::::::::::::::::::::::::::::::

           -------------------------------------------------
          | TOTAL ENERGY              -80.905284036397 Eh   |
          | TOTAL ENTHALPY            -80.502471079572 Eh   |
          | TOTAL FREE ENERGY         -80.576976835871 Eh   |
          | GRADIENT NORM               0.000016444937 Eh/α |
          | HOMO-LUMO GAP               2.770876387456 eV   |
           -------------------------------------------------

 * finished run on 2025/08/25 at 13:33:49.541
