   * xtb version 6.7.1 (edcfbbe) compiled by 'albert@albert-system' on 2024-07-22

   ID    Z sym.   atoms
    1    6 C      1-5, 7-15, 17-31, 34-42
    2    7 N      6, 16, 32
    3    8 O      33
    4    1 H      43-69

          program call               : xtb data2507/gas/TPA-PPO/TPA-PPO.xyz --gfn 2 --ohess vtight --parallel 40 --molden --ceasefiles --namespace data2507/gas/TPA-PPO/TPA-PPO_gas_S0_preOpt
          :  Hamiltonian                  GFN2-xTB          :
 * total energy  :  -107.9565780 Eh     change       -0.1389864E-08 Eh
 * total energy  :  -107.9688764 Eh     change       -0.1229840E-01 Eh
 * total energy  :  -107.9730444 Eh     change       -0.4167978E-02 Eh
 * total energy  :  -107.9746386 Eh     change       -0.1594234E-02 Eh
 * total energy  :  -107.9758076 Eh     change       -0.1168959E-02 Eh
 * total energy  :  -107.9763053 Eh     change       -0.4977496E-03 Eh
 * total energy  :  -107.9765539 Eh     change       -0.2485380E-03 Eh
 * total energy  :  -107.9767483 Eh     change       -0.1943823E-03 Eh
 * total energy  :  -107.9769079 Eh     change       -0.1596358E-03 Eh
 * total energy  :  -107.9770216 Eh     change       -0.1136757E-03 Eh
 * total energy  :  -107.9774123 Eh     change       -0.2804755E-06 Eh
 * total energy  :  -107.9774127 Eh     change       -0.3692753E-06 Eh
 * total energy  :  -107.9774131 Eh     change       -0.4570340E-06 Eh
 * total energy  :  -107.9774137 Eh     change       -0.6158132E-06 Eh
 * total energy  :  -107.9774146 Eh     change       -0.8366279E-06 Eh
 * total energy  :  -107.9774155 Eh     change       -0.9354370E-06 Eh
 * total energy  :  -107.9774162 Eh     change       -0.6695841E-06 Eh
 * total energy  :  -107.9774165 Eh     change       -0.3099249E-06 Eh
 * total energy  :  -107.9774165 Eh     change       -0.6044671E-07 Eh
   *** GEOMETRY OPTIMIZATION CONVERGED AFTER 56 ITERATIONS ***

 final structure:
================
69
 xtb: 6.7.1 (edcfbbe)
C            9.08738394779588       -3.31526336821173        0.37755157428440
C            9.14270283271166       -2.06682815528633        0.97625995713598
C            8.07995662040953       -1.19068627003625        0.86206217223851
C            6.94723930904173       -1.55646509277512        0.13772904964197
C            5.80010333967627       -0.66685153867978        0.02002001843645
N            4.53210639240053       -1.16746331978817        0.02473979454972
C            3.73916973563623       -0.13217236945823       -0.01991090238677
C            2.29401965591107       -0.17869302470218       -0.02087526807078
C            1.63668913134493       -1.41252584992758        0.00162646486589
C            0.25852781306805       -1.42278924842125        0.00930619727911
C           -0.44146052740155       -0.21282140317937       -0.00733387894310
C           -1.90304672395633       -0.16495619595686        0.00040805610959
C           -2.58460131015147        0.82583088895822        0.70838737719156
C           -3.96130614504080        0.87164759965310        0.71982962989788
C           -4.70928448140122       -0.06765293688939        0.00637725603528
N           -6.10225932195142       -0.01796157623318        0.00818719254466
C           -6.76300769690983        1.21702149031289        0.04977985862719
C           -6.26311191619789        2.31124150330537       -0.65539511568057
C           -6.91840665482842        3.52634031594124       -0.60920647570590
C           -8.08197212235162        3.66875837939411        0.12889550473987
C           -8.58566165093701        2.58306458600086        0.82635991462514
C           -7.93289066417518        1.36612826938750        0.79361996177688
C           -6.85046876852685       -1.20187466947682       -0.02920810911256
C           -6.42802923867238       -2.32893090660043        0.67494304966605
C           -7.17035669333554       -3.49309478410694        0.63393199032930
C           -8.34492366232789       -3.55125057295548       -0.09813830162367
C           -8.77152545353846       -2.43260830661683       -0.79499085811793
C           -8.03173463254308       -1.26643317105691       -0.76729603612849
C           -4.03161326500625       -1.05713533837511       -0.70921713977342
C           -2.65488062821840       -1.10641689923809       -0.70349363268720
C            0.32513800437277        0.95710720604747       -0.03708897613642
N            1.63882095056950        0.98117421311657       -0.04230076450885
O            4.39858246933340        1.03548736812842       -0.06249094140328
C            5.71530496923595        0.71505705379908       -0.04990506561616
C            6.68883683910255        1.78402675611592       -0.16149649058382
C            7.94460131194610        1.56634758141517       -0.72979241011366
C            8.84669807872476        2.60711490965291       -0.83411895594744
C            8.51100574593933        3.87434960029205       -0.38379959158899
C            7.25858403600217        4.10135617515907        0.16308946523254
C            6.34989509960908        3.06671471578887        0.27190075712187
C            6.88873596053796       -2.82128625876159       -0.44263230388095
C            7.95572820749724       -3.69185003019868       -0.32685557368277
H            9.92182375165715       -3.99526807147461        0.46717898737444
H           10.01746645715914       -1.77630538290020        1.53977591815477
H            8.11831784245853       -0.22505076998659        1.34463134118780
H            2.22037398445290       -2.31805480243384        0.02139997661158
H           -0.28039753435955       -2.35852567909307        0.05024884726013
H           -2.02646749078676        1.54849676714022        1.28482820403319
H           -4.47207714714194        1.63357652306119        1.29002932318781
H           -5.36216416971666        2.19941807123496       -1.24081625098530
H           -6.52177558585949        4.36570829057401       -1.16121035576061
H           -8.59287490449930        4.61904260005651        0.15992605906127
H           -9.48990301278381        2.68601067873863        1.40799941168428
H           -8.32237703217739        0.52309268180308        1.34541769522843
H           -5.51867482157307       -2.28205849816506        1.25617737965404
H           -6.83353241421950       -4.35835014876123        1.18576481305215
H           -8.92414336102540       -4.46164884239671       -0.12468691392368
H           -9.68381155320280       -2.47011173540554       -1.37193655799011
H           -8.36152921998753       -0.39788924872790       -1.31841038747553
H           -4.59634805006549       -1.78207191507368       -1.27685125827925
H           -2.15158272504676       -1.86633475937130       -1.28299228150236
H           -0.15301282525456        1.92741299868144       -0.07741890788286
H            8.20137289278874        0.58545983146080       -1.09963377854845
H            9.81668955937661        2.43039040364714       -1.27517779848929
H            9.22137084637003        4.68357392297018       -0.46614172591137
H            6.98915173722809        5.08969145280627        0.50555323081529
H            5.37142216894182        3.23791881387496        0.69477333649095
H            5.99816847902778       -3.10425097987547       -0.98226065588711
H            7.90522123484241       -4.66863152792692       -0.78562510179735

          :  Hamiltonian                  GFN2-xTB          :
         :: gradient norm              0.000120736051 Eh/a0 ::
         :: HOMO-LUMO gap              2.035899039007 eV    ::
         :: SCC energy              -109.932217327781 Eh    ::
         :: -> dispersion             -0.088352158691 Eh    ::
         :: repulsion energy           1.954800779993 Eh    ::

    * Orbital Energies and Occupations

         #    Occupation            Energy/Eh            Energy/eV
      -------------------------------------------------------------
         1        2.0000           -0.7457828             -20.2938
       ...           ...                  ...                  ...
        88        2.0000           -0.4179361             -11.3726
        89        2.0000           -0.4124101             -11.2223
        90        2.0000           -0.4106356             -11.1740
        91        2.0000           -0.4084123             -11.1135
        92        2.0000           -0.4081309             -11.1058
        93        2.0000           -0.4078606             -11.0985
        94        2.0000           -0.4064105             -11.0590
        95        2.0000           -0.4025647             -10.9543
        96        2.0000           -0.3990705             -10.8593
        97        2.0000           -0.3909044             -10.6370
        98        2.0000           -0.3707915             -10.0897
        99        2.0000           -0.3679618             -10.0127
       100        2.0000           -0.3520738              -9.5804 (HOMO)
       101                         -0.2772557              -7.5445 (LUMO)
       102                         -0.2538336              -6.9072
       103                         -0.2435445              -6.6272
       104                         -0.2333455              -6.3497
       105                         -0.2318470              -6.3089
       106                         -0.2307899              -6.2801
       107                         -0.2260764              -6.1519
       108                         -0.2254017              -6.1335
       109                         -0.2245098              -6.1092
       110                         -0.2202149              -5.9924
       111                         -0.2157428              -5.8707
       ...                                ...                  ...
       195                          0.7036568              19.1475
      -------------------------------------------------------------
                  HL-Gap            0.0748181 Eh            2.0359 eV

     #   Z          covCN         q      C6AA      α(0)
     1   6 C        2.920    -0.030    28.747     8.792
     2   6 C        2.919    -0.029    28.720     8.788
     3   6 C        2.923    -0.035    28.862     8.810
     4   6 C        2.974     0.011    27.764     8.643
     5   6 C        3.138     0.055    26.537     8.431
     6   7 N        1.891    -0.294    28.476     7.911
     7   6 C        3.209     0.207    23.080     7.822
     8   6 C        2.965     0.079    26.241     8.402
     9   6 C        2.917    -0.041    29.011     8.832
    10   6 C        2.931    -0.017    28.444     8.747
    11   6 C        2.972     0.002    27.983     8.677
    12   6 C        2.975    -0.001    28.049     8.687
    13   6 C        2.924    -0.034    28.843     8.807
    14   6 C        2.920    -0.048    29.197     8.861
    15   6 C        2.923     0.066    26.531     8.447
    16   7 N        2.752    -0.073    22.660     7.070
    17   6 C        2.925     0.065    26.551     8.450
    18   6 C        2.922    -0.047    29.166     8.856
    19   6 C        2.920    -0.029    28.722     8.789
    20   6 C        2.919    -0.037    28.932     8.820
    21   6 C        2.920    -0.029    28.722     8.788
    22   6 C        2.922    -0.047    29.163     8.856
    23   6 C        2.925     0.065    26.549     8.450
    24   6 C        2.922    -0.047    29.169     8.857
    25   6 C        2.920    -0.029    28.725     8.789
    26   6 C        2.919    -0.038    28.934     8.821
    27   6 C        2.920    -0.029    28.721     8.788
    28   6 C        2.922    -0.047    29.163     8.856
    29   6 C        2.920    -0.049    29.210     8.863
    30   6 C        2.924    -0.033    28.826     8.805
    31   6 C        2.914     0.056    26.744     8.480
    32   7 N        1.842    -0.222    26.699     7.658
    33   8 O        1.728    -0.189    17.152     5.592
    34   6 C        3.094     0.099    25.692     8.307
    35   6 C        2.971     0.006    27.882     8.661
    36   6 C        2.923    -0.034    28.847     8.808
    37   6 C        2.919    -0.027    28.680     8.782
    38   6 C        2.920    -0.029    28.718     8.788
    39   6 C        2.918    -0.027    28.685     8.783
    40   6 C        2.926    -0.028    28.700     8.786
    41   6 C        2.927    -0.027    28.677     8.782
    42   6 C        2.919    -0.029    28.713     8.787
    43   1 H        0.926     0.031     2.568     2.506
    44   1 H        0.926     0.031     2.568     2.506
    45   1 H        0.926     0.031     2.578     2.511
    46   1 H        0.926     0.058     2.222     2.331
    47   1 H        0.926     0.040     2.449     2.447
    48   1 H        0.926     0.036     2.508     2.477
    49   1 H        0.926     0.035     2.521     2.483
    50   1 H        0.926     0.032     2.553     2.498
    51   1 H        0.926     0.033     2.545     2.495
    52   1 H        0.926     0.032     2.564     2.504
    53   1 H        0.926     0.033     2.549     2.497
    54   1 H        0.926     0.032     2.555     2.500
    55   1 H        0.926     0.032     2.557     2.501
    56   1 H        0.926     0.033     2.550     2.497
    57   1 H        0.926     0.031     2.566     2.505
    58   1 H        0.926     0.033     2.549     2.497
    59   1 H        0.926     0.032     2.553     2.499
    60   1 H        0.926     0.034     2.528     2.486
    61   1 H        0.926     0.035     2.521     2.483
    62   1 H        0.925     0.042     2.425     2.435
    63   1 H        0.926     0.037     2.491     2.468
    64   1 H        0.926     0.034     2.524     2.484
    65   1 H        0.926     0.034     2.532     2.489
    66   1 H        0.926     0.035     2.514     2.480
    67   1 H        0.926     0.047     2.352     2.398
    68   1 H        0.926     0.048     2.347     2.396
    69   1 H        0.926     0.033     2.547     2.496

molecular dipole:
                 x           y           z       tot (Debye)
 q only:       -0.506      -0.066      -0.031
   full:       -0.660      -0.042      -0.022       1.682

 projected vibrational frequencies (cm⁻¹)
eigval :       -0.00    -0.00     0.00     0.00     0.00     0.00
eigval :        9.44    11.88    15.98    31.82    34.10    37.70
eigval :       39.68    42.64    54.97    60.47    65.59    72.07
eigval :       78.60    90.18   105.67   114.34   129.74   135.37
eigval :      147.97   179.00   206.67   232.64   239.76   250.24
eigval :      255.70   264.23   291.34   314.72   317.82   334.46
eigval :      364.31   368.65   377.25   377.91   379.42   382.18
eigval :      385.38   395.09   402.59   421.66   436.93   456.65
eigval :      478.60   485.43   498.19   513.62   522.41   542.75
eigval :      567.52   584.43   586.18   587.61   592.55   593.88
eigval :      609.18   614.34   627.27   657.84   658.23   659.97
eigval :      665.51   665.88   679.42   684.54   692.18   697.85
eigval :      722.55   729.95   757.51   759.90   761.36   766.85
eigval :      785.87   811.45   839.12   868.60   875.05   875.66
eigval :      876.41   880.47   893.27   893.64   899.59   902.37
eigval :      907.64   910.24   916.77   917.50   925.24   927.93
eigval :      928.59   929.18   929.58   929.69   930.45   931.48
eigval :      931.50   937.32   943.46   965.50   976.24   983.28
eigval :     1005.24  1006.13  1022.82  1026.72  1080.70  1081.86
eigval :     1082.33  1083.26  1084.11  1105.93  1117.61  1119.83
eigval :     1121.17  1121.82  1123.93  1140.16  1147.70  1180.63
eigval :     1180.74  1181.74  1181.91  1187.03  1190.98  1195.42
eigval :     1197.77  1197.93  1209.77  1217.00  1246.18  1252.37
eigval :     1272.61  1277.81  1278.60  1280.26  1282.65  1285.11
eigval :     1290.39  1313.36  1318.31  1318.78  1322.22  1323.01
eigval :     1326.75  1326.95  1342.44  1368.00  1385.11  1415.86
eigval :     1430.05  1433.06  1436.39  1437.11  1443.63  1453.22
eigval :     1471.58  1475.92  1484.47  1496.12  1535.13  1538.53
eigval :     1554.55  1556.15  1566.99  1577.73  1577.89  1581.71
eigval :     1582.35  1593.93  1594.80  1595.08  1599.32  1601.80
eigval :     3054.75  3072.46  3073.73  3076.19  3076.55  3076.66
eigval :     3076.89  3077.49  3078.06  3079.57  3080.78  3081.88
eigval :     3085.24  3086.36  3087.01  3089.26  3090.20  3090.52
eigval :     3091.32  3091.55  3093.52  3097.91  3098.02  3098.42
eigval :     3099.83  3102.27  3115.08

   temp. (K)  partition function   enthalpy   heat capacity  entropy
                                   cal/mol     cal/K/mol   cal/K/mol   J/K/mol
 298.15  VIB  0.125E+17            19607.162    121.699    123.927
         ROT  0.902E+08              888.752      2.981     39.383
         INT  0.113E+25            20495.914    124.680    163.309
         TR   0.122E+29             1481.254      4.968     44.734
         TOT                       21977.1682   129.6484   208.0429   870.4515

       T/K    H(0)-H(T)+PV         H(T)/Eh          T*S/Eh         G(T)/Eh
   ------------------------------------------------------------------------
    298.15    0.350228E-01    0.565511E+00    0.988479E-01    0.466663E+00
   ------------------------------------------------------------------------

         :::::::::::::::::::::::::::::::::::::::::::::::::::::
         ::                  THERMODYNAMIC                  ::
         :::::::::::::::::::::::::::::::::::::::::::::::::::::
         :: total free energy        -107.510753330489 Eh   ::
         ::.................................................::
         :: total energy             -107.977416547791 Eh   ::
         :: zero point energy           0.530488266877 Eh   ::
         :: G(RRHO) w/o ZPVE           -0.063825049575 Eh   ::
         :: G(RRHO) contrib.            0.466663217302 Eh   ::
         :::::::::::::::::::::::::::::::::::::::::::::::::::::

           -------------------------------------------------
          | TOTAL ENERGY             -107.977416547791 Eh   |
          | TOTAL ENTHALPY           -107.411905434035 Eh   |
          | TOTAL FREE ENERGY        -107.510753330489 Eh   |
          | GRADIENT NORM               0.000120693508 Eh/α |
          | HOMO-LUMO GAP               2.035903427034 eV   |
           -------------------------------------------------

 * finished run on 2025/07/18 at 14:59:54.851
