   * xtb version 6.7.1 (edcfbbe) compiled by 'albert@albert-system' on 2024-07-22

   ID    Z sym.   atoms
    1    6 C      1-5, 7-15, 17-31, 34-42
    2    7 N      6, 16, 32
    3    8 O      33
    4    1 H      43-69

          program call               : xtb data2507/gas/TPA-PPO/TPA-PPO_gas_T1_crest.xyz --gfn 2 --spinpol --tblite --uhf 2 --ohess vtight --parallel 40 --molden --ceasefiles --namespace data2507/gas/TPA-PPO/TPA-PPO_gas_T1_finalOpt
 * total energy  :  -107.9014123 Eh     change       -0.2437297E-07 Eh
 * total energy  :  -107.9014240 Eh     change       -0.1174307E-04 Eh
 * total energy  :  -107.9014301 Eh     change       -0.6117813E-05 Eh
 * total energy  :  -107.9014318 Eh     change       -0.1629677E-05 Eh
 * total energy  :  -107.9014340 Eh     change       -0.2216110E-05 Eh
 * total energy  :  -107.9014363 Eh     change       -0.2275986E-05 Eh
 * total energy  :  -107.9014386 Eh     change       -0.2356048E-05 Eh
 * total energy  :  -107.9014408 Eh     change       -0.2183367E-05 Eh
 * total energy  :  -107.9014428 Eh     change       -0.2011421E-05 Eh
 * total energy  :  -107.9014447 Eh     change       -0.1938333E-05 Eh
 * total energy  :  -107.9014545 Eh     change       -0.2850774E-05 Eh
 * total energy  :  -107.9014569 Eh     change       -0.2437580E-05 Eh
 * total energy  :  -107.9014587 Eh     change       -0.1756559E-05 Eh
 * total energy  :  -107.9014597 Eh     change       -0.1068530E-05 Eh
 * total energy  :  -107.9014605 Eh     change       -0.7356453E-06 Eh
 * total energy  :  -107.9014612 Eh     change       -0.7088856E-06 Eh
 * total energy  :  -107.9014619 Eh     change       -0.7137810E-06 Eh
 * total energy  :  -107.9014625 Eh     change       -0.5929998E-06 Eh
 * total energy  :  -107.9014625 Eh     change       -0.9477503E-08 Eh
   *** GEOMETRY OPTIMIZATION CONVERGED AFTER 22 ITERATIONS ***

 final structure:
================
69
 xtb: 6.7.1 (edcfbbe)
C            8.83056105699747       -3.03257245933291       -1.60349174280323
C            8.83262759762411       -1.66560491125691       -1.83220452021404
C            7.78718596898954       -0.88204102448806       -1.38224372177246
C            6.72347899753231       -1.46346758928583       -0.69262530853309
C            5.58941584254337       -0.67003350995706       -0.24399528639063
N            4.34301402393067       -1.13548860702467       -0.36781895849526
C            3.53451830902285       -0.15365987501325        0.03752021475600
C            2.13992730905283       -0.20725998149407        0.06194072515517
C            1.44359921907073       -1.36768334516899       -0.39915886705693
C            0.08944368250636       -1.35510098649833       -0.45672290035686
C           -0.64862530517553       -0.19995137999789       -0.04693475149271
C           -2.07375418084573       -0.14670957940566       -0.03626492859070
C           -2.77327128752054        1.08370739689733       -0.03566707597693
C           -4.14074908691322        1.13586431246452       -0.04379102774896
C           -4.90478728024070       -0.04210537618133       -0.03340016879672
N           -6.29489782103763        0.00832234144490       -0.02699809143931
C           -6.96479855461802        1.01536072046811       -0.72864925642126
C           -6.47692751347945        1.46323481510795       -1.95742346402699
C           -7.13983086772244        2.46026887409442       -2.64503178494639
C           -8.29591634729970        3.02175681783448       -2.12631563455348
C           -8.78553813051792        2.57859226329837       -0.90780125515195
C           -8.12790903480483        1.58581142093408       -0.20897196690651
C           -7.02572435857528       -0.94698361845870        0.68650951159707
C           -6.55581974272819       -1.42394533778362        1.91134278149514
C           -7.27785235969692       -2.37087814084211        2.61013233981823
C           -8.47574067097763       -2.85274118238037        2.10650338300468
C           -8.94771028131582       -2.38022329531063        0.89201649929968
C           -8.23143480705322       -1.43703392170878        0.18219032016060
C           -4.22966275130962       -1.27296525100462       -0.02533049723311
C           -2.86223816827535       -1.32225122308602       -0.03169749684969
C            0.14763726567192        0.87398284678154        0.44289426217209
N            1.43664664480071        0.86739081422917        0.51056260329411
O            4.22521550316851        0.95998002923109        0.42729370574943
C            5.54496964443858        0.63950609536896        0.28419057809991
C            6.53203502605000        1.56438003476814        0.73757716253459
C            6.16628255139502        2.90484135677895        0.96034292083032
C            7.09490616348991        3.81960046210792        1.40261207163295
C            8.40535857203924        3.42858056910144        1.64559216710998
C            8.77266544129081        2.10254968297076        1.45489592824878
C            7.85503173027369        1.17605008189798        1.01157148991465
C            6.71456777719021       -2.84238473449834       -0.49064721985179
C            7.76661721446475       -3.61887874040967       -0.93685376152079
H            9.65289133323986       -3.63998151071114       -1.95219190254964
H            9.65201900503012       -1.20872556155371       -2.36790624904855
H            7.78047943579738        0.18026425381487       -1.57821597588261
H            2.03494770899615       -2.19843487339582       -0.74727627566698
H           -0.43918117393295       -2.20441486680582       -0.86273111472345
H           -2.21811055337000        2.00868487836076       -0.04838287314707
H           -4.64667029580839        2.09064929269848       -0.04088469465407
H           -5.58396739643814        1.01584391295912       -2.36834097048461
H           -6.75564682865556        2.79565853108963       -3.59679261384093
H           -8.81198798577545        3.79945042077505       -2.66801325081492
H           -9.68231839882850        3.01536187823167       -0.49419995245777
H           -8.50276491571804        1.25073950844263        0.74700630363427
H           -5.62955712707328       -1.03789793526711        2.31058356254348
H           -6.90668564060571       -2.72910114599204        3.55873285203238
H           -9.03795081995066       -3.59139427310559        2.65686222286115
H           -9.87721326001742       -2.75529993795750        0.49028135485616
H           -8.59337678524913       -1.07934925982683       -0.77057073748116
H           -4.80487469354221       -2.18774580068099       -0.02953945628442
H           -2.37707319563737       -2.28562269396171       -0.01960579261784
H           -0.32861705055192        1.74331841106610        0.87811640980806
H            5.14655047773110        3.20202904348230        0.76926643242934
H            6.80211044315382        4.84737652220813        1.56143733605298
H            9.13214553678479        4.14830347296077        1.99126656001684
H            9.78554895865261        1.79057657514237        1.66493942315546
H            8.14205230950338        0.14230821914372        0.89880531162799
H            5.87556264619935       -3.28568413904150        0.02296610395493
H            7.75783027923484       -4.68575354616138       -0.76737617465983

 projected vibrational frequencies (cm⁻¹)
eigval :       -0.00    -0.00    -0.00    -0.00    -0.00     0.00
eigval :        9.68    10.61    18.95    30.32    36.00    37.92
eigval :       42.95    47.28    56.39    62.05    64.74    74.98
eigval :       81.78    90.81   109.30   112.42   134.02   139.93
eigval :      150.48   164.60   211.88   226.77   232.05   237.57
eigval :      256.21   262.37   279.95   297.17   315.49   334.97
eigval :      349.33   367.20   373.92   377.24   377.83   379.68
eigval :      383.64   390.12   397.33   416.38   427.67   443.92
eigval :      460.15   470.38   488.89   503.41   506.57   515.51
eigval :      565.53   578.81   582.49   585.97   586.12   591.66
eigval :      593.12   609.60   617.07   623.12   650.38   652.85
eigval :      655.51   658.66   663.31   663.99   673.86   684.67
eigval :      685.89   718.36   747.54   748.69   756.70   760.98
eigval :      764.91   791.07   805.40   835.53   851.67   860.92
eigval :      872.31   873.86   877.66   887.70   890.25   894.03
eigval :      895.76   900.85   906.35   906.55   910.79   913.32
eigval :      917.51   923.98   924.35   927.45   929.01   929.15
eigval :      929.23   929.77   934.98   937.40   939.10   966.98
eigval :      978.28  1000.87  1002.86  1005.32  1035.68  1058.01
eigval :     1073.74  1080.05  1081.17  1082.21  1087.38  1116.84
eigval :     1120.55  1121.48  1123.67  1128.40  1147.66  1163.36
eigval :     1179.66  1179.77  1179.82  1180.75  1182.09  1189.91
eigval :     1192.53  1196.38  1199.49  1218.50  1232.14  1244.79
eigval :     1262.65  1271.26  1275.15  1278.14  1279.48  1280.31
eigval :     1281.99  1304.21  1309.96  1318.83  1319.78  1320.92
eigval :     1327.21  1329.66  1332.65  1345.88  1362.68  1394.76
eigval :     1419.90  1431.49  1432.00  1435.01  1436.42  1440.76
eigval :     1449.67  1463.63  1464.78  1464.93  1475.53  1480.67
eigval :     1498.09  1525.44  1540.93  1564.55  1569.31  1573.62
eigval :     1576.12  1577.70  1582.33  1584.46  1591.81  1595.15
eigval :     3044.90  3072.96  3073.98  3075.89  3077.14  3077.41
eigval :     3077.80  3078.58  3079.95  3080.91  3081.89  3082.08
eigval :     3085.55  3089.16  3090.15  3091.15  3091.66  3093.09
eigval :     3093.65  3098.80  3100.64  3101.21  3101.45  3102.05
eigval :     3103.10  3103.53  3111.97

   temp. (K)  partition function   enthalpy   heat capacity  entropy
                                   cal/mol     cal/K/mol   cal/K/mol   J/K/mol
 298.15  VIB  0.114E+17            19866.443    123.935    125.209
         ROT  0.904E+08              888.752      2.981     39.386
         INT  0.103E+25            20755.196    126.915    164.595
         TR   0.122E+29             1481.254      4.968     44.734
         TOT                       22236.4495   131.8835   209.3282   875.8292

       T/K    H(0)-H(T)+PV         H(T)/Eh          T*S/Eh         G(T)/Eh
   ------------------------------------------------------------------------
    298.15    0.354360E-01    0.562047E+00    0.994586E-01    0.462588E+00
   ------------------------------------------------------------------------

         :::::::::::::::::::::::::::::::::::::::::::::::::::::
         ::                  THERMODYNAMIC                  ::
         :::::::::::::::::::::::::::::::::::::::::::::::::::::
         :: total free energy        -107.438874365255 Eh   ::
         ::.................................................::
         :: total energy             -107.901462467937 Eh   ::
         :: zero point energy           0.526610653163 Eh   ::
         :: G(RRHO) w/o ZPVE           -0.064022550480 Eh   ::
         :: G(RRHO) contrib.            0.462588102682 Eh   ::
         :::::::::::::::::::::::::::::::::::::::::::::::::::::

           -------------------------------------------------
          | TOTAL ENERGY             -107.901462467937 Eh   |
          | TOTAL ENTHALPY           -107.339415776890 Eh   |
          | TOTAL FREE ENERGY        -107.438874365255 Eh   |
          | GRADIENT NORM               0.000070607104 Eh/α |
           -------------------------------------------------

 * finished run on 2025/07/18 at 15:08:26.070
