   * xtb version 6.7.1 (edcfbbe) compiled by 'albert@albert-system' on 2024-07-22

   ID    Z sym.   atoms
    1    6 C      1-5, 7-15, 17-31, 34-42
    2    7 N      6, 16, 32
    3    8 O      33
    4    1 H      43-69

          program call               : xtb data2507/gas/TPA-PPO/TPA-PPO_gas_S0_crest.xyz --gfn 2 --ohess vtight --parallel 40 --molden --ceasefiles --namespace data2507/gas/TPA-PPO/TPA-PPO_gas_S0_finalOpt
          :  Hamiltonian                  GFN2-xTB          :
 * total energy  :  -107.9774090 Eh     change       -0.1777806E-08 Eh
 * total energy  :  -107.9774099 Eh     change       -0.8587000E-06 Eh
 * total energy  :  -107.9774105 Eh     change       -0.6471020E-06 Eh
 * total energy  :  -107.9774116 Eh     change       -0.1118443E-05 Eh
 * total energy  :  -107.9774123 Eh     change       -0.6257965E-06 Eh
 * total energy  :  -107.9774128 Eh     change       -0.5473445E-06 Eh
 * total energy  :  -107.9774135 Eh     change       -0.6853707E-06 Eh
 * total energy  :  -107.9774139 Eh     change       -0.4068738E-06 Eh
 * total energy  :  -107.9774141 Eh     change       -0.1793711E-06 Eh
 * total energy  :  -107.9774143 Eh     change       -0.2331576E-06 Eh
 * total energy  :  -107.9774155 Eh     change       -0.2347736E-06 Eh
 * total energy  :  -107.9774156 Eh     change       -0.1689340E-06 Eh
 * total energy  :  -107.9774158 Eh     change       -0.1392519E-06 Eh
 * total energy  :  -107.9774159 Eh     change       -0.1258572E-06 Eh
 * total energy  :  -107.9774160 Eh     change       -0.1098672E-06 Eh
 * total energy  :  -107.9774161 Eh     change       -0.1067895E-06 Eh
 * total energy  :  -107.9774162 Eh     change       -0.1189403E-06 Eh
 * total energy  :  -107.9774164 Eh     change       -0.1350035E-06 Eh
 * total energy  :  -107.9774164 Eh     change       -0.1781288E-08 Eh
   *** GEOMETRY OPTIMIZATION CONVERGED AFTER 22 ITERATIONS ***

 final structure:
================
69
 xtb: 6.7.1 (edcfbbe)
C            8.88159746534443       -3.40093303110319        0.26991433223349
C            8.94519207160872       -2.17317566846718        0.90923180016083
C            7.88671271919097       -1.28833625515164        0.82714847993670
C            6.74998701954525       -1.62437151738091        0.09475044846689
C            5.60825976602052       -0.72427471220689        0.00812325728123
N            4.33665412716377       -1.21550669318636        0.00144341324179
C            3.55137203882610       -0.17347895527020       -0.01167502367618
C            2.10596346131076       -0.20935646225949       -0.01210145351970
C            1.43969025212633       -1.43858210524705       -0.00485845373754
C            0.06155350036124       -1.43892220103788        0.00324045933011
C           -0.62987714324815       -0.22380666397494        0.00017878481078
C           -2.09102083167228       -0.16568038787735        0.00595711872872
C           -2.76732590380085        0.82782948927613        0.71528637759052
C           -4.14367880095963        0.88360974513457        0.72334698211869
C           -4.89657717112713       -0.04879755187217        0.00613059802565
N           -6.28917252771046        0.01088552478099        0.00511477727053
C           -6.94044613735817        1.25101037620146        0.04160157812472
C           -6.43027353753156        2.33912861680252       -0.66562174102858
C           -7.07651110736336        3.55927482734980       -0.62517943996406
C           -8.24078089468618        3.71290641372861        0.10955124668996
C           -8.75430877790682        2.63342774118867        0.80952417012755
C           -8.11086647809881        1.41138946268605        0.78219728070214
C           -7.04543226306209       -1.16764959035933       -0.03497681909162
C           -6.63176577725275       -2.29813344625292        0.66893843166591
C           -7.38117739880942       -3.45762360130567        0.62476401940852
C           -8.55425018896062       -3.50767800822153       -0.11031245375138
C           -8.97229309797068       -2.38550358131535       -0.80668626406957
C           -8.22542986808430       -1.22391686432438       -0.77576168749200
C           -4.22438107145492       -1.04128612681845       -0.71034990451747
C           -2.84807956980118       -1.09978878709598       -0.70228959410919
C            0.14535627134002        0.94077170754548       -0.01508764787601
N            1.45917698245383        0.95537803335528       -0.01882468850815
O            4.21935210336436        0.99006043486754       -0.02198781219047
C            5.53356712884708        0.65958445508943       -0.02119160971212
C            6.51579137993344        1.72350291946698       -0.10061328034655
C            7.76714277989158        1.51422186724336       -0.68157565097226
C            8.67863070957236        2.54954853348978       -0.75310109599240
C            8.35672540428034        3.80311968314118       -0.25682862159777
C            7.10862367772701        4.02243268311938        0.30291474845353
C            6.19051817374884        2.99317555330629        0.37891567509859
C            6.68295459725066       -2.86920758387663       -0.52640098350297
C            7.74579817636152       -3.74851335419306       -0.44268002339065
H            9.71285503573196       -4.08766148803882        0.33427769164499
H            9.82318092803459       -1.90574825180790        1.47911547789201
H            7.93167259354054       -0.33899102518595        1.34047927988058
H            2.01688266266930       -2.34843874696365        0.00357905321832
H           -0.48382966185786       -2.37129624358202        0.03354524480808
H           -2.20573337627751        1.54473198018037        1.29549605860676
H           -4.65051827362546        1.64794110338488        1.29386022623769
H           -5.52865156169641        2.21856448552148       -1.24827205339153
H           -6.67230248568535        4.39370482170831       -1.17916957217988
H           -8.74468412217837        4.66705699108312        0.13591283359139
H           -9.65905219218011        2.74526360625678        1.38873308103795
H           -8.50802850679871        0.57305036821051        1.33568873142362
H           -5.72344243128582       -2.25767229457676        1.25227507993150
H           -7.05092302438570       -4.32565565292285        1.17621007869180
H           -9.13884491881673       -4.41454483391504       -0.13961712464966
H           -9.88334886511246       -2.41666813127305       -1.38595573014787
H           -8.54855544866433       -0.35273238568145       -1.32666577985507
H           -4.79299336456586       -1.76089647805234       -1.28088221435568
H           -2.34915165233095       -1.86124005354591       -1.28349217709880
H           -0.32539538219616        1.91505118677983       -0.04437172282977
H            8.01303465881143        0.54450834219871       -1.08665379015266
H            9.64504987494345        2.37949884116293       -1.20446950533192
H            9.07453256593884        4.60798281779649       -0.31317002252675
H            6.85020626065025        5.00038697607755        0.68174928409338
H            5.21543482719906        3.15839446478892        0.81186203512702
H            5.78927808368646       -3.12974481268976       -1.07215341426942
H            7.68890683344225       -4.70939353148994       -0.93315849241715

          :  Hamiltonian                  GFN2-xTB          :
         :: gradient norm              0.000026576105 Eh/a0 ::
         :: HOMO-LUMO gap              2.035011639198 eV    ::
         :: SCC energy              -109.932294496156 Eh    ::
         :: -> dispersion             -0.088356931144 Eh    ::
         :: repulsion energy           1.954878114800 Eh    ::

    * Orbital Energies and Occupations

         #    Occupation            Energy/Eh            Energy/eV
      -------------------------------------------------------------
         1        2.0000           -0.7457955             -20.2941
       ...           ...                  ...                  ...
        88        2.0000           -0.4179691             -11.3735
        89        2.0000           -0.4124415             -11.2231
        90        2.0000           -0.4106217             -11.1736
        91        2.0000           -0.4084437             -11.1143
        92        2.0000           -0.4081183             -11.1055
        93        2.0000           -0.4078784             -11.0989
        94        2.0000           -0.4064219             -11.0593
        95        2.0000           -0.4025715             -10.9545
        96        2.0000           -0.3990187             -10.8579
        97        2.0000           -0.3908955             -10.6368
        98        2.0000           -0.3708198             -10.0905
        99        2.0000           -0.3679295             -10.0119
       100        2.0000           -0.3520866              -9.5808 (HOMO)
       101                         -0.2773013              -7.5458 (LUMO)
       102                         -0.2537849              -6.9058
       103                         -0.2435226              -6.6266
       104                         -0.2333260              -6.3491
       105                         -0.2318366              -6.3086
       106                         -0.2307951              -6.2803
       107                         -0.2261168              -6.1530
       108                         -0.2254057              -6.1336
       109                         -0.2245158              -6.1094
       110                         -0.2202123              -5.9923
       111                         -0.2158122              -5.8725
       ...                                ...                  ...
       195                          0.7035599              19.1448
      -------------------------------------------------------------
                  HL-Gap            0.0747853 Eh            2.0350 eV

     #   Z          covCN         q      C6AA      α(0)
     1   6 C        2.920    -0.030    28.748     8.792
     2   6 C        2.919    -0.029    28.719     8.788
     3   6 C        2.923    -0.035    28.862     8.810
     4   6 C        2.974     0.011    27.764     8.643
     5   6 C        3.138     0.055    26.537     8.431
     6   7 N        1.891    -0.294    28.476     7.911
     7   6 C        3.209     0.207    23.079     7.821
     8   6 C        2.965     0.079    26.242     8.403
     9   6 C        2.917    -0.041    29.011     8.833
    10   6 C        2.931    -0.017    28.445     8.747
    11   6 C        2.972     0.002    27.984     8.677
    12   6 C        2.975    -0.001    28.049     8.687
    13   6 C        2.924    -0.034    28.843     8.807
    14   6 C        2.920    -0.048    29.195     8.861
    15   6 C        2.924     0.066    26.531     8.447
    16   7 N        2.752    -0.073    22.660     7.070
    17   6 C        2.925     0.065    26.551     8.450
    18   6 C        2.922    -0.047    29.166     8.856
    19   6 C        2.920    -0.029    28.722     8.788
    20   6 C        2.919    -0.037    28.931     8.820
    21   6 C        2.920    -0.029    28.722     8.788
    22   6 C        2.922    -0.047    29.162     8.856
    23   6 C        2.925     0.065    26.549     8.450
    24   6 C        2.922    -0.047    29.170     8.857
    25   6 C        2.920    -0.029    28.725     8.789
    26   6 C        2.919    -0.038    28.935     8.821
    27   6 C        2.920    -0.029    28.721     8.788
    28   6 C        2.922    -0.047    29.164     8.856
    29   6 C        2.920    -0.049    29.209     8.863
    30   6 C        2.924    -0.033    28.826     8.805
    31   6 C        2.914     0.056    26.744     8.480
    32   7 N        1.842    -0.222    26.699     7.658
    33   8 O        1.728    -0.189    17.152     5.592
    34   6 C        3.094     0.099    25.691     8.307
    35   6 C        2.971     0.006    27.882     8.661
    36   6 C        2.923    -0.034    28.845     8.808
    37   6 C        2.919    -0.027    28.679     8.782
    38   6 C        2.920    -0.029    28.718     8.788
    39   6 C        2.918    -0.027    28.685     8.783
    40   6 C        2.926    -0.028    28.699     8.785
    41   6 C        2.927    -0.027    28.677     8.782
    42   6 C        2.919    -0.029    28.713     8.787
    43   1 H        0.926     0.031     2.568     2.506
    44   1 H        0.926     0.031     2.568     2.506
    45   1 H        0.926     0.031     2.579     2.511
    46   1 H        0.926     0.058     2.222     2.331
    47   1 H        0.926     0.040     2.448     2.447
    48   1 H        0.926     0.036     2.507     2.476
    49   1 H        0.926     0.035     2.521     2.483
    50   1 H        0.926     0.032     2.553     2.499
    51   1 H        0.926     0.033     2.545     2.495
    52   1 H        0.926     0.032     2.564     2.504
    53   1 H        0.926     0.033     2.549     2.497
    54   1 H        0.926     0.032     2.554     2.499
    55   1 H        0.926     0.032     2.558     2.501
    56   1 H        0.926     0.033     2.550     2.497
    57   1 H        0.926     0.031     2.566     2.505
    58   1 H        0.926     0.033     2.550     2.497
    59   1 H        0.926     0.032     2.554     2.499
    60   1 H        0.926     0.034     2.527     2.486
    61   1 H        0.926     0.035     2.520     2.482
    62   1 H        0.925     0.042     2.424     2.435
    63   1 H        0.926     0.037     2.492     2.468
    64   1 H        0.926     0.034     2.523     2.484
    65   1 H        0.926     0.034     2.532     2.488
    66   1 H        0.926     0.035     2.514     2.479
    67   1 H        0.926     0.047     2.354     2.399
    68   1 H        0.926     0.048     2.348     2.396
    69   1 H        0.926     0.033     2.547     2.496

molecular dipole:
                 x           y           z       tot (Debye)
 q only:       -0.505      -0.060      -0.028
   full:       -0.659      -0.035      -0.015       1.677

 projected vibrational frequencies (cm⁻¹)
eigval :       -0.00    -0.00     0.00     0.00     0.00     0.00
eigval :        9.42    11.75    15.96    31.78    34.05    37.68
eigval :       39.54    42.47    54.94    60.41    65.55    71.99
eigval :       78.52    90.15   105.45   114.29   129.55   135.41
eigval :      147.91   179.10   206.68   232.44   239.72   250.55
eigval :      255.34   264.26   291.42   314.75   317.66   334.45
eigval :      364.26   368.67   377.24   377.79   379.42   382.29
eigval :      385.28   395.17   402.46   421.59   437.23   456.76
eigval :      478.58   485.06   497.93   513.70   522.30   542.75
eigval :      567.49   584.42   586.17   587.60   592.58   593.88
eigval :      609.10   614.39   627.29   657.88   658.21   659.92
eigval :      665.59   665.87   679.43   684.51   692.19   697.79
eigval :      722.54   729.89   757.48   759.87   761.34   766.77
eigval :      785.89   811.35   839.14   868.48   875.00   875.70
eigval :      876.35   880.37   893.20   893.58   899.46   902.39
eigval :      907.46   910.27   916.73   917.46   925.20   927.91
eigval :      928.60   929.15   929.52   929.67   930.42   931.41
eigval :      931.49   937.04   943.49   965.50   976.26   983.28
eigval :     1005.26  1006.14  1022.87  1026.75  1080.67  1081.69
eigval :     1082.32  1083.22  1084.08  1106.00  1117.60  1119.84
eigval :     1121.14  1121.80  1123.91  1140.16  1147.95  1180.62
eigval :     1180.73  1181.72  1181.89  1187.02  1191.03  1195.40
eigval :     1197.73  1197.99  1209.83  1217.14  1246.36  1252.49
eigval :     1272.82  1277.86  1278.65  1280.28  1282.60  1285.13
eigval :     1290.49  1313.45  1318.37  1318.90  1322.23  1322.99
eigval :     1326.75  1326.99  1342.41  1368.23  1385.15  1415.96
eigval :     1430.08  1433.07  1436.38  1437.10  1443.62  1453.21
eigval :     1471.59  1475.97  1484.54  1496.13  1535.06  1538.51
eigval :     1554.57  1556.38  1566.91  1577.72  1577.96  1581.70
eigval :     1582.34  1593.98  1594.79  1595.10  1599.34  1601.82
eigval :     3055.01  3072.50  3073.85  3076.25  3076.53  3076.72
eigval :     3076.89  3077.46  3078.03  3079.75  3080.82  3081.97
eigval :     3085.25  3086.33  3086.98  3089.24  3090.16  3090.54
eigval :     3091.44  3091.58  3093.63  3097.86  3098.02  3098.43
eigval :     3099.74  3102.24  3115.09

   temp. (K)  partition function   enthalpy   heat capacity  entropy
                                   cal/mol     cal/K/mol   cal/K/mol   J/K/mol
 298.15  VIB  0.129E+17            19609.611    121.691    123.958
         ROT  0.902E+08              888.752      2.981     39.382
         INT  0.116E+25            20498.363    124.671    163.340
         TR   0.122E+29             1481.254      4.968     44.734
         TOT                       21979.6174   129.6396   208.0739   870.5813

       T/K    H(0)-H(T)+PV         H(T)/Eh          T*S/Eh         G(T)/Eh
   ------------------------------------------------------------------------
    298.15    0.350267E-01    0.565513E+00    0.988626E-01    0.466650E+00
   ------------------------------------------------------------------------

         :::::::::::::::::::::::::::::::::::::::::::::::::::::
         ::                  THERMODYNAMIC                  ::
         :::::::::::::::::::::::::::::::::::::::::::::::::::::
         :: total free energy        -107.510766269369 Eh   ::
         ::.................................................::
         :: total energy             -107.977416381364 Eh   ::
         :: zero point energy           0.530485992682 Eh   ::
         :: G(RRHO) w/o ZPVE           -0.063835880687 Eh   ::
         :: G(RRHO) contrib.            0.466650111995 Eh   ::
         :::::::::::::::::::::::::::::::::::::::::::::::::::::

           -------------------------------------------------
          | TOTAL ENERGY             -107.977416381364 Eh   |
          | TOTAL ENTHALPY           -107.411903638828 Eh   |
          | TOTAL FREE ENERGY        -107.510766269369 Eh   |
          | GRADIENT NORM               0.000026570287 Eh/α |
          | HOMO-LUMO GAP               2.035011918182 eV   |
           -------------------------------------------------

 * finished run on 2025/07/18 at 15:03:10.208
