   * xtb version 6.7.1 (edcfbbe) compiled by 'albert@albert-system' on 2024-07-22

   ID    Z sym.   atoms
    1    6 C      1-5, 7-15, 17-31, 34-42
    2    7 N      6, 16, 32
    3    8 O      33
    4    1 H      43-69

          program call               : xtb data2507/gas/TPA-PPO/TPA-PPO_gas_S0_finalOpt.xtbopt.xyz --gfn 2 --spinpol --tblite --uhf 2 --ohess vtight --parallel 40 --molden --ceasefiles --namespace data2507/gas/TPA-PPO/TPA-PPO_gas_T1_preOpt
 * total energy  :  -107.8919900 Eh     change        0.5607529E-07 Eh
 * total energy  :  -107.8980503 Eh     change       -0.6060327E-02 Eh
 * total energy  :  -107.9002087 Eh     change       -0.2158379E-02 Eh
 * total energy  :  -107.9004196 Eh     change       -0.2109692E-03 Eh
 * total energy  :  -107.9006458 Eh     change       -0.2261042E-03 Eh
 * total energy  :  -107.9007530 Eh     change       -0.1072341E-03 Eh
 * total energy  :  -107.9008554 Eh     change       -0.1024097E-03 Eh
 * total energy  :  -107.9009385 Eh     change       -0.8313721E-04 Eh
 * total energy  :  -107.9009780 Eh     change       -0.3944672E-04 Eh
 * total energy  :  -107.9010045 Eh     change       -0.2650382E-04 Eh
 * total energy  :  -107.9013413 Eh     change       -0.8771165E-06 Eh
 * total energy  :  -107.9013420 Eh     change       -0.6422130E-06 Eh
 * total energy  :  -107.9013427 Eh     change       -0.6866315E-06 Eh
 * total energy  :  -107.9013432 Eh     change       -0.5264890E-06 Eh
 * total energy  :  -107.9013437 Eh     change       -0.4901022E-06 Eh
 * total energy  :  -107.9013443 Eh     change       -0.5792567E-06 Eh
 * total energy  :  -107.9013448 Eh     change       -0.5452260E-06 Eh
 * total energy  :  -107.9013448 Eh     change        0.2603770E-08 Eh
 * total energy  :  -107.9013448 Eh     change       -0.4045340E-07 Eh
   *** GEOMETRY OPTIMIZATION CONVERGED AFTER 69 ITERATIONS ***

 final structure:
================
69
 xtb: 6.7.1 (edcfbbe)
C            8.83768863512605       -3.42580218005357        0.10707488375915
C            8.84795178874006       -2.28899698716542        0.89988073412600
C            7.80101632326679       -1.38908247471351        0.84175410147450
C            6.72745383390272       -1.61920201736185       -0.01861830243498
C            5.59109831693498       -0.71278398406782       -0.06896850422746
N            4.34664001541623       -1.18791535774341       -0.15344034487042
C            3.53429567443550       -0.13015378406734       -0.07666907762914
C            2.14026699001242       -0.17054579891230       -0.11067124232717
C            1.44561947079064       -1.41477451045157       -0.22719392334280
C            0.09083408762832       -1.43047999318534       -0.17501740762294
C           -0.64431482874034       -0.21496621157372       -0.01337887266347
C           -2.07031693758821       -0.16166902989126       -0.00254673616585
C           -2.76846470899673        0.90881165961679        0.60394248514083
C           -4.13614903686799        0.95888019297990        0.61861557765236
C           -4.90002520485845       -0.05595585048212        0.01984163034221
N           -6.28892607392039        0.00050839678540        0.02453881376987
C           -6.94373596695965        1.23523122216991       -0.04165667604517
C           -6.43775707364075        2.26330566009789       -0.83851991285197
C           -7.08691317752361        3.48068498805815       -0.89446270290130
C           -8.24725415470106        3.69182095821016       -0.16654140182613
C           -8.75617857873346        2.67222228933564        0.62228270155936
C           -8.11245238844135        1.45254813328893        0.68972521641384
C           -7.04317381244215       -1.17616411207441        0.08824089799124
C           -6.62372099598890       -2.24347157309239        0.88370766253416
C           -7.37113139733725       -3.40319962631572        0.93802411103081
C           -8.54471579448053       -3.51707259204311        0.20953644650463
C           -8.96754923087010       -2.45810893673363       -0.57822125059201
C           -8.22544556161174       -1.29555991498893       -0.64387337071998
C           -4.22439655310184       -1.12649070763919       -0.58697360725161
C           -2.85640646847161       -1.17626534045591       -0.59674337525838
C            0.14919570883673        0.96456248203967        0.04941863871795
N            1.43892517728073        0.99267331074510       -0.01394728649033
O            4.22308231325194        1.04430586095222        0.05873298855727
C            5.54390820869614        0.69791986373766        0.03306095336081
C            6.52666354031381        1.72986749990171        0.01758041610509
C            7.84689092531896        1.50477918339263       -0.41229560362080
C            8.76009706739439        2.53540706607642       -0.41830858190921
C            8.39221320529359        3.81120869990670       -0.00922684128389
C            7.08459877965487        4.05267202673338        0.39319492123685
C            6.15997098403581        3.03349232036940        0.40326772181268
C            6.71073538229512       -2.77847773327446       -0.79237986390747
C            7.76406421085381       -3.67049599965128       -0.73425767358086
H            9.66106122144888       -4.12348629625852        0.15226079682756
H            9.67491893288200       -2.10542967508110        1.57035864666116
H            7.80056959894752       -0.51432691448999        1.47553657472671
H            2.03740599155146       -2.31241767490571       -0.29860704254809
H           -0.44039292683719       -2.37005311511996       -0.20529978107940
H           -2.21292385194890        1.68545114125015        1.10607511788374
H           -4.64223614425983        1.77408699111936        1.11540102933035
H           -5.54163389460753        2.09404760896857       -1.41703908246422
H           -6.68846307990628        4.26763869412099       -1.51725068142542
H           -8.75200751895605        4.64447429086831       -0.21412232820990
H           -9.65703774291634        2.83070974856705        1.19619551745979
H           -8.50256769328304        0.66249496853562        1.31451076447349
H           -5.71658157828908       -2.14926549864318        1.46218362189416
H           -7.03929493756086       -4.22117133412996        1.55993546882868
H           -9.12629218923097       -4.42494584360078        0.25577065224646
H           -9.87808995624065       -2.54113578687385       -1.15273657923207
H           -8.54878005527393       -0.47529699923663       -1.26785387447122
H           -4.79737684892243       -1.90315356299630       -1.07282833919201
H           -2.36900013883895       -1.99264796714258       -1.10652049439681
H           -0.32982310359147        1.93525166051156        0.07107995849591
H            8.13384248402546        0.52642261241651       -0.76468337636146
H            9.77011982427459        2.35006096713265       -0.75432103793963
H            9.11587942209990        4.61240722941211       -0.01520474747798
H            6.79131533471421        5.04625925952513        0.69986375688939
H            5.14264220795174        3.21396891453705        0.71484533848960
H            5.86429875209303       -2.95915284996623       -1.43664639938085
H            7.74881032321975       -4.56180364177843       -1.34444310470533

 projected vibrational frequencies (cm⁻¹)
eigval :       -0.00    -0.00    -0.00    -0.00     0.00     0.00
eigval :       10.14    11.49    17.05    31.87    35.47    38.41
eigval :       42.54    47.32    56.10    62.54    65.02    73.19
eigval :       84.91    94.55   108.31   109.22   136.13   140.30
eigval :      150.82   164.03   212.07   219.74   232.48   237.47
eigval :      256.05   262.32   280.49   309.91   315.11   318.92
eigval :      349.11   367.50   376.21   377.75   379.48   384.77
eigval :      386.45   396.82   397.44   402.56   427.55   443.44
eigval :      459.86   469.99   488.34   502.34   507.43   515.21
eigval :      565.08   578.49   582.27   585.82   585.98   591.78
eigval :      592.77   608.62   616.65   622.13   649.87   652.41
eigval :      656.25   659.04   663.55   664.82   675.75   684.85
eigval :      685.78   718.36   746.95   748.04   756.98   761.27
eigval :      765.01   786.96   806.43   839.52   850.33   859.86
eigval :      872.87   873.83   877.51   886.84   890.93   894.47
eigval :      896.73   901.80   906.56   908.49   911.56   912.36
eigval :      920.03   923.73   924.11   927.73   929.00   929.34
eigval :      929.62   929.85   935.35   937.52   939.69   965.82
eigval :      978.75  1000.92  1003.01  1004.25  1037.84  1055.30
eigval :     1073.16  1079.87  1081.19  1082.24  1086.10  1116.85
eigval :     1120.53  1121.50  1123.55  1128.97  1147.40  1162.57
eigval :     1179.67  1179.83  1179.99  1180.44  1182.12  1189.49
eigval :     1192.66  1196.45  1199.06  1218.16  1231.53  1246.11
eigval :     1264.06  1268.76  1275.46  1277.81  1279.34  1280.50
eigval :     1281.81  1303.63  1309.36  1318.44  1320.49  1321.12
eigval :     1326.99  1329.98  1332.94  1346.51  1362.48  1395.30
eigval :     1418.32  1430.92  1431.73  1433.49  1436.90  1440.47
eigval :     1446.45  1463.57  1464.32  1465.27  1475.10  1481.64
eigval :     1496.07  1527.17  1538.08  1562.45  1569.43  1573.75
eigval :     1575.63  1577.39  1580.86  1584.50  1591.50  1594.70
eigval :     3044.97  3073.19  3074.07  3075.68  3077.24  3077.56
eigval :     3077.90  3078.90  3079.94  3080.90  3081.81  3082.11
eigval :     3085.78  3089.14  3090.09  3091.39  3091.85  3093.09
eigval :     3093.62  3099.32  3100.24  3101.23  3101.53  3102.39
eigval :     3103.49  3103.72  3111.72

   temp. (K)  partition function   enthalpy   heat capacity  entropy
                                   cal/mol     cal/K/mol   cal/K/mol   J/K/mol
 298.15  VIB  0.106E+17            19866.907    123.968    125.142
         ROT  0.902E+08              888.752      2.981     39.383
         INT  0.954E+24            20755.659    126.949    164.526
         TR   0.122E+29             1481.254      4.968     44.734
         TOT                       22236.9130   131.9175   209.2592   875.5405

       T/K    H(0)-H(T)+PV         H(T)/Eh          T*S/Eh         G(T)/Eh
   ------------------------------------------------------------------------
    298.15    0.354368E-01    0.562014E+00    0.994258E-01    0.462588E+00
   ------------------------------------------------------------------------

         :::::::::::::::::::::::::::::::::::::::::::::::::::::
         ::                  THERMODYNAMIC                  ::
         :::::::::::::::::::::::::::::::::::::::::::::::::::::
         :: total free energy        -107.438756817327 Eh   ::
         ::.................................................::
         :: total energy             -107.901344837970 Eh   ::
         :: zero point energy           0.526577043788 Eh   ::
         :: G(RRHO) w/o ZPVE           -0.063989023146 Eh   ::
         :: G(RRHO) contrib.            0.462588020643 Eh   ::
         :::::::::::::::::::::::::::::::::::::::::::::::::::::

           -------------------------------------------------
          | TOTAL ENERGY             -107.901344837970 Eh   |
          | TOTAL ENTHALPY           -107.339331017615 Eh   |
          | TOTAL FREE ENERGY        -107.438756817327 Eh   |
          | GRADIENT NORM               0.000093519510 Eh/α |
           -------------------------------------------------

 * finished run on 2025/07/18 at 15:03:20.319
