   * xtb version 6.7.1 (edcfbbe) compiled by 'albert@albert-system' on 2024-07-22

   ID    Z sym.   atoms
    1    6 C      1-9, 11-15, 17-23, 25-28, 30-54
    2    7 N      10, 29
    3    8 O      16, 24
    4    1 H      55-94

          program call               : xtb data2507/gas/o-Ac2BBP/o-Ac2BBP_gas_S0_crest.xyz --gfn 2 --ohess vtight --parallel 40 --molden --ceasefiles --namespace data2507/gas/o-Ac2BBP/o-Ac2BBP_gas_S0_finalOpt
          :  Hamiltonian                  GFN2-xTB          :
 * total energy  :  -141.4922217 Eh     change       -0.2338226E-08 Eh
 * total energy  :  -141.4922229 Eh     change       -0.1200407E-05 Eh
 * total energy  :  -141.4922242 Eh     change       -0.1293635E-05 Eh
 * total energy  :  -141.4922268 Eh     change       -0.2650712E-05 Eh
 * total energy  :  -141.4922288 Eh     change       -0.1946619E-05 Eh
 * total energy  :  -141.4922304 Eh     change       -0.1660568E-05 Eh
 * total energy  :  -141.4922327 Eh     change       -0.2246638E-05 Eh
 * total energy  :  -141.4922354 Eh     change       -0.2735256E-05 Eh
 * total energy  :  -141.4922375 Eh     change       -0.2094242E-05 Eh
 * total energy  :  -141.4922390 Eh     change       -0.1497629E-05 Eh
 * total energy  :  -141.4922751 Eh     change       -0.5884609E-06 Eh
 * total energy  :  -141.4922753 Eh     change       -0.2344756E-06 Eh
 * total energy  :  -141.4922754 Eh     change       -0.2599407E-07 Eh
 * total energy  :  -141.4922756 Eh     change       -0.2041942E-06 Eh
 * total energy  :  -141.4922758 Eh     change       -0.2109769E-06 Eh
 * total energy  :  -141.4922758 Eh     change        0.2857564E-07 Eh
 * total energy  :  -141.4922759 Eh     change       -0.1168225E-06 Eh
 * total energy  :  -141.4922759 Eh     change        0.1672436E-07 Eh
 * total energy  :  -141.4922759 Eh     change       -0.8013905E-07 Eh
   *** GEOMETRY OPTIMIZATION CONVERGED AFTER 34 ITERATIONS ***

 final structure:
================
94
 xtb: 6.7.1 (edcfbbe)
C           -5.55486977097186        3.81282739741453        0.95032302508897
C           -5.42671992669081        2.63049432465191       -0.02763047215929
C           -6.47702160519553        2.74713800605345       -1.14729753791022
C           -4.04920910475147        2.66213695301846       -0.65917038480029
C           -3.66560267040844        3.76836828640234       -1.40591412609056
C           -2.44314532550243        3.83402803957020       -2.04751035443774
C           -1.58232425000580        2.75405752347999       -1.97088607750793
C           -1.93618451125570        1.64646870928635       -1.23039741317697
C           -3.15219047574337        1.59612033215001       -0.54285855485408
N           -3.46540877790478        0.47375257911603        0.21273091903187
C           -2.48338509250574       -0.53118406443779        0.38580275619584
C           -1.33871045710577       -0.25809077635138        1.13134752578084
C           -0.38612536158538       -1.23602171715685        1.31194094769677
C           -0.55143342076332       -2.50351931246576        0.75109564306519
C            0.49341543709567       -3.51966442208205        1.02141775138714
O            1.24922693859186       -3.41109031524323        1.96820115542021
C            0.53959251600635       -4.72496472288428        0.14488217817635
C            0.66439424818862       -5.95772431998993        0.78016819729085
C            0.68285761167016       -7.13335519236339        0.05293161410291
C            0.57866135945884       -7.09181346532414       -1.32837439793395
C            0.47212307477271       -5.87326652010161       -1.97255627804020
C            0.46879807570621       -4.68193968255455       -1.25368104749185
C            0.38250994536758       -3.40804092169452       -2.02734117181849
O           -0.34860513941597       -3.32088589902703       -2.99817781582098
C            1.20054553378812       -2.29135073576001       -1.54268255079082
C            2.35308520066303       -2.45897518571619       -0.77072625698418
C            3.00282078327873       -1.37329321186241       -0.23403082559724
C            2.50838587658291       -0.07233331775969       -0.41752722604479
N            3.09017093036663        1.01057932750204        0.19529137540937
C            4.24635139426176        0.93249914185959        0.99961226479560
C            4.31210459645804        0.07029757139836        2.08713945758240
C            5.44359356482351        0.05097772877114        2.88099536161019
C            6.49300916821355        0.90904545519494        2.60543413263335
C            6.40592064679069        1.80109090330435        1.54956919248691
C            5.28604344001041        1.82970724870229        0.73357100189375
C            5.09921828684446        2.78002158237347       -0.43705625719354
C            5.25721873464226        1.99201746809896       -1.75329775702431
C            6.12208373915736        3.91546708642933       -0.43833976430418
C            3.67097069536119        3.28579235468788       -0.33198444719305
C            3.28743198390304        4.60651432980150       -0.50553742872232
C            1.96017777288192        4.98339477490724       -0.38315531839793
C            0.99667820568189        4.04770677194318       -0.05116444042956
C            1.36042679484251        2.72816225317092        0.13869165791564
C            2.68390375840420        2.34211986904765       -0.03232990709765
C            1.45043694425690        0.09724164512778       -1.32651181024383
C            0.81610433040962       -0.98909951029676       -1.87308867609813
C           -1.70594252915758       -2.77880340300772        0.02021983875304
C           -2.65924335341650       -1.79731881767520       -0.16626996983620
C           -4.69278890439663        0.34598633335848        0.85187183245768
C           -4.95200287112777       -0.77414682252751        1.64734011502312
C           -6.16799786741904       -0.93445503859799        2.27708215844171
C           -7.15015539172683        0.02864879750062        2.13506364469919
C           -6.88310117024752        1.15571302936920        1.38136040832969
C           -5.66641491899292        1.34417829344942        0.73931205752474
H           -6.54030949695157        3.83438776069830        1.40710513583071
H           -5.39676285805174        4.75841497581476        0.43901863011632
H           -4.81256497441024        3.72110086322972        1.74124146879812
H           -7.48366936114448        2.73723577692421       -0.73885590290728
H           -6.37718915155847        1.91003297622125       -1.83570798858779
H           -6.34667691987570        3.66875220639673       -1.70773994132134
H           -4.34025633721688        4.60627185044484       -1.49634060224002
H           -2.17400642469070        4.71155137643909       -2.61544329117831
H           -0.63621574414146        2.77220176549694       -2.49147421301276
H           -1.27118187638277        0.79895305532232       -1.19065320866342
H           -1.21703864637476        0.72107664172909        1.57185199881254
H            0.50154238747431       -1.04412617319786        1.89570398094776
H            0.73620810919528       -5.97531000571382        1.85775753315511
H            0.77538947745850       -8.08046872965567        0.56309709024916
H            0.58541105535152       -8.00666117417630       -1.90182478949036
H            0.39889855709606       -5.82050774544325       -3.04883474486531
H            2.76038398402936       -3.44612192243062       -0.60933845084323
H            3.90774315903609       -1.53213556173083        0.32949635929083
H            3.47461558692577       -0.57002517166673        2.31881388229628
H            5.49676509332223       -0.62524956164803        3.72050369215235
H            7.37872771870429        0.89707641439966        3.22256616468545
H            7.22799591147774        2.47480846579246        1.37062836781900
H            5.08567582394306        2.65212524230059       -2.60107538388867
H            4.55477462468644        1.16559004067694       -1.81692995777165
H            6.26551122736206        1.58909501332238       -1.82273095418660
H            7.12838181644256        3.51348867492950       -0.52560512204757
H            6.05278771052657        4.50509474970507        0.47309132044954
H            5.95910853601380        4.56518193112948       -1.29463909250679
H            4.02099876602607        5.35993332731643       -0.74222997684944
H            1.68232316364585        6.01557707312556       -0.53411909856676
H           -0.03561228301216        4.34020211422129        0.06718515368363
H            0.62296634609064        1.99604153275864        0.42914887956026
H            1.14209375436153        1.09055563668268       -1.60947337794940
H           -0.01265085339445       -0.85901131975905       -2.55355256103333
H           -1.86892680890402       -3.76250286982737       -0.39333942513555
H           -3.55171622298740       -2.00614788819747       -0.73696536212198
H           -4.18854036876343       -1.52452724293472        1.78106939349576
H           -6.34332145234281       -1.81187094984960        2.88147391718293
H           -8.10884426418201       -0.08790180652880        2.61677639541877
H           -7.64901016727663        1.91174843375291        1.29730755074882

          :  Hamiltonian                  GFN2-xTB          :
         :: gradient norm              0.000054884996 Eh/a0 ::
         :: HOMO-LUMO gap              1.525025935338 eV    ::
         :: SCC energy              -143.987278774656 Eh    ::
         :: -> dispersion             -0.146777820303 Eh    ::
         :: repulsion energy           2.495002839529 Eh    ::

    * Orbital Energies and Occupations

         #    Occupation            Energy/Eh            Energy/eV
      -------------------------------------------------------------
         1        2.0000           -0.7054714             -19.1969
       ...           ...                  ...                  ...
       119        2.0000           -0.4107409             -11.1768
       120        2.0000           -0.4069586             -11.0739
       121        2.0000           -0.4067347             -11.0678
       122        2.0000           -0.4057484             -11.0410
       123        2.0000           -0.4044750             -11.0063
       124        2.0000           -0.4035065             -10.9800
       125        2.0000           -0.4024894             -10.9523
       126        2.0000           -0.3968583             -10.7991
       127        2.0000           -0.3934672             -10.7068
       128        2.0000           -0.3915434             -10.6544
       129        2.0000           -0.3817399             -10.3877
       130        2.0000           -0.3602813              -9.8038
       131        2.0000           -0.3464721              -9.4280 (HOMO)
       132                         -0.2904283              -7.9030 (LUMO)
       133                         -0.2763690              -7.5204
       134                         -0.2435167              -6.6264
       135                         -0.2389403              -6.5019
       136                         -0.2374469              -6.4613
       137                         -0.2334338              -6.3521
       138                         -0.2289986              -6.2314
       139                         -0.2260395              -6.1508
       140                         -0.2241729              -6.1001
       141                         -0.2234831              -6.0813
       142                         -0.2217901              -6.0352
       ...                                ...                  ...
       256                          0.6881757              18.7262
      -------------------------------------------------------------
                  HL-Gap            0.0560438 Eh            1.5250 eV

     #   Z          covCN         q      C6AA      α(0)
     1   6 C        3.761    -0.103    22.509     6.763
     2   6 C        3.909     0.022    20.154     6.381
     3   6 C        3.761    -0.103    22.517     6.764
     4   6 C        2.980    -0.013    28.338     8.732
     5   6 C        2.928    -0.036    28.905     8.817
     6   6 C        2.917    -0.044    29.103     8.846
     7   6 C        2.920    -0.031    28.768     8.796
     8   6 C        2.925    -0.059    29.477     8.904
     9   6 C        2.928     0.058    26.702     8.474
    10   7 N        2.753    -0.068    22.549     7.053
    11   6 C        2.927     0.076    26.306     8.411
    12   6 C        2.920    -0.038    28.944     8.822
    13   6 C        2.925    -0.018    28.453     8.748
    14   6 C        2.972    -0.017    28.420     8.744
    15   6 C        2.829     0.228    23.215     7.895
    16   8 O        0.858    -0.377    21.227     6.177
    17   6 C        2.971    -0.010    28.271     8.722
    18   6 C        2.926    -0.020    28.502     8.755
    19   6 C        2.918    -0.025    28.626     8.774
    20   6 C        2.918    -0.025    28.619     8.773
    21   6 C        2.925    -0.019    28.490     8.753
    22   6 C        2.972    -0.009    28.249     8.718
    23   6 C        2.829     0.222    23.330     7.915
    24   8 O        0.858    -0.388    21.441     6.208
    25   6 C        2.972    -0.033    28.823     8.806
    26   6 C        2.920    -0.024    28.613     8.772
    27   6 C        2.922    -0.054    29.354     8.885
    28   6 C        2.913     0.074    26.355     8.418
    29   7 N        2.754    -0.060    22.408     7.031
    30   6 C        2.951     0.055    26.771     8.486
    31   6 C        2.920    -0.045    29.116     8.849
    32   6 C        2.920    -0.032    28.798     8.800
    33   6 C        2.919    -0.036    28.903     8.816
    34   6 C        2.923    -0.038    28.949     8.823
    35   6 C        2.987    -0.007    28.187     8.709
    36   6 C        3.911     0.023    20.133     6.378
    37   6 C        3.762    -0.099    22.435     6.752
    38   6 C        3.759    -0.107    22.592     6.776
    39   6 C        2.987    -0.007    28.179     8.708
    40   6 C        2.923    -0.038    28.945     8.823
    41   6 C        2.919    -0.036    28.893     8.815
    42   6 C        2.920    -0.031    28.784     8.798
    43   6 C        2.921    -0.045    29.108     8.847
    44   6 C        2.951     0.055    26.763     8.485
    45   6 C        2.922    -0.059    29.457     8.900
    46   6 C        2.925    -0.021    28.529     8.759
    47   6 C        2.919    -0.023    28.591     8.768
    48   6 C        2.920    -0.035    28.871     8.811
    49   6 C        2.926     0.058    26.701     8.474
    50   6 C        2.924    -0.059    29.456     8.900
    51   6 C        2.920    -0.033    28.811     8.802
    52   6 C        2.917    -0.044    29.090     8.844
    53   6 C        2.928    -0.036    28.897     8.816
    54   6 C        2.980    -0.013    28.338     8.732
    55   1 H        0.925     0.039     2.458     2.452
    56   1 H        0.925     0.039     2.461     2.453
    57   1 H        0.925     0.031     2.576     2.510
    58   1 H        0.925     0.039     2.458     2.452
    59   1 H        0.925     0.032     2.552     2.498
    60   1 H        0.925     0.039     2.459     2.452
    61   1 H        0.926     0.030     2.589     2.516
    62   1 H        0.926     0.026     2.651     2.546
    63   1 H        0.926     0.025     2.665     2.553
    64   1 H        0.926     0.029     2.602     2.523
    65   1 H        0.926     0.044     2.398     2.422
    66   1 H        0.926     0.057     2.237     2.339
    67   1 H        0.926     0.052     2.294     2.369
    68   1 H        0.926     0.042     2.421     2.433
    69   1 H        0.926     0.042     2.419     2.432
    70   1 H        0.926     0.056     2.251     2.346
    71   1 H        0.926     0.036     2.501     2.473
    72   1 H        0.926     0.043     2.406     2.426
    73   1 H        0.926     0.047     2.359     2.402
    74   1 H        0.926     0.038     2.471     2.458
    75   1 H        0.926     0.034     2.529     2.487
    76   1 H        0.926     0.040     2.450     2.448
    77   1 H        0.925     0.039     2.459     2.452
    78   1 H        0.925     0.037     2.495     2.470
    79   1 H        0.925     0.039     2.460     2.453
    80   1 H        0.925     0.041     2.432     2.439
    81   1 H        0.925     0.039     2.464     2.455
    82   1 H        0.925     0.041     2.433     2.439
    83   1 H        0.926     0.040     2.443     2.444
    84   1 H        0.926     0.034     2.524     2.485
    85   1 H        0.926     0.037     2.489     2.467
    86   1 H        0.926     0.040     2.453     2.449
    87   1 H        0.926     0.042     2.427     2.436
    88   1 H        0.926     0.053     2.288     2.365
    89   1 H        0.926     0.045     2.378     2.412
    90   1 H        0.926     0.052     2.297     2.370
    91   1 H        0.926     0.025     2.659     2.550
    92   1 H        0.926     0.028     2.615     2.529
    93   1 H        0.926     0.027     2.632     2.537
    94   1 H        0.926     0.031     2.579     2.511

molecular dipole:
                 x           y           z       tot (Debye)
 q only:        0.766       1.101       0.351
   full:        0.771       0.923       0.359       3.188

 projected vibrational frequencies (cm⁻¹)
eigval :       -0.00    -0.00    -0.00    -0.00     0.00     0.00
eigval :        9.38    14.54    18.08    21.40    31.73    36.71
eigval :       39.82    48.88    50.70    61.14    63.83    68.45
eigval :       85.42    95.11   100.37   107.36   113.24   124.19
eigval :      129.11   134.47   137.60   149.23   154.11   165.21
eigval :      180.90   187.00   190.21   193.44   195.96   210.21
eigval :      219.91   221.36   232.71   238.46   257.61   279.73
eigval :      283.55   287.36   299.81   305.84   316.07   325.99
eigval :      332.42   335.83   343.68   350.28   356.21   360.76
eigval :      368.40   376.99   379.15   382.85   393.72   400.53
eigval :      404.83   407.20   412.01   412.29   453.96   457.26
eigval :      462.78   465.67   474.60   488.02   497.52   500.88
eigval :      513.76   515.63   537.99   548.12   551.97   559.10
eigval :      561.46   566.08   574.25   580.92   590.69   590.83
eigval :      606.80   610.97   615.08   626.81   636.41   651.82
eigval :      657.46   672.85   683.22   689.88   693.19   694.39
eigval :      699.85   712.25   725.08   726.46   746.25   749.47
eigval :      763.44   777.85   779.11   780.76   786.51   790.13
eigval :      810.31   819.76   824.09   829.92   858.07   867.97
eigval :      871.71   876.40   887.21   888.09   889.43   891.57
eigval :      904.21   908.11   913.45   914.18   914.56   915.86
eigval :      917.61   921.32   921.63   922.27   924.21   925.37
eigval :      926.98   931.57   932.71   936.30   939.53   943.68
eigval :      948.53   948.90   957.34   958.19   968.90  1010.27
eigval :     1014.50  1015.73  1021.36  1074.04  1077.27  1080.62
eigval :     1086.22  1093.50  1098.04  1100.43  1106.56  1115.91
eigval :     1122.13  1130.87  1138.46  1141.09  1152.07  1152.93
eigval :     1160.31  1169.72  1172.99  1175.22  1177.90  1181.22
eigval :     1183.41  1186.19  1188.72  1190.57  1192.94  1199.99
eigval :     1207.23  1216.51  1231.02  1240.23  1245.22  1251.88
eigval :     1255.74  1259.61  1261.50  1265.51  1271.36  1273.59
eigval :     1274.47  1276.56  1295.21  1295.77  1313.94  1316.83
eigval :     1319.75  1321.51  1327.49  1327.90  1335.45  1340.57
eigval :     1342.12  1357.44  1399.89  1402.93  1403.86  1414.69
eigval :     1416.98  1421.14  1423.22  1436.83  1439.65  1442.86
eigval :     1444.82  1453.36  1454.49  1472.12  1472.61  1479.36
eigval :     1490.02  1491.10  1493.51  1494.89  1496.20  1497.65
eigval :     1500.61  1505.35  1507.92  1523.61  1541.06  1558.32
eigval :     1564.89  1575.88  1576.95  1580.73  1583.82  1584.08
eigval :     1587.22  1589.16  1591.47  1593.45  1600.14  1603.00
eigval :     1677.18  1683.75  3025.99  3027.49  3029.31  3029.89
eigval :     3032.24  3035.27  3039.59  3042.28  3046.49  3048.67
eigval :     3052.46  3054.62  3076.55  3079.30  3079.67  3080.72
eigval :     3082.63  3083.74  3084.12  3084.15  3084.61  3086.50
eigval :     3088.25  3089.13  3091.15  3092.92  3093.07  3095.15
eigval :     3095.83  3097.23  3097.95  3099.85  3100.83  3103.35
eigval :     3103.68  3111.96  3112.47  3112.50  3113.77  3117.12

   temp. (K)  partition function   enthalpy   heat capacity  entropy
                                   cal/mol     cal/K/mol   cal/K/mol   J/K/mol
 298.15  VIB  0.860E+20            26899.074    170.888    165.622
         ROT  0.928E+08              888.752      2.981     39.438
         INT  0.798E+28            27787.826    173.869    205.060
         TR   0.180E+29             1481.254      4.968     45.501
         TOT                       29269.0799   178.8374   250.5612  1048.3482

       T/K    H(0)-H(T)+PV         H(T)/Eh          T*S/Eh         G(T)/Eh
   ------------------------------------------------------------------------
    298.15    0.466432E-01    0.790214E+00    0.119050E+00    0.671164E+00
   ------------------------------------------------------------------------

         :::::::::::::::::::::::::::::::::::::::::::::::::::::
         ::                  THERMODYNAMIC                  ::
         :::::::::::::::::::::::::::::::::::::::::::::::::::::
         :: total free energy        -140.821112053614 Eh   ::
         ::.................................................::
         :: total energy             -141.492275935126 Eh   ::
         :: zero point energy           0.743570358026 Eh   ::
         :: G(RRHO) w/o ZPVE           -0.072406476514 Eh   ::
         :: G(RRHO) contrib.            0.671163881512 Eh   ::
         :::::::::::::::::::::::::::::::::::::::::::::::::::::

           -------------------------------------------------
          | TOTAL ENERGY             -141.492275935126 Eh   |
          | TOTAL ENTHALPY           -140.702062329354 Eh   |
          | TOTAL FREE ENERGY        -140.821112053614 Eh   |
          | GRADIENT NORM               0.000054937809 Eh/α |
          | HOMO-LUMO GAP               1.525028769735 eV   |
           -------------------------------------------------

 * finished run on 2025/08/23 at 02:04:47.970
