   * xtb version 6.7.1 (edcfbbe) compiled by 'albert@albert-system' on 2024-07-22

   ID    Z sym.   atoms
    1    6 C      1-9, 11-15, 17-23, 25-28, 30-54
    2    7 N      10, 29
    3    8 O      16, 24
    4    1 H      55-94

          program call               : xtb data2507/gas/o-Ac2BBP/o-Ac2BBP.xyz --gfn 2 --ohess vtight --parallel 40 --molden --ceasefiles --namespace data2507/gas/o-Ac2BBP/o-Ac2BBP_gas_S0_preOpt
          :  Hamiltonian                  GFN2-xTB          :
 * total energy  :  -141.4470987 Eh     change       -0.7544855E-08 Eh
 * total energy  :  -141.4672234 Eh     change       -0.2012470E-01 Eh
 * total energy  :  -141.4741818 Eh     change       -0.6958435E-02 Eh
 * total energy  :  -141.4756682 Eh     change       -0.1486349E-02 Eh
 * total energy  :  -141.4767903 Eh     change       -0.1122092E-02 Eh
 * total energy  :  -141.4774420 Eh     change       -0.6516715E-03 Eh
 * total energy  :  -141.4777831 Eh     change       -0.3411780E-03 Eh
 * total energy  :  -141.4779519 Eh     change       -0.1687336E-03 Eh
 * total energy  :  -141.4780225 Eh     change       -0.7063350E-04 Eh
 * total energy  :  -141.4780650 Eh     change       -0.4245665E-04 Eh
 * total energy  :  -141.4902806 Eh     change       -0.8704146E-06 Eh
 * total energy  :  -141.4902814 Eh     change       -0.7719473E-06 Eh
 * total energy  :  -141.4902821 Eh     change       -0.6616703E-06 Eh
 * total energy  :  -141.4902826 Eh     change       -0.5716927E-06 Eh
 * total energy  :  -141.4902833 Eh     change       -0.6657608E-06 Eh
 * total energy  :  -141.4902840 Eh     change       -0.7153667E-06 Eh
 * total energy  :  -141.4902846 Eh     change       -0.6090515E-06 Eh
 * total energy  :  -141.4902851 Eh     change       -0.4667922E-06 Eh
 * total energy  :  -141.4902851 Eh     change       -0.6964513E-08 Eh
   *** GEOMETRY OPTIMIZATION CONVERGED AFTER 420 ITERATIONS ***

 final structure:
================
94
 xtb: 6.7.1 (edcfbbe)
C           -5.47439036131489        3.86110796136888        0.41130237615623
C           -5.18258928985715        2.68546708830727       -0.53933484543902
C           -5.91622591657334        2.88551033578058       -1.87801468376533
C           -3.69339276857621        2.63232177629984       -0.81520266283654
C           -3.07102496402033        3.73024398639261       -1.39500030950566
C           -1.72775464182493        3.72799176725528       -1.71847047025574
C           -0.98516926518214        2.58245585577292       -1.49914243707052
C           -1.58016388292967        1.47698619293634       -0.93007183882686
C           -2.92290828307231        1.49818681443994       -0.54111062613962
N           -3.48292266432603        0.38217508053456        0.07379016000544
C           -2.64862264004053       -0.70432393044703        0.41437819094744
C           -1.60943744817346       -0.52405580954870        1.32673534881958
C           -0.79369116145321       -1.58119896812783        1.65983501471177
C           -0.99753954870699       -2.84391687644678        1.09908157711617
C           -0.09752446391185       -3.93569755475521        1.52958448959095
O            0.55384694376926       -3.85683623619335        2.55361701369433
C           -0.04196873210152       -5.17067138563967        0.69603571056524
C           -0.05306112213708       -6.38610145647169        1.37552936278448
C           -0.02627848659844       -7.58561668383650        0.68906480228391
C            0.01499065624075       -7.58546737663376       -0.69613424293343
C            0.04258630694663       -6.38580227644029       -1.38230519748665
C            0.03242456250972       -5.17055400681856       -0.70249046837146
C            0.08980740922528       -3.93536206132342       -1.53557353507190
O           -0.56140885345965       -3.85486283109477       -2.55956427477369
C            0.99169688042546       -2.84551041937242       -1.10424584417271
C            2.05103874756594       -3.03433743752933       -0.21701971552951
C            2.86034197127762       -1.97207496245842        0.13291074155199
C            2.64631277108696       -0.70949084947189       -0.41706406665867
N            3.48256789377242        0.37494158693014       -0.07502487491646
C            2.92445487360320        1.49238094369648        0.53904496508333
C            1.58084327006958        1.47506765714516        0.92514154339775
C            0.98762684541830        2.58245130064874        1.49234214614701
C            1.73290428334421        3.72605437923297        1.71260574476308
C            3.07704559192553        3.72414987591471        1.39280259426465
C            3.69771319071180        2.62415933974680        0.81511010567251
C            5.18822457951691        2.67180194948483        0.54533450883367
C            5.91667857348329        2.86455317067487        1.88794355284138
C            5.48955366076134        3.84894833486100       -0.40041168390420
C            5.68423680981466        1.39626844759103       -0.10652048637346
C            7.02797451527320        1.28693073750236       -0.44030783332466
C            7.53595499725476        0.18082786974758       -1.09388395338964
C            6.67499454290120       -0.83818925126029       -1.45813418795086
C            5.33806578824156       -0.75837332807484       -1.13105171633073
C            4.83028984858903        0.33421490847010       -0.42122622228132
C            1.60767249641971       -0.52652443106022       -1.32952461199520
C            0.79014430635465       -1.58191105161892       -1.66381896711724
C           -2.05728221664302       -3.02997158161003        0.21176931505984
C           -2.86486705236695       -1.96594345339757       -0.13690668285340
C           -4.83020678533809        0.34482744953740        0.42203510143213
C           -5.34026654733985       -0.74777391414742        1.13018137268045
C           -6.67676059882213       -0.82377410668188        1.45997324252245
C           -7.53494376925441        0.19920842872664        1.10032877500963
C           -7.02461356962826        1.30497794234402        0.44803095288578
C           -5.68133343316186        1.41028829641820        0.11113805240994
H           -5.14115800659423        4.80128726085514       -0.01894182390054
H           -4.95355406755338        3.71128790479517        1.35528256086153
H           -6.53810763324313        3.94081120543353        0.61659331597335
H           -5.59370216437273        3.80233648513712       -2.36367204025861
H           -6.99086952673536        2.93942002566075       -1.72775782950430
H           -5.70369536367535        2.05142786036620       -2.54417676100151
H           -3.64946157582584        4.61730552041861       -1.60378728794403
H           -1.27204443722117        4.60358999705929       -2.15450530073601
H            0.05931969889628        2.54926869000495       -1.77034006272632
H           -0.99846335618284        0.58002359882818       -0.79075329654768
H           -1.45813945865756        0.44809366903503        1.77155113218659
H            0.01312711876587       -1.45778487415167        2.36711687451575
H           -0.09265572090221       -6.36871591417041        2.45467792179462
H           -0.04045760219502       -8.51804355150715        1.23299042782998
H            0.02878466648532       -8.51777572308174       -1.24027457490812
H            0.08234374194800       -6.36815223790558       -2.46144532617986
H            2.25738309522432       -4.01232503263456        0.19037552156246
H            3.67049118140804       -2.11467190837973        0.83225768572710
H            0.99699560763880        0.57961711239887        0.78520086612614
H           -0.05753633874777        2.55228692149078        1.76125943186000
H            1.27856918047110        4.60322141683717        2.14689489779643
H            3.65760738604686        4.60946401935383        1.60305160411118
H            5.59618582302537        3.78155215645717        2.37466258698446
H            6.99226068121761        2.91364104971897        1.74272787516148
H            5.69705441690725        2.02961432685356        2.55074052291485
H            5.15933658903345        4.78945784245172        0.03139605750440
H            4.97181471645457        3.70464414123361       -1.34694368263810
H            6.55445696095980        3.92416929103639       -0.60115845812798
H            7.70296603131961        2.09051781933126       -0.18795135794097
H            8.58699666447561        0.12526258733493       -1.33214874169024
H            7.03972185295639       -1.69708630089147       -2.00129507565708
H            4.67658874614396       -1.55173437022720       -1.44167498767669
H            1.45819789392180        0.44629711454863       -1.77347657026670
H           -0.01632467483690       -1.45640741239472       -2.37113464010919
H           -2.26526169282191       -4.00715045324218       -0.19673667077534
H           -3.67533404337075       -2.10644869559736       -0.83630982087334
H           -4.68089546123071       -1.54420723445260        1.43739610965542
H           -7.04329244641199       -1.68275974160650        2.00178238377581
H           -8.58557602149836        0.14689224292841        1.34115633271337
H           -7.69731431056824        2.11161295516626        0.19928387865895

          :  Hamiltonian                  GFN2-xTB          :
         :: gradient norm              0.000070669755 Eh/a0 ::
         :: HOMO-LUMO gap              1.366597999789 eV    ::
         :: SCC energy              -143.984745326808 Eh    ::
         :: -> dispersion             -0.144966535327 Eh    ::
         :: repulsion energy           2.494460229853 Eh    ::

    * Orbital Energies and Occupations

         #    Occupation            Energy/Eh            Energy/eV
      -------------------------------------------------------------
         1        2.0000           -0.7102766             -19.3276
       ...           ...                  ...                  ...
       119        2.0000           -0.4089087             -11.1270
       120        2.0000           -0.4087990             -11.1240
       121        2.0000           -0.4087242             -11.1220
       122        2.0000           -0.4051067             -11.0235
       123        2.0000           -0.4049166             -11.0183
       124        2.0000           -0.4008190             -10.9068
       125        2.0000           -0.3993055             -10.8657
       126        2.0000           -0.3984503             -10.8424
       127        2.0000           -0.3941415             -10.7251
       128        2.0000           -0.3931231             -10.6974
       129        2.0000           -0.3923354             -10.6760
       130        2.0000           -0.3499043              -9.5214
       131        2.0000           -0.3492836              -9.5045 (HOMO)
       132                         -0.2990621              -8.1379 (LUMO)
       133                         -0.2883934              -7.8476
       134                         -0.2497218              -6.7953
       135                         -0.2435871              -6.6283
       136                         -0.2417915              -6.5795
       137                         -0.2415305              -6.5724
       138                         -0.2263422              -6.1591
       139                         -0.2256536              -6.1403
       140                         -0.2208653              -6.0100
       141                         -0.2205472              -6.0014
       142                         -0.2195446              -5.9741
       ...                                ...                  ...
       256                          0.6807598              18.5244
      -------------------------------------------------------------
                  HL-Gap            0.0502216 Eh            1.3666 eV

     #   Z          covCN         q      C6AA      α(0)
     1   6 C        3.761    -0.103    22.521     6.765
     2   6 C        3.910     0.022    20.152     6.381
     3   6 C        3.761    -0.103    22.521     6.765
     4   6 C        2.980    -0.012    28.314     8.728
     5   6 C        2.928    -0.036    28.891     8.815
     6   6 C        2.917    -0.043    29.060     8.840
     7   6 C        2.920    -0.030    28.746     8.792
     8   6 C        2.925    -0.057    29.416     8.894
     9   6 C        2.927     0.057    26.711     8.476
    10   7 N        2.753    -0.065    22.497     7.045
    11   6 C        2.927     0.076    26.300     8.410
    12   6 C        2.920    -0.038    28.956     8.824
    13   6 C        2.925    -0.020    28.500     8.755
    14   6 C        2.972    -0.020    28.512     8.759
    15   6 C        2.830     0.226    23.265     7.904
    16   8 O        0.858    -0.373    21.151     6.166
    17   6 C        2.971    -0.010    28.258     8.720
    18   6 C        2.926    -0.019    28.479     8.752
    19   6 C        2.918    -0.024    28.593     8.769
    20   6 C        2.918    -0.024    28.593     8.769
    21   6 C        2.926    -0.019    28.479     8.752
    22   6 C        2.971    -0.010    28.258     8.720
    23   6 C        2.830     0.226    23.265     7.904
    24   8 O        0.858    -0.373    21.151     6.166
    25   6 C        2.972    -0.020    28.512     8.759
    26   6 C        2.919    -0.025    28.622     8.773
    27   6 C        2.920    -0.036    28.907     8.817
    28   6 C        2.927     0.076    26.300     8.410
    29   7 N        2.753    -0.065    22.496     7.044
    30   6 C        2.927     0.057    26.711     8.476
    31   6 C        2.925    -0.057    29.416     8.894
    32   6 C        2.920    -0.030    28.747     8.792
    33   6 C        2.917    -0.043    29.060     8.840
    34   6 C        2.928    -0.036    28.891     8.815
    35   6 C        2.980    -0.012    28.314     8.728
    36   6 C        3.910     0.022    20.152     6.381
    37   6 C        3.761    -0.103    22.520     6.765
    38   6 C        3.761    -0.103    22.522     6.765
    39   6 C        2.980    -0.012    28.314     8.728
    40   6 C        2.928    -0.036    28.892     8.815
    41   6 C        2.917    -0.043    29.070     8.841
    42   6 C        2.920    -0.032    28.809     8.802
    43   6 C        2.924    -0.058    29.445     8.899
    44   6 C        2.926     0.058    26.709     8.475
    45   6 C        2.920    -0.038    28.956     8.824
    46   6 C        2.925    -0.020    28.500     8.755
    47   6 C        2.919    -0.025    28.622     8.773
    48   6 C        2.920    -0.036    28.907     8.817
    49   6 C        2.926     0.058    26.709     8.475
    50   6 C        2.924    -0.058    29.446     8.899
    51   6 C        2.920    -0.032    28.809     8.802
    52   6 C        2.917    -0.043    29.070     8.841
    53   6 C        2.928    -0.036    28.892     8.815
    54   6 C        2.980    -0.012    28.314     8.728
    55   1 H        0.925     0.040     2.448     2.447
    56   1 H        0.925     0.032     2.565     2.504
    57   1 H        0.925     0.040     2.450     2.448
    58   1 H        0.925     0.040     2.451     2.448
    59   1 H        0.925     0.040     2.450     2.448
    60   1 H        0.925     0.033     2.550     2.497
    61   1 H        0.926     0.032     2.563     2.504
    62   1 H        0.926     0.028     2.618     2.530
    63   1 H        0.926     0.025     2.664     2.552
    64   1 H        0.926     0.026     2.639     2.541
    65   1 H        0.926     0.050     2.326     2.385
    66   1 H        0.926     0.061     2.182     2.310
    67   1 H        0.926     0.056     2.248     2.345
    68   1 H        0.926     0.045     2.385     2.415
    69   1 H        0.926     0.045     2.385     2.415
    70   1 H        0.926     0.056     2.248     2.345
    71   1 H        0.926     0.045     2.382     2.413
    72   1 H        0.926     0.052     2.292     2.368
    73   1 H        0.926     0.026     2.639     2.540
    74   1 H        0.926     0.025     2.663     2.552
    75   1 H        0.926     0.028     2.618     2.530
    76   1 H        0.926     0.032     2.563     2.504
    77   1 H        0.925     0.040     2.451     2.448
    78   1 H        0.925     0.040     2.450     2.448
    79   1 H        0.925     0.033     2.551     2.497
    80   1 H        0.925     0.040     2.448     2.447
    81   1 H        0.925     0.032     2.564     2.504
    82   1 H        0.925     0.040     2.450     2.448
    83   1 H        0.926     0.032     2.563     2.504
    84   1 H        0.926     0.028     2.616     2.529
    85   1 H        0.926     0.029     2.603     2.523
    86   1 H        0.926     0.026     2.641     2.542
    87   1 H        0.926     0.050     2.326     2.385
    88   1 H        0.926     0.061     2.182     2.310
    89   1 H        0.926     0.045     2.381     2.413
    90   1 H        0.926     0.052     2.292     2.368
    91   1 H        0.926     0.026     2.642     2.542
    92   1 H        0.926     0.029     2.603     2.523
    93   1 H        0.926     0.028     2.616     2.529
    94   1 H        0.926     0.032     2.563     2.504

molecular dipole:
                 x           y           z       tot (Debye)
 q only:        0.002       0.366       0.002
   full:        0.002       0.194       0.002       0.493

 projected vibrational frequencies (cm⁻¹)
eigval :       -0.00    -0.00     0.00     0.00     0.00     0.00
eigval :        9.14    10.74    16.76    19.85    26.71    35.19
eigval :       38.16    41.99    47.94    52.16    63.05    66.76
eigval :       83.69    87.24   100.91   102.34   108.93   117.53
eigval :      119.82   127.34   127.95   137.14   137.58   155.64
eigval :      162.82   176.49   186.80   189.33   189.62   217.25
eigval :      218.02   218.32   225.72   239.38   240.69   242.82
eigval :      263.15   298.88   299.32   301.56   316.14   317.33
eigval :      333.52   333.65   342.88   344.33   354.05   363.21
eigval :      371.59   375.57   376.96   379.74   384.60   386.62
eigval :      395.29   404.26   411.67   412.06   455.47   457.50
eigval :      465.03   465.11   479.96   490.23   500.13   501.96
eigval :      514.64   514.96   537.88   547.69   548.41   552.82
eigval :      561.51   561.78   580.56   581.76   590.38   590.40
eigval :      607.56   612.19   613.09   631.44   643.99   652.44
eigval :      662.85   673.11   683.77   683.93   693.14   695.03
eigval :      695.05   702.18   714.26   729.85   748.70   751.57
eigval :      764.62   775.95   777.97   778.80   779.37   790.40
eigval :      822.80   824.41   831.84   833.60   867.57   869.74
eigval :      870.85   877.05   881.74   882.38   888.26   890.81
eigval :      904.33   911.98   913.14   914.62   914.71   915.48
eigval :      915.56   919.77   920.51   921.92   921.93   922.83
eigval :      931.61   932.01   933.75   935.94   937.64   938.35
eigval :      938.95   940.52   957.46   957.47   959.33  1014.57
eigval :     1014.60  1016.36  1021.04  1076.94  1077.23  1085.21
eigval :     1086.00  1094.87  1099.26  1117.18  1117.24  1122.56
eigval :     1122.77  1133.03  1133.77  1141.53  1141.57  1160.18
eigval :     1160.19  1169.05  1172.86  1173.94  1177.98  1178.17
eigval :     1184.08  1187.74  1188.82  1190.24  1190.41  1191.26
eigval :     1205.91  1212.61  1238.85  1245.34  1245.94  1251.22
eigval :     1251.78  1255.38  1261.56  1262.02  1268.61  1270.90
eigval :     1271.61  1295.87  1295.90  1313.71  1314.11  1317.61
eigval :     1318.24  1319.92  1329.76  1329.80  1334.68  1334.98
eigval :     1335.47  1337.07  1403.24  1403.24  1404.70  1404.97
eigval :     1412.57  1421.34  1421.34  1436.15  1436.21  1441.08
eigval :     1441.66  1454.75  1471.82  1472.27  1477.44  1478.00
eigval :     1489.61  1489.63  1490.71  1490.73  1495.01  1495.14
eigval :     1500.43  1500.47  1504.87  1504.99  1555.22  1555.47
eigval :     1565.01  1576.05  1576.08  1579.51  1581.87  1581.88
eigval :     1591.13  1591.16  1593.32  1593.58  1602.66  1602.82
eigval :     1680.68  1684.61  3027.03  3027.07  3029.36  3029.41
eigval :     3040.47  3040.55  3043.44  3043.54  3049.21  3049.33
eigval :     3053.59  3053.71  3079.63  3080.07  3080.35  3080.40
eigval :     3083.20  3085.01  3085.24  3085.30  3085.40  3088.30
eigval :     3088.43  3088.54  3089.71  3089.96  3094.58  3096.72
eigval :     3096.84  3097.43  3098.18  3098.27  3098.41  3099.92
eigval :     3100.37  3100.49  3104.93  3104.95  3109.25  3113.68

   temp. (K)  partition function   enthalpy   heat capacity  entropy
                                   cal/mol     cal/K/mol   cal/K/mol   J/K/mol
 298.15  VIB  0.576E+21            27185.892    170.660    168.698
         ROT  0.482E+08              888.752      2.981     38.136
         INT  0.277E+29            28074.644    173.641    206.834
         TR   0.180E+29             1481.254      4.968     45.501
         TOT                       29555.8980   178.6087   252.3359  1055.7732

       T/K    H(0)-H(T)+PV         H(T)/Eh          T*S/Eh         G(T)/Eh
   ------------------------------------------------------------------------
    298.15    0.471003E-01    0.789946E+00    0.119893E+00    0.670053E+00
   ------------------------------------------------------------------------

         :::::::::::::::::::::::::::::::::::::::::::::::::::::
         ::                  THERMODYNAMIC                  ::
         :::::::::::::::::::::::::::::::::::::::::::::::::::::
         :: total free energy        -140.820231718403 Eh   ::
         ::.................................................::
         :: total energy             -141.490285096955 Eh   ::
         :: zero point energy           0.742845962756 Eh   ::
         :: G(RRHO) w/o ZPVE           -0.072792584204 Eh   ::
         :: G(RRHO) contrib.            0.670053378552 Eh   ::
         :::::::::::::::::::::::::::::::::::::::::::::::::::::

           -------------------------------------------------
          | TOTAL ENERGY             -141.490285096955 Eh   |
          | TOTAL ENTHALPY           -140.700338812654 Eh   |
          | TOTAL FREE ENERGY        -140.820231718403 Eh   |
          | GRADIENT NORM               0.000070669033 Eh/α |
          | HOMO-LUMO GAP               1.366598318481 eV   |
           -------------------------------------------------

 * finished run on 2025/08/23 at 01:57:55.968
