   * xtb version 6.7.1 (edcfbbe) compiled by 'albert@albert-system' on 2024-07-22

   ID    Z sym.   atoms
    1    6 C      1-9, 11-15, 17-23, 25-28, 30-54
    2    7 N      10, 29
    3    8 O      16, 24
    4    1 H      55-94

          program call               : xtb data2507/gas/o-Ac2BBP/o-Ac2BBP_gas_S0_finalOpt.xtbopt.xyz --gfn 2 --spinpol --tblite --uhf 2 --ohess vtight --parallel 40 --molden --ceasefiles --namespace data2507/gas/o-Ac2BBP/o-Ac2BBP_gas_T1_preOpt
 * total energy  :  -141.4123922 Eh     change       -0.4359154E-07 Eh
 * total energy  :  -141.4150069 Eh     change       -0.2614716E-02 Eh
 * total energy  :  -141.4159600 Eh     change       -0.9531063E-03 Eh
 * total energy  :  -141.4162326 Eh     change       -0.2725393E-03 Eh
 * total energy  :  -141.4164735 Eh     change       -0.2409434E-03 Eh
 * total energy  :  -141.4166141 Eh     change       -0.1405645E-03 Eh
 * total energy  :  -141.4166994 Eh     change       -0.8536887E-04 Eh
 * total energy  :  -141.4167354 Eh     change       -0.3598202E-04 Eh
 * total energy  :  -141.4167521 Eh     change       -0.1665407E-04 Eh
 * total energy  :  -141.4167618 Eh     change       -0.9731866E-05 Eh
 * total energy  :  -141.4167953 Eh     change       -0.4412219E-06 Eh
 * total energy  :  -141.4167956 Eh     change       -0.2701263E-06 Eh
 * total energy  :  -141.4167959 Eh     change       -0.3151279E-06 Eh
 * total energy  :  -141.4167961 Eh     change       -0.1903148E-06 Eh
 * total energy  :  -141.4167962 Eh     change       -0.1219147E-06 Eh
 * total energy  :  -141.4167964 Eh     change       -0.1286828E-06 Eh
 * total energy  :  -141.4167963 Eh     change        0.1465591E-07 Eh
 * total energy  :  -141.4167965 Eh     change       -0.1129450E-06 Eh
 * total energy  :  -141.4167965 Eh     change       -0.7753360E-07 Eh
   *** GEOMETRY OPTIMIZATION CONVERGED AFTER 43 ITERATIONS ***

 final structure:
================
94
 xtb: 6.7.1 (edcfbbe)
C           -5.58933259277891        3.82855287150847        0.90844046520007
C           -5.45277117531499        2.63015685246999       -0.04977910978364
C           -6.51035506052225        2.71763222275524       -1.16631551162403
C           -4.08055879052389        2.66506160300381       -0.68820306515548
C           -3.70243734729772        3.76542862347095       -1.44527509445985
C           -2.47752659645463        3.83009446889436       -2.08354155281958
C           -1.60511606388440        2.75752083947477       -1.99162264192612
C           -1.95144378658576        1.65547618866314       -1.24308010679416
C           -3.17488361930532        1.60210476199714       -0.56168665923737
N           -3.47484757975195        0.49545218066173        0.20772256363603
C           -2.48854599827909       -0.51627910457065        0.36997744870232
C           -1.35532051496816       -0.26646627770095        1.14228282085179
C           -0.40259725693965       -1.24195508135943        1.30082628162760
C           -0.54489675186645       -2.50345802610642        0.69123119652960
C            0.45777095463892       -3.51733465699498        1.01009418924737
O            1.20496614049720       -3.37610565250942        2.00021848015227
C            0.54985580621674       -4.71831430934516        0.17783651608106
C            0.78625176810842       -5.94307643906872        0.81539976384020
C            0.74772016618107       -7.12062781731185        0.10806368209361
C            0.48216855228712       -7.10687687862881       -1.26369764589777
C            0.31659821305904       -5.90932211499760       -1.91735672199547
C            0.40865831447370       -4.69555917524858       -1.22496549723973
C            0.41266644989461       -3.46096380241436       -2.01713950649048
O           -0.19215992978134       -3.36808912396715       -3.08471617022802
C            1.19304483512717       -2.32742026131714       -1.47944673065293
C            2.38788675766843       -2.48461709795592       -0.76909841995771
C            3.05337906325623       -1.39585923552172       -0.26537931536250
C            2.53945069623588       -0.09564815279116       -0.43125515845653
N            3.14285618247446        0.99669789210839        0.16040810211335
C            4.29761766194333        0.91913969641625        0.95830884365026
C            4.38540306588543        0.02492203450406        2.02051945850800
C            5.51879308552601        0.00782233330050        2.81052019340168
C            6.54960828298354        0.89602555526742        2.55805162655843
C            6.43986593449407        1.81874791235217        1.53029297755700
C            5.31669971780841        1.85011234811421        0.72015162689459
C            5.10551711561387        2.82882697707942       -0.42177192122490
C            5.28071762353195        2.08222880757750       -1.76015155071036
C            6.10041092283425        3.98855782430425       -0.39065437100019
C            3.66607418757173        3.29575771791282       -0.30218224339016
C            3.24785581947073        4.60838312944595       -0.44863801202810
C            1.91095157211154        4.94864057590836       -0.31802020881162
C            0.97257833076017        3.98135657728967       -0.00283664353610
C            1.36859564134890        2.66768747769318        0.15640906375540
C            2.70255097817806        2.31764232254398       -0.02666043412050
C            1.45000000006813        0.06611586498721       -1.29903809300601
C            0.78847480648826       -1.02772206077787       -1.80249570287494
C           -1.70256333409699       -2.74806550591889       -0.06314948418926
C           -2.65387907321223       -1.76999439278094       -0.22615150885472
C           -4.68802037350220        0.36805637627335        0.85654138929370
C           -4.92879235401340       -0.75228582807451        1.66362622174565
C           -6.13619787160839       -0.91695587925564        2.30397184489741
C           -7.12950597051209        0.03839219854729        2.16111756061773
C           -6.88458815432627        1.16174787330429        1.39355523212519
C           -5.67607273362589        1.35665442898661        0.73908879929430
H           -6.57157355194566        3.84404575036992        1.37176796500140
H           -5.44891603948459        4.76638137978312        0.37856940659949
H           -4.83999597425641        3.76161155412873        1.69501422113113
H           -7.51395965021398        2.70894512921620       -0.75093708016776
H           -6.40904607827611        1.86848557347721       -1.83936878648135
H           -6.38854968670563        3.62950903586007       -1.74400947276425
H           -4.38133757928428        4.59828025905637       -1.54723041346736
H           -2.21314640949122        4.70278288830314       -2.66069603943239
H           -0.65714424251327        2.78109372404009       -2.50759331366022
H           -1.28244703086586        0.81289570102993       -1.18572832713854
H           -1.24701912135395        0.69574014363721        1.62373650502289
H            0.47185528011049       -1.07016054951967        1.90972776771873
H            0.95575233849410       -5.93715027949549        1.88202796398445
H            0.90435712011438       -8.06057090981026        0.61674951870256
H            0.43066570908009       -8.03542626311825       -1.81270312100886
H            0.15513984806861       -5.86873025037244       -2.98486203655740
H            2.79888682373691       -3.47154027069448       -0.61876109655114
H            3.98914021950230       -1.54595330956934        0.24782361747737
H            3.55975574724499       -0.63498219610455        2.23848141617271
H            5.58798355458415       -0.69051903132114        3.63026437879649
H            7.43710463562876        0.88460112904117        3.17239264904923
H            7.24693296811776        2.51478162842960        1.36962059271765
H            5.09351987344092        2.76169859143834       -2.58903775873183
H            4.59711384187509        1.24200632038857       -1.84595593121344
H            6.29782786716275        1.70472838366696       -1.84076394166167
H            7.11596068099905        3.61354739550304       -0.48854590034289
H            6.01685785641301        4.55022515449346        0.53708157954848
H            5.92195182318849        4.65793246170605       -1.22843901205268
H            3.96148553857623        5.38512435595755       -0.67006489512097
H            1.60658131351978        5.97627208450742       -0.44656313374422
H           -0.06576640932308        4.24672980778599        0.12748933632438
H            0.65369135129234        1.91210103526408        0.44277233176993
H            1.13621300058722        1.05557938141023       -1.59108975984792
H           -0.06188090203672       -0.90550728353622       -2.45675408471546
H           -1.85774534087331       -3.71595914617344       -0.51488607031004
H           -3.54078325492717       -1.96285888086534       -0.81187395153135
H           -4.15449222172140       -1.49209147148906        1.78831197792182
H           -6.30106131204521       -1.78971498631644        2.91706064305381
H           -8.08211402092564       -0.08363420940697        2.65304122873306
H           -7.66073643241983        1.90685760939206        1.30840204377675

 projected vibrational frequencies (cm⁻¹)
eigval :       -0.00    -0.00    -0.00    -0.00     0.00     0.00
eigval :        8.97    13.93    17.48    19.97    30.95    35.75
eigval :       40.09    46.38    51.88    60.81    62.72    68.33
eigval :       85.18    90.58    99.22   105.91   109.10   117.04
eigval :      129.79   132.87   136.66   147.42   153.58   168.40
eigval :      175.45   186.95   192.20   192.37   196.37   212.71
eigval :      218.41   222.08   236.53   240.43   254.23   282.14
eigval :      283.04   289.06   297.93   306.32   314.92   326.80
eigval :      328.79   334.72   341.37   348.54   357.33   359.08
eigval :      372.10   376.59   380.49   383.86   391.64   399.96
eigval :      402.38   403.76   411.46   413.60   444.68   451.99
eigval :      454.16   457.99   463.31   478.07   499.74   506.04
eigval :      508.40   511.49   522.83   535.27   544.97   554.66
eigval :      557.32   562.60   570.93   573.25   584.75   587.31
eigval :      595.41   603.33   605.49   607.80   613.51   631.69
eigval :      650.32   665.46   669.10   681.08   686.71   691.59
eigval :      697.90   699.75   705.56   718.98   724.15   745.16
eigval :      760.53   773.37   776.02   777.63   778.76   784.68
eigval :      806.02   810.46   814.89   826.58   843.80   853.96
eigval :      869.79   871.20   873.21   882.37   885.28   888.79
eigval :      894.78   906.51   906.64   908.48   909.99   913.97
eigval :      914.38   914.97   915.64   916.15   919.62   920.06
eigval :      921.97   923.58   923.77   926.76   936.84   940.09
eigval :      943.40   948.42   950.53   957.89   968.41  1005.21
eigval :     1009.97  1011.34  1013.65  1073.81  1076.12  1076.89
eigval :     1079.48  1085.15  1098.91  1099.56  1105.68  1109.11
eigval :     1116.43  1123.53  1129.74  1137.17  1138.94  1150.51
eigval :     1152.09  1153.53  1164.98  1169.36  1171.98  1173.62
eigval :     1182.08  1183.09  1185.37  1187.66  1189.34  1192.27
eigval :     1197.21  1204.45  1214.88  1228.70  1230.63  1239.46
eigval :     1241.81  1246.41  1259.03  1259.98  1262.30  1264.73
eigval :     1271.32  1272.59  1290.86  1295.19  1305.50  1314.04
eigval :     1320.23  1326.70  1327.55  1330.59  1333.13  1335.43
eigval :     1335.94  1343.23  1354.59  1397.68  1399.39  1402.01
eigval :     1412.60  1416.12  1417.69  1419.96  1423.11  1426.18
eigval :     1432.30  1434.62  1436.41  1450.50  1450.88  1460.06
eigval :     1460.85  1471.70  1481.92  1487.88  1488.65  1492.44
eigval :     1494.70  1498.65  1498.90  1502.40  1506.89  1513.09
eigval :     1522.96  1523.01  1544.58  1553.28  1558.94  1561.75
eigval :     1569.46  1573.04  1576.82  1581.86  1582.00  1589.82
eigval :     1591.46  1591.93  3028.55  3028.72  3031.32  3031.63
eigval :     3033.38  3035.87  3043.24  3045.70  3047.92  3052.23
eigval :     3053.47  3055.73  3065.51  3073.12  3080.30  3081.93
eigval :     3082.86  3083.65  3084.94  3086.41  3088.03  3088.77
eigval :     3089.20  3090.41  3090.69  3092.84  3093.16  3094.31
eigval :     3096.17  3097.15  3099.38  3100.73  3103.06  3103.68
eigval :     3105.13  3112.22  3112.84  3113.21  3113.39  3125.43

   temp. (K)  partition function   enthalpy   heat capacity  entropy
                                   cal/mol     cal/K/mol   cal/K/mol   J/K/mol
 298.15  VIB  0.149E+21            27109.094    172.258    167.012
         ROT  0.932E+08              888.752      2.981     39.448
         INT  0.139E+29            27997.846    175.239    206.461
         TR   0.180E+29             1481.254      4.968     45.501
         TOT                       29479.0998   180.2075   251.9622  1054.2100

       T/K    H(0)-H(T)+PV         H(T)/Eh          T*S/Eh         G(T)/Eh
   ------------------------------------------------------------------------
    298.15    0.469779E-01    0.786420E+00    0.119715E+00    0.666704E+00
   ------------------------------------------------------------------------

         :::::::::::::::::::::::::::::::::::::::::::::::::::::
         ::                  THERMODYNAMIC                  ::
         :::::::::::::::::::::::::::::::::::::::::::::::::::::
         :: total free energy        -140.750092199468 Eh   ::
         ::.................................................::
         :: total energy             -141.416796545534 Eh   ::
         :: zero point energy           0.739441797519 Eh   ::
         :: G(RRHO) w/o ZPVE           -0.072737451453 Eh   ::
         :: G(RRHO) contrib.            0.666704346066 Eh   ::
         :::::::::::::::::::::::::::::::::::::::::::::::::::::

           -------------------------------------------------
          | TOTAL ENERGY             -141.416796545534 Eh   |
          | TOTAL ENTHALPY           -140.630376812140 Eh   |
          | TOTAL FREE ENERGY        -140.750092199468 Eh   |
          | GRADIENT NORM               0.000112636589 Eh/α |
           -------------------------------------------------

 * finished run on 2025/08/23 at 02:05:05.015
