   * xtb version 6.7.1 (edcfbbe) compiled by 'albert@albert-system' on 2024-07-22

   ID    Z sym.   atoms
    1    6 C      1-9, 11-15, 17-23, 25-28, 30-54
    2    7 N      10, 29
    3    8 O      16, 24
    4    1 H      55-94

          program call               : xtb data2507/gas/o-Ac2BBP/o-Ac2BBP_gas_T1_crest.xyz --gfn 2 --spinpol --tblite --uhf 2 --ohess vtight --parallel 40 --molden --ceasefiles --namespace data2507/gas/o-Ac2BBP/o-Ac2BBP_gas_T1_finalOpt
 * total energy  :  -141.4229042 Eh     change       -0.9955556E-08 Eh
 * total energy  :  -141.4229092 Eh     change       -0.5010299E-05 Eh
 * total energy  :  -141.4229124 Eh     change       -0.3249625E-05 Eh
 * total energy  :  -141.4229144 Eh     change       -0.1940528E-05 Eh
 * total energy  :  -141.4229194 Eh     change       -0.5078281E-05 Eh
 * total energy  :  -141.4229224 Eh     change       -0.2987937E-05 Eh
 * total energy  :  -141.4229250 Eh     change       -0.2629121E-05 Eh
 * total energy  :  -141.4229290 Eh     change       -0.3906134E-05 Eh
 * total energy  :  -141.4229343 Eh     change       -0.5297590E-05 Eh
 * total energy  :  -141.4229383 Eh     change       -0.4077811E-05 Eh
 * total energy  :  -141.4229476 Eh     change       -0.1227367E-05 Eh
 * total energy  :  -141.4229488 Eh     change       -0.1252328E-05 Eh
 * total energy  :  -141.4229502 Eh     change       -0.1322969E-05 Eh
 * total energy  :  -141.4229515 Eh     change       -0.1295789E-05 Eh
 * total energy  :  -141.4229525 Eh     change       -0.1038775E-05 Eh
 * total energy  :  -141.4229532 Eh     change       -0.7059434E-06 Eh
 * total energy  :  -141.4229538 Eh     change       -0.6452125E-06 Eh
 * total energy  :  -141.4229538 Eh     change        0.1819348E-07 Eh
 * total energy  :  -141.4229538 Eh     change       -0.2032664E-07 Eh
   *** GEOMETRY OPTIMIZATION CONVERGED AFTER 23 ITERATIONS ***

 final structure:
================
94
 xtb: 6.7.1 (edcfbbe)
C           -5.69628588196577        4.08342284292336       -0.90554440638859
C           -5.97982662889876        2.60829613164800       -0.56378881109296
C           -7.48215232953407        2.30514664177225       -0.72102159435739
C           -5.20400670552149        1.73030848626750       -1.52398337494125
C           -5.44856442674892        1.82474802723669       -2.88712792751030
C           -4.76258576781610        1.05483278672622       -3.80847831540742
C           -3.79798166779589        0.16247689951821       -3.36744473259289
C           -3.53054643509022        0.04784841931917       -2.02212322090240
C           -4.22932898270774        0.82173885471500       -1.08370989414065
N           -3.93999503362239        0.69498600015419        0.26147371984260
C           -2.90667095322301       -0.20320718629206        0.65112869209330
C           -1.66328055914347        0.28576505210534        1.03893935258439
C           -0.64316270978987       -0.58995363317346        1.33314919940689
C           -0.83242806283732       -1.97610888915067        1.20785311762883
C            0.29978326789417       -2.87660148793131        1.45713953663226
O            1.25487134544807       -2.55124546272450        2.17191029649792
C            0.20616023001733       -4.19260722587229        0.79427060088129
C            0.48433257693929       -5.37976971884526        1.46556602885038
C            0.24027831711883       -6.58910565236096        0.84664518645616
C           -0.28285178460608       -6.62733571658541       -0.44391479259811
C           -0.51131737426047       -5.45734463598042       -1.13954198819705
C           -0.21730336723619       -4.23313779628907       -0.54595041601286
C           -0.29463347193370       -2.96198863152670       -1.29284510694437
O           -1.24541583421297       -2.67328768500784       -2.02903337563587
C            0.84698858724712       -2.05963780888891       -1.10017157175376
C            2.12519229010886       -2.52778648092334       -0.76035948150087
C            3.15265650145715       -1.64743277850661       -0.52786891362622
C            2.93357010032332       -0.27326788413438       -0.64434115250999
N            3.96793546566131        0.64326335632070       -0.30092450279409
C            4.66838939599345        1.27677650808071       -1.30303631533547
C            4.42359964778196        0.92928726325074       -2.63931414086764
C            5.10153740618296        1.54809669296933       -3.66471501607756
C            6.04180204265249        2.52575458968014       -3.37921007291436
C            6.29781178323179        2.86032710752297       -2.06205318223444
C            5.63308574286696        2.25139567314900       -1.00694938693112
C            5.96063489163925        2.64627352711367        0.41757163660986
C            5.64234755892083        4.14246706269996        0.60019262826557
C            7.45858183936467        2.38695847997325        0.66724065785689
C            5.15591833631590        1.85223908207175        1.42604220098329
C            5.34392859963990        2.07831929454091        2.78265056035051
C            4.63210917896826        1.38599119142449        3.74512330678079
C            3.70171707948168        0.43609507503215        3.35338666420587
C            3.48900398322291        0.19243790262023        2.01549171305633
C            4.20901381606158        0.89264329724487        1.03629532158704
C            1.69902357763762        0.20034359944225       -1.07650242520466
C            0.67231150307296       -0.68330862311527       -1.31958568476128
C           -2.11713977763340       -2.45326764975571        0.90769507213004
C           -3.13855487144518       -1.58020261231813        0.62691709113350
C           -4.60482941894997        1.41955527929534        1.22608797851824
C           -4.30741206941296        1.20203372246975        2.57916278583554
C           -4.94603774899026        1.91739016192737        3.56629485104617
C           -5.90063440860299        2.86295958037465        3.22585954294879
C           -6.21166634860349        3.06662589680685        1.89395929780245
C           -5.58665289607374        2.35893127406554        0.87684492905882
H           -4.63365306177590        4.29146835329373       -0.79581715492199
H           -6.24629847794538        4.74651467177286       -0.24373700754103
H           -5.98546905651605        4.30588828831037       -1.92866701732194
H           -7.67691292905378        1.26319208022706       -0.47452823214580
H           -7.80811000715971        2.48284086724703       -1.74173179634052
H           -8.07559849614530        2.93100045629866       -0.06067445586543
H           -6.19382162146639        2.51803958651604       -3.24659364351872
H           -4.97930055026656        1.15273535577848       -4.86128216053026
H           -3.25013932777773       -0.44897473012576       -4.06702565782053
H           -2.78341767103459       -0.65865026300784       -1.69835711432665
H           -1.50389547072975        1.35355635230705        1.08889124815311
H            0.32683100524306       -0.22532647114929        1.63339863086507
H            0.85454391345763       -5.33444041511567        2.47916825403549
H            0.43666912362599       -7.51184267619839        1.37292242748773
H           -0.49163362600755       -7.57941185756744       -0.90969996670200
H           -0.88145391009586       -5.47244207336886       -2.15407384712575
H            2.30161934823575       -3.58841426554351       -0.66449281923015
H            4.12993853050757       -2.00494530612107       -0.23950183949425
H            3.69776186988199        0.16241537556256       -2.85933790891019
H            4.89895732551498        1.26699517221095       -4.68690273606801
H            6.57635827567185        3.01988890740448       -4.17583375623051
H            7.03824987443034        3.61852016452012       -1.85743218923678
H            5.88834896559203        4.47008240497845        1.60624592980922
H            4.58184550360614        4.31911969582082        0.43087412235062
H            6.20782370804668        4.74668045710591       -0.10370056899942
H            8.07205683836348        2.95849755559585       -0.02328784900103
H            7.67880340894240        1.33011567953454        0.52971871228447
H            7.73638771237829        2.66625501090560        1.67939621163220
H            6.06385547964734        2.81574450086388        3.10389452999434
H            4.80382974735870        1.58692685792973        4.79159751500321
H            3.13830053378899       -0.11996640425256        4.08607753489865
H            2.76985609886653       -0.55837541675907        1.73022504663253
H            1.55143845515749        1.26386163801127       -1.19983321482122
H           -0.29214502218936       -0.33103646287610       -1.65104742681643
H           -2.30384248651368       -3.51617054932328        0.88286928153764
H           -4.12181069389802       -1.94650240101445        0.37167694785225
H           -3.57204233782045        0.45904719518718        2.84437590700026
H           -4.70173524485104        1.73612596063973        4.60185911374015
H           -6.40472510026694        3.43202674761744        3.99173126640853
H           -6.96496515639377        3.79903249018721        1.64682446137768

 projected vibrational frequencies (cm⁻¹)
eigval :       -0.00     0.00     0.00     0.00     0.00     0.00
eigval :        9.38    10.67    11.60    20.43    26.06    29.01
eigval :       31.71    42.45    58.37    58.49    62.94    66.13
eigval :       81.79    90.39    96.96   100.88   103.92   105.60
eigval :      121.19   128.33   129.56   130.04   137.74   157.38
eigval :      168.23   175.89   183.42   192.21   192.58   215.63
eigval :      217.63   219.11   220.11   234.41   235.68   237.75
eigval :      262.72   290.60   296.77   301.45   313.36   316.93
eigval :      327.84   327.93   340.95   341.48   348.18   360.19
eigval :      371.56   374.02   378.92   380.25   383.71   384.25
eigval :      401.97   407.19   409.77   409.95   451.66   451.98
eigval :      452.78   459.55   470.83   479.65   506.22   506.25
eigval :      511.02   511.90   528.13   538.18   543.71   543.89
eigval :      555.40   556.74   572.78   577.08   585.96   588.86
eigval :      603.32   605.19   608.02   618.07   620.68   637.78
eigval :      653.99   663.08   680.03   680.18   686.95   687.01
eigval :      699.05   700.11   700.14   713.02   717.11   749.39
eigval :      759.54   775.61   775.75   775.80   781.35   781.53
eigval :      802.26   805.43   825.45   825.58   850.71   853.13
eigval :      870.31   870.43   874.55   881.10   881.70   882.82
eigval :      895.04   901.49   903.59   909.24   913.66   913.92
eigval :      915.30   915.40   915.90   916.07   917.07   917.59
eigval :      917.84   922.69   922.69   928.26   931.20   931.44
eigval :      936.94   937.93   944.59   957.80   957.81  1005.91
eigval :     1009.52  1013.48  1013.52  1073.99  1075.65  1075.70
eigval :     1084.71  1084.93  1089.80  1106.46  1107.46  1112.05
eigval :     1112.14  1128.88  1130.79  1139.47  1139.54  1143.19
eigval :     1152.44  1152.47  1166.25  1167.14  1168.96  1171.78
eigval :     1177.18  1183.33  1183.72  1184.42  1184.55  1190.30
eigval :     1195.08  1212.20  1216.21  1227.48  1239.55  1240.66
eigval :     1241.87  1242.52  1243.00  1257.17  1257.24  1260.44
eigval :     1261.23  1294.33  1294.47  1308.49  1309.15  1315.58
eigval :     1316.31  1326.46  1327.53  1329.65  1329.94  1332.88
eigval :     1334.73  1334.85  1401.54  1401.58  1403.03  1406.63
eigval :     1411.19  1419.19  1419.23  1419.53  1420.76  1421.51
eigval :     1422.17  1430.46  1431.25  1453.64  1457.06  1457.07
eigval :     1460.68  1479.38  1479.95  1487.81  1487.85  1488.59
eigval :     1488.63  1498.51  1498.57  1501.98  1502.03  1509.57
eigval :     1512.25  1541.83  1552.14  1555.65  1555.71  1563.18
eigval :     1568.31  1569.89  1571.62  1579.42  1579.46  1589.79
eigval :     1590.43  1595.26  3029.15  3029.28  3031.47  3031.65
eigval :     3042.76  3042.99  3045.57  3045.63  3051.51  3051.84
eigval :     3055.37  3055.57  3071.34  3072.97  3074.02  3079.19
eigval :     3082.37  3082.44  3083.03  3083.23  3083.93  3084.05
eigval :     3088.04  3089.46  3089.49  3091.69  3092.84  3092.96
eigval :     3095.33  3095.66  3099.17  3099.45  3100.30  3101.55
eigval :     3104.30  3104.77  3108.41  3109.27  3119.04  3120.21

   temp. (K)  partition function   enthalpy   heat capacity  entropy
                                   cal/mol     cal/K/mol   cal/K/mol   J/K/mol
 298.15  VIB  0.121E+22            27413.751    172.238    170.393
         ROT  0.105E+09              888.752      2.981     39.692
         INT  0.128E+30            28302.503    175.219    210.085
         TR   0.180E+29             1481.254      4.968     45.501
         TOT                       29783.7572   180.1874   255.5867  1069.3748

       T/K    H(0)-H(T)+PV         H(T)/Eh          T*S/Eh         G(T)/Eh
   ------------------------------------------------------------------------
    298.15    0.474634E-01    0.786092E+00    0.121437E+00    0.664654E+00
   ------------------------------------------------------------------------

         :::::::::::::::::::::::::::::::::::::::::::::::::::::
         ::                  THERMODYNAMIC                  ::
         :::::::::::::::::::::::::::::::::::::::::::::::::::::
         :: total free energy        -140.758299705869 Eh   ::
         ::.................................................::
         :: total energy             -141.422953764721 Eh   ::
         :: zero point energy           0.738628113225 Eh   ::
         :: G(RRHO) w/o ZPVE           -0.073974054372 Eh   ::
         :: G(RRHO) contrib.            0.664654058853 Eh   ::
         :::::::::::::::::::::::::::::::::::::::::::::::::::::

           -------------------------------------------------
          | TOTAL ENERGY             -141.422953764721 Eh   |
          | TOTAL ENTHALPY           -140.636862213174 Eh   |
          | TOTAL FREE ENERGY        -140.758299705869 Eh   |
          | GRADIENT NORM               0.000166662701 Eh/α |
           -------------------------------------------------

 * finished run on 2025/08/23 at 02:14:22.746
