   * xtb version 6.7.1 (edcfbbe) compiled by 'albert@albert-system' on 2024-07-22

   ID    Z sym.   atoms
    1    6 C      1-5, 7-13, 15-18, 20-26, 28-32, 34-40, 42-46, 48-54, 56-60,
                  62, 63
    2    7 N      6, 14, 19, 27, 33, 41, 47, 55, 61
    3    1 H      64-96

          program call               : xtb data2507/gas/TCbTrz/TCbTrz.xyz --gfn 2 --ohess vtight --parallel 40 --molden --ceasefiles --namespace data2507/gas/TCbTrz/TCbTrz_gas_S0_preOpt
          :  Hamiltonian                  GFN2-xTB          :
 * total energy  :  -158.8718075 Eh     change       -0.8177864E-08 Eh
 * total energy  :  -158.8936913 Eh     change       -0.2188376E-01 Eh
 * total energy  :  -158.9001184 Eh     change       -0.6427092E-02 Eh
 * total energy  :  -158.9022591 Eh     change       -0.2140681E-02 Eh
 * total energy  :  -158.9036798 Eh     change       -0.1420785E-02 Eh
 * total energy  :  -158.9041462 Eh     change       -0.4663294E-03 Eh
 * total energy  :  -158.9043761 Eh     change       -0.2298970E-03 Eh
 * total energy  :  -158.9045932 Eh     change       -0.2171732E-03 Eh
 * total energy  :  -158.9048164 Eh     change       -0.2231214E-03 Eh
 * total energy  :  -158.9050706 Eh     change       -0.2542660E-03 Eh
 * total energy  :  -158.9076009 Eh     change       -0.2701015E-06 Eh
 * total energy  :  -158.9076011 Eh     change       -0.1439561E-06 Eh
 * total energy  :  -158.9076012 Eh     change       -0.1373195E-06 Eh
 * total energy  :  -158.9076014 Eh     change       -0.2014234E-06 Eh
 * total energy  :  -158.9076016 Eh     change       -0.2097194E-06 Eh
 * total energy  :  -158.9076018 Eh     change       -0.2120395E-06 Eh
 * total energy  :  -158.9076020 Eh     change       -0.1820093E-06 Eh
 * total energy  :  -158.9076021 Eh     change       -0.1319680E-06 Eh
 * total energy  :  -158.9076022 Eh     change       -0.8485600E-07 Eh
   *** GEOMETRY OPTIMIZATION CONVERGED AFTER 62 ITERATIONS ***

 final structure:
================
96
 xtb: 6.7.1 (edcfbbe)
C            7.22076969133667       -4.64672371183914       -0.11100551484161
C            7.89117111938903       -3.43406169666821       -0.15907542528279
C            7.18200952423493       -2.24906368919697       -0.13904582673085
C            5.79011016445330       -2.27082853289820       -0.07152944258118
C            5.03540665214215       -1.01946711702551       -0.05020603932783
N            5.71231212983893        0.12467094819657       -0.03071726436949
C            4.98641214716520        1.23816806335392       -0.00539820447397
C            5.68692977619378        2.52082851681132        0.01177311822056
C            7.07944204290014        2.55846522415998        0.05524899228737
C            7.73753362426163        3.77263671630250        0.07112786611248
C            7.01523425869737        4.95574672264440        0.04316049687915
C            5.62991129283418        4.92379513700676       -0.00065131225759
C            4.96537444547202        3.71324123149720       -0.01606884144518
N            3.65447727150284        1.25502552734346        0.00459162186680
C            3.06242039819496        0.06699622314766       -0.02091003359701
C            1.59911709984202        0.03418568684200       -0.01552539278798
C            0.87729602644205        1.19186595021494        0.25104510051764
C           -0.50863856190439        1.16910320787953        0.25878495036942
N           -1.21828719728260        2.34645233342806        0.52977169886453
C           -2.30497863067409        2.47163879767336        1.38073617013147
C           -2.73866685953600        1.61050264682482        2.37676945369104
C           -3.86735396157258        1.96767574524909        3.08877857458399
C           -4.53386517943325        3.16581954607623        2.84186955956824
C           -4.06701791128245        4.05823539225022        1.89810944989194
C           -2.93809362741735        3.71469506462105        1.16673949982073
C           -2.17746577141223        4.38477745475110        0.14960540297705
N           -2.36107829177506        5.57256158306339       -0.40469556810603
C           -1.49705342118693        5.92816222524254       -1.33650531938863
C           -0.43379404999808        5.13521635304102       -1.76568525103295
C           -0.22923249041462        3.88683769533618       -1.20058204251538
C           -1.11920258975581        3.50839636401764       -0.20885652854556
C           -1.19577706095507       -0.02905568984402       -0.01556444979550
N           -2.59396696862612       -0.05369099543982       -0.03114148482569
C           -3.40611575686630        0.77737848083300       -0.78719084143256
C           -3.05283306116772        1.69374697843508       -1.76578014903581
C           -4.06759517800093        2.40227149493017       -2.37968776318365
C           -5.40454857542637        2.18558873099818       -2.05499776752758
C           -5.76500839194678        1.23001927507829       -1.12640893223976
C           -4.75966822553059        0.51410682728485       -0.49124247656032
C           -4.76295429140692       -0.54443732668476        0.47867436089275
N           -5.78061378756902       -1.15183194330606        1.06695107938586
C           -5.47950288024830       -2.09439456601797        1.93970399597173
C           -4.17914449962856       -2.44698249308773        2.29603966600138
C           -3.10289715258527       -1.81101517695819        1.70085118471521
C           -3.40499527672111       -0.86129197974462        0.73911410374971
C           -0.45641877411335       -1.19742470557430       -0.27455051497629
N           -1.11133483582911       -2.40985518451963       -0.52820827936238
C           -0.92783485601430       -3.57324681789782        0.20602327530989
C           -0.00447233436713       -3.84807625148421        1.20400818901509
C           -0.05717765629230       -5.09259211844016        1.80359117351637
C           -1.00753633380496       -6.04189934710583        1.43311914128504
C           -1.94085158428149       -5.76746788651058        0.45401940001828
C           -1.90350366635957       -4.52471216309945       -0.16419987444499
C           -2.71033392358288       -3.90531696435967       -1.17772511912104
N           -3.75020620532121       -4.38252270300898       -1.84349481053662
C           -4.29019196615308       -3.58223579450878       -2.74254084319535
C           -3.80428126810977       -2.31353728958894       -3.05600776592797
C           -2.70998129565412       -1.80506404960850       -2.37747641525468
C           -2.17877386561663       -2.60538880596808       -1.37908643442859
C            0.92969529187432       -1.15619998546328       -0.27263126808684
N            3.70555896233315       -1.09392444530396       -0.05061343380547
C            5.12070941013267       -3.49270553329510       -0.02328909438793
C            5.83632550184104       -4.67374186055596       -0.04270563462189
H            7.77801695841149       -5.57190814844265       -0.12676720321684
H            8.96975873001470       -3.41609646275046       -0.21246931613652
H            7.68598648316489       -1.29621746126073       -0.17686749625025
H            7.62421950242820        1.62786428132654        0.07775962116005
H            8.81667042386099        3.80058966719223        0.10563270402570
H            7.53253677467192        5.90388175962293        0.05566872212934
H            5.06928432536319        5.84678019827086       -0.02236862217571
H            3.88808930573098        3.67015730597623       -0.05106025268470
H            1.40688280477736        2.10192445455532        0.48254816374652
H           -2.20907354353646        0.69656950747020        2.59966895268250
H           -4.23657675203043        1.30317507466106        3.85567472341219
H           -5.41729106842095        3.40286966186061        3.41482831905364
H           -4.55261352790387        5.00463266095945        1.72231691292010
H           -1.66315229130024        6.90348367039512       -1.77371339360842
H            0.22524842595737        5.49436248635965       -2.54093783579383
H            0.57810388244399        3.24578578091132       -1.52616604155609
H           -2.02262549197681        1.84773521665508       -2.05159128432663
H           -3.81517694872347        3.13605500758133       -3.13059646824088
H           -6.16647624644605        2.76481422965183       -2.55391451493008
H           -6.79734197678049        1.02831286327685       -0.89014288526164
H           -6.32552804149495       -2.58933801895370        2.39656229344543
H           -4.01138053528275       -3.20934740245172        3.04049413565544
H           -2.08815759426184       -2.04743074029975        1.98733006824006
H            0.72737730906856       -3.11623155072097        1.51236893737619
H            0.65419823810483       -5.33147064911738        2.58042129258973
H           -1.01283558686042       -7.00168656111217        1.92740843417505
H           -2.69075020799985       -6.48641202407737        0.16561533595636
H           -5.15022725055370       -3.98262509806624       -3.26153651230588
H           -4.27630040497919       -1.73247997273790       -3.83254280133054
H           -2.29461148167345       -0.84011519385333       -2.62773110032818
H            1.49931546838096       -2.04235688471566       -0.50146400237348
H            4.04336236632434       -3.49577870618197        0.03125923131742
H            5.31610333622568       -5.61955327150969       -0.00489028298648

          :  Hamiltonian                  GFN2-xTB          :
         :: gradient norm              0.000033916579 Eh/a0 ::
         :: HOMO-LUMO gap              1.803899484663 eV    ::
         :: SCC energy              -161.749665320232 Eh    ::
         :: -> dispersion             -0.161994808348 Eh    ::
         :: repulsion energy           2.842063107056 Eh    ::

    * Orbital Energies and Occupations

         #    Occupation            Energy/Eh            Energy/eV
      -------------------------------------------------------------
         1        2.0000           -0.7018485             -19.0983
       ...           ...                  ...                  ...
       135        2.0000           -0.4149137             -11.2904
       136        2.0000           -0.4140522             -11.2669
       137        2.0000           -0.3949518             -10.7472
       138        2.0000           -0.3921433             -10.6708
       139        2.0000           -0.3891131             -10.5883
       140        2.0000           -0.3820813             -10.3970
       141        2.0000           -0.3804929             -10.3537
       142        2.0000           -0.3799959             -10.3402
       143        2.0000           -0.3783890             -10.2965
       144        2.0000           -0.3772884             -10.2665
       145        2.0000           -0.3671449              -9.9905
       146        2.0000           -0.3664228              -9.9709
       147        2.0000           -0.3659979              -9.9593 (HOMO)
       148                         -0.2997057              -8.1554 (LUMO)
       149                         -0.2948414              -8.0230
       150                         -0.2647267              -7.2036
       151                         -0.2640470              -7.1851
       152                         -0.2624055              -7.1404
       153                         -0.2571809              -6.9982
       154                         -0.2569051              -6.9907
       155                         -0.2409542              -6.5567
       156                         -0.2361723              -6.4266
       157                         -0.2352027              -6.4002
       158                         -0.2349358              -6.3929
       ...                                ...                  ...
       285                          0.7214353              19.6313
      -------------------------------------------------------------
                  HL-Gap            0.0662921 Eh            1.8039 eV

     #   Z          covCN         q      C6AA      α(0)
     1   6 C        2.920    -0.022    28.557     8.763
     2   6 C        2.918    -0.027    28.668     8.780
     3   6 C        2.924    -0.023    28.573     8.766
     4   6 C        2.984    -0.000    28.029     8.684
     5   6 C        2.983     0.203    23.688     7.984
     6   7 N        1.844    -0.291    28.380     7.895
     7   6 C        2.983     0.203    23.689     7.984
     8   6 C        2.984    -0.000    28.029     8.684
     9   6 C        2.924    -0.023    28.573     8.766
    10   6 C        2.918    -0.027    28.666     8.780
    11   6 C        2.920    -0.022    28.557     8.763
    12   6 C        2.918    -0.027    28.671     8.781
    13   6 C        2.924    -0.023    28.574     8.766
    14   7 N        1.845    -0.296    28.512     7.914
    15   6 C        2.988     0.203    23.694     7.985
    16   6 C        2.983    -0.001    28.049     8.687
    17   6 C        2.926    -0.045    29.118     8.849
    18   6 C        2.911     0.055    26.759     8.482
    19   7 N        2.797    -0.047    22.151     6.990
    20   6 C        3.081     0.049    26.824     8.491
    21   6 C        2.910    -0.047    29.177     8.857
    22   6 C        2.925    -0.028    28.705     8.786
    23   6 C        2.921    -0.036    28.893     8.815
    24   6 C        2.913    -0.025    28.630     8.774
    25   6 C        3.063    -0.020    28.440     8.745
    26   6 C        3.073     0.072    26.306     8.409
    27   7 N        1.832    -0.227    26.807     7.673
    28   6 C        2.924     0.050    26.870     8.501
    29   6 C        2.922    -0.045    29.112     8.848
    30   6 C        2.915    -0.035    28.875     8.812
    31   6 C        3.074     0.039    27.041     8.526
    32   6 C        2.913     0.041    27.079     8.533
    33   7 N        2.798    -0.044    22.093     6.981
    34   6 C        3.081     0.050    26.801     8.487
    35   6 C        2.910    -0.047    29.177     8.857
    36   6 C        2.925    -0.028    28.707     8.786
    37   6 C        2.921    -0.036    28.891     8.814
    38   6 C        2.913    -0.024    28.615     8.772
    39   6 C        3.064    -0.020    28.432     8.744
    40   6 C        3.076     0.072    26.319     8.411
    41   7 N        1.833    -0.226    26.784     7.669
    42   6 C        2.925     0.053    26.820     8.493
    43   6 C        2.923    -0.043    29.073     8.842
    44   6 C        2.915    -0.033    28.813     8.802
    45   6 C        3.072     0.040    27.033     8.525
    46   6 C        2.910     0.055    26.769     8.484
    47   7 N        2.798    -0.047    22.151     6.990
    48   6 C        3.079     0.049    26.824     8.491
    49   6 C        2.910    -0.051    29.256     8.869
    50   6 C        2.924    -0.030    28.754     8.794
    51   6 C        2.920    -0.038    28.941     8.822
    52   6 C        2.912    -0.025    28.633     8.774
    53   6 C        3.064    -0.019    28.418     8.742
    54   6 C        3.074     0.070    26.352     8.417
    55   7 N        1.833    -0.228    26.823     7.675
    56   6 C        2.925     0.053    26.821     8.493
    57   6 C        2.922    -0.043    29.077     8.843
    58   6 C        2.915    -0.033    28.824     8.804
    59   6 C        3.072     0.038    27.076     8.532
    60   6 C        2.926    -0.045    29.117     8.849
    61   7 N        1.845    -0.295    28.501     7.912
    62   6 C        2.924    -0.023    28.575     8.766
    63   6 C        2.918    -0.027    28.670     8.781
    64   1 H        0.926     0.039     2.462     2.453
    65   1 H        0.926     0.039     2.463     2.454
    66   1 H        0.926     0.056     2.247     2.344
    67   1 H        0.926     0.056     2.245     2.343
    68   1 H        0.926     0.039     2.462     2.454
    69   1 H        0.926     0.039     2.461     2.453
    70   1 H        0.926     0.039     2.465     2.455
    71   1 H        0.926     0.054     2.273     2.358
    72   1 H        0.926     0.072     2.062     2.246
    73   1 H        0.926     0.024     2.676     2.558
    74   1 H        0.926     0.034     2.524     2.484
    75   1 H        0.926     0.038     2.476     2.461
    76   1 H        0.926     0.051     2.310     2.377
    77   1 H        0.925     0.037     2.488     2.466
    78   1 H        0.926     0.034     2.526     2.485
    79   1 H        0.926     0.030     2.583     2.514
    80   1 H        0.926     0.021     2.716     2.577
    81   1 H        0.926     0.035     2.514     2.479
    82   1 H        0.926     0.038     2.469     2.457
    83   1 H        0.926     0.052     2.299     2.371
    84   1 H        0.925     0.040     2.449     2.447
    85   1 H        0.926     0.036     2.505     2.475
    86   1 H        0.926     0.024     2.667     2.554
    87   1 H        0.926     0.031     2.568     2.506
    88   1 H        0.926     0.035     2.521     2.483
    89   1 H        0.926     0.035     2.513     2.479
    90   1 H        0.926     0.050     2.319     2.382
    91   1 H        0.925     0.039     2.459     2.452
    92   1 H        0.926     0.035     2.516     2.480
    93   1 H        0.926     0.026     2.641     2.542
    94   1 H        0.926     0.074     2.044     2.236
    95   1 H        0.926     0.055     2.264     2.353
    96   1 H        0.926     0.039     2.462     2.454

molecular dipole:
                 x           y           z       tot (Debye)
 q only:        1.533       0.008       0.129
   full:        2.505       0.050       0.009       6.368

 projected vibrational frequencies (cm⁻¹)
eigval :       -0.00    -0.00    -0.00     0.00     0.00     0.00
eigval :        7.22    12.78    16.15    19.51    21.20    21.95
eigval :       22.84    27.86    28.32    39.64    47.41    52.46
eigval :       55.93    60.89    69.13    91.90    92.20   104.08
eigval :      105.99   107.48   120.36   123.86   126.49   144.18
eigval :      151.42   152.57   169.08   179.34   181.66   186.58
eigval :      188.60   204.15   221.89   231.53   239.71   245.31
eigval :      261.19   267.72   276.59   279.15   282.99   296.61
eigval :      331.54   350.45   358.67   364.16   364.93   376.55
eigval :      386.58   402.14   403.07   403.69   410.03   414.92
eigval :      424.07   427.42   428.38   437.62   439.51   442.22
eigval :      445.86   480.73   497.71   512.27   512.44   521.94
eigval :      522.44   524.07   537.28   542.86   544.94   548.97
eigval :      550.72   552.36   563.05   586.04   587.53   588.03
eigval :      596.29   596.50   596.88   612.55   623.90   624.72
eigval :      627.14   640.76   649.18   653.41   654.37   674.25
eigval :      680.74   682.90   683.98   685.32   692.45   700.75
eigval :      722.64   725.27   725.38   731.62   749.95   753.87
eigval :      763.82   766.35   775.80   778.16   778.59   779.82
eigval :      783.48   796.13   799.28   799.98   800.52   847.45
eigval :      860.65   867.23   875.56   877.28   879.66   882.69
eigval :      884.01   895.24   900.78   901.56   901.89   904.79
eigval :      907.37   909.49   910.30   910.43   910.73   911.42
eigval :      912.08   918.03   919.39   919.82   926.33   926.60
eigval :      927.34   930.02   931.10   933.13   934.38   934.57
eigval :      959.34   990.43   999.86  1021.98  1024.58  1025.23
eigval :     1049.05  1050.44  1066.34  1067.33  1067.63  1074.92
eigval :     1076.18  1088.78  1091.15  1092.32  1093.67  1104.83
eigval :     1108.61  1112.53  1123.05  1144.18  1145.19  1146.69
eigval :     1149.81  1150.48  1165.86  1171.75  1175.86  1177.92
eigval :     1178.32  1180.53  1180.78  1181.32  1188.25  1195.31
eigval :     1202.67  1207.16  1212.37  1218.98  1228.33  1231.73
eigval :     1234.29  1246.08  1268.43  1269.64  1287.57  1287.95
eigval :     1289.87  1295.06  1298.30  1298.57  1304.62  1315.69
eigval :     1322.14  1329.80  1330.35  1333.94  1334.96  1339.49
eigval :     1344.99  1356.11  1357.97  1359.51  1372.11  1373.73
eigval :     1378.54  1386.01  1393.49  1413.13  1418.55  1423.07
eigval :     1431.34  1432.79  1433.70  1441.06  1467.71  1467.90
eigval :     1471.09  1472.89  1475.16  1476.58  1485.67  1486.06
eigval :     1486.68  1510.10  1519.50  1545.26  1558.02  1559.58
eigval :     1561.39  1565.51  1582.09  1582.89  1583.30  1584.36
eigval :     1585.25  1588.65  1589.15  1591.21  1594.59  1595.46
eigval :     1607.31  1609.35  1610.43  3063.52  3064.57  3066.91
eigval :     3067.60  3070.41  3076.66  3076.70  3076.72  3077.74
eigval :     3078.08  3081.22  3082.70  3082.87  3085.75  3087.17
eigval :     3089.13  3091.67  3092.02  3094.36  3094.92  3096.87
eigval :     3097.57  3099.73  3100.67  3106.43  3106.62  3107.88
eigval :     3109.72  3110.77  3110.93  3111.91  3117.05  3118.31

   temp. (K)  partition function   enthalpy   heat capacity  entropy
                                   cal/mol     cal/K/mol   cal/K/mol   J/K/mol
 298.15  VIB  0.119E+24            28410.581    177.245    177.582
         ROT  0.135E+09              888.752      2.981     40.178
         INT  0.160E+32            29299.334    180.226    217.760
         TR   0.222E+29             1481.254      4.968     45.925
         TOT                       30780.5877   185.1941   263.6851  1103.2584

       T/K    H(0)-H(T)+PV         H(T)/Eh          T*S/Eh         G(T)/Eh
   ------------------------------------------------------------------------
    298.15    0.490520E-01    0.766019E+00    0.125285E+00    0.640734E+00
   ------------------------------------------------------------------------

         :::::::::::::::::::::::::::::::::::::::::::::::::::::
         ::                  THERMODYNAMIC                  ::
         :::::::::::::::::::::::::::::::::::::::::::::::::::::
         :: total free energy        -158.266868613386 Eh   ::
         ::.................................................::
         :: total energy             -158.907602213157 Eh   ::
         :: zero point energy           0.716966900264 Eh   ::
         :: G(RRHO) w/o ZPVE           -0.076233300493 Eh   ::
         :: G(RRHO) contrib.            0.640733599771 Eh   ::
         :::::::::::::::::::::::::::::::::::::::::::::::::::::

           -------------------------------------------------
          | TOTAL ENERGY             -158.907602213157 Eh   |
          | TOTAL ENTHALPY           -158.141583324136 Eh   |
          | TOTAL FREE ENERGY        -158.266868613386 Eh   |
          | GRADIENT NORM               0.000034004328 Eh/α |
          | HOMO-LUMO GAP               1.803900439954 eV   |
           -------------------------------------------------

 * finished run on 2025/09/10 at 13:21:43.694
