   * xtb version 6.7.1 (edcfbbe) compiled by 'albert@albert-system' on 2024-07-22

   ID    Z sym.   atoms
    1    6 C      1-5, 7-13, 15-18, 20-26, 28-32, 34-40, 42-46, 48-54, 56-60,
                  62, 63
    2    7 N      6, 14, 19, 27, 33, 41, 47, 55, 61
    3    1 H      64-96

          program call               : xtb data2507/gas/TCbTrz/TCbTrz_gas_S0_crest.xyz --gfn 2 --ohess vtight --parallel 40 --molden --ceasefiles --namespace data2507/gas/TCbTrz/TCbTrz_gas_S0_finalOpt
          :  Hamiltonian                  GFN2-xTB          :
 * total energy  :  -158.9075933 Eh     change       -0.5967507E-08 Eh
 * total energy  :  -158.9075946 Eh     change       -0.1335374E-05 Eh
 * total energy  :  -158.9075969 Eh     change       -0.2288295E-05 Eh
 * total energy  :  -158.9075986 Eh     change       -0.1697673E-05 Eh
 * total energy  :  -158.9075997 Eh     change       -0.1161704E-05 Eh
 * total energy  :  -158.9076010 Eh     change       -0.1215776E-05 Eh
 * total energy  :  -158.9076018 Eh     change       -0.7880426E-06 Eh
 * total energy  :  -158.9076022 Eh     change       -0.4329105E-06 Eh
 * total energy  :  -158.9076027 Eh     change       -0.5191865E-06 Eh
 * total energy  :  -158.9076033 Eh     change       -0.6235925E-06 Eh
 * total energy  :  -158.9076041 Eh     change       -0.7610515E-06 Eh
 * total energy  :  -158.9076047 Eh     change       -0.6393896E-06 Eh
 * total energy  :  -158.9076051 Eh     change       -0.3290316E-06 Eh
 * total energy  :  -158.9076052 Eh     change       -0.1881077E-06 Eh
 * total energy  :  -158.9076054 Eh     change       -0.1275150E-06 Eh
 * total energy  :  -158.9076055 Eh     change       -0.1141222E-06 Eh
 * total energy  :  -158.9076056 Eh     change       -0.1311284E-06 Eh
 * total energy  :  -158.9076057 Eh     change       -0.1218241E-06 Eh
 * total energy  :  -158.9076058 Eh     change       -0.8139028E-07 Eh
   *** GEOMETRY OPTIMIZATION CONVERGED AFTER 19 ITERATIONS ***

 final structure:
================
96
 xtb: 6.7.1 (edcfbbe)
C            7.26691420661603       -4.73954892480069       -0.07277284984267
C            7.95286349274335       -3.53547164402865       -0.11720789046583
C            7.25867342710870       -2.34158609681766       -0.10069427405566
C            5.86628349237179       -2.34572251769788       -0.04029408737772
C            5.12738199070716       -1.08492074095852       -0.02241844386481
N            5.81858275364516        0.05060998776210       -0.00150796780559
C            5.10673258256833        1.17318816689332        0.02144191852907
C            5.82320256255607        2.44700262578585        0.03781042747897
C            7.21596338159952        2.46737781233252        0.08440283682776
C            7.88907842733259        3.67330707689307        0.09916581599299
C            7.18162551938118        4.86524265331249        0.06690012740703
C            5.79610938540958        4.85045292151652        0.01987982655030
C            5.11659371297294        3.64824114361713        0.00561320584613
N            3.77509471995016        1.20679847731212        0.02960858852715
C            3.16825925064945        0.02632082444596        0.00207739460364
C            1.70465236607112        0.01209163319017        0.00422626638750
C            0.99719085289342        1.17608170624083        0.28140776973627
C           -0.38898365886867        1.17124458016311        0.28557526958444
N           -1.08374125378401        2.35501568228060        0.56676592128374
C           -2.17228913109670        2.48612808626851        1.41449691004332
C           -2.62220469656290        1.62061488496852        2.39949961396142
C           -3.74901558795886        1.98579419764010        3.11041912551358
C           -4.39787817479330        3.19559358043678        2.87347807778612
C           -3.91449568166563        4.09147380904293        1.94141147088515
C           -2.78718449068960        3.74008976044575        1.21127166924578
C           -2.01281259505892        4.41056977051301        0.20483474526476
N           -2.17736009643978        5.60687765363370       -0.33697893660459
C           -1.30419773155276        5.96073387653709       -1.26090917750721
C           -0.25019408585493        5.15778233453170       -1.69426129241797
C           -0.06567626512746        3.90041645368521       -1.14230477732967
C           -0.96525119206427        3.52348758629156       -0.15869587608780
C           -1.09073931411814       -0.01495198379445       -0.00330797152259
N           -2.48909005909501       -0.02167387512735       -0.02285383124442
C           -3.28880052075746        0.82642047539286       -0.77321833264259
C           -2.92136774216227        1.74933708874002       -1.74038028527107
C           -3.92574177209525        2.47519924777201       -2.35111204123276
C           -5.26638143215825        2.26952106455330       -2.03455267363023
C           -5.64117993348478        1.30837711000940       -1.11746993778082
C           -4.64640939458530        0.57501932018983       -0.48557327222756
C           -4.66546389219356       -0.49355101109150        0.47309790229868
N           -5.69220441013041       -1.09568862149476        1.05090142399427
C           -5.40514150181749       -2.05065299344679        1.91488240010139
C           -4.11025188037865       -2.42139350051556        2.27267591266333
C           -3.02457761007958       -1.79128234132213        1.68846143380163
C           -3.31218624929909       -0.82827197894086        0.73553446775469
C           -0.36582261759883       -1.18996313498587       -0.27293061732471
N           -1.03560957616463       -2.39102406325149       -0.54141147679535
C           -0.86894386002584       -3.56453986817734        0.18058706449918
C            0.04807266457818       -3.86189522238746        1.17796555122263
C           -0.02197610793679       -5.11213997511814        1.76367762449039
C           -0.98321786243347       -6.04523730022485        1.38030981945486
C           -1.91019423579698       -5.74838157825603        0.40172830992304
C           -1.85535265961678       -4.49956148975772       -0.20281321356006
C           -2.65104695021620       -3.85920470191695       -1.21210154928087
N           -3.69437626692285       -4.31628075832810       -1.88650581842671
C           -4.22114844964887       -3.49979646294878       -2.77882046294460
C           -3.71848310070306       -2.23393987894975       -3.07689745629557
C           -2.62039179307474       -1.74638501036915       -2.38917355506871
C           -2.10261419848938       -2.56392723490732       -1.39771649892320
C            1.02069909859755       -1.16679551226164       -0.26702458151164
N            3.79668352370785       -1.14260582346791       -0.02723302922201
C            5.18121513216244       -3.55902626275742        0.00445715496357
C            5.88190770673747       -4.74902955872737       -0.01151039452523
H            7.81247828112993       -5.67171435360572       -0.08577626914386
H            9.03185580137753       -3.53115364200212       -0.16498831400311
H            7.77488118372004       -1.39520410147161       -0.13578374253058
H            7.74905633083678        1.53011685326989        0.11012633357360
H            8.96839697535111        3.68791268143643        0.13611296197365
H            7.71065828628099        5.80689274540266        0.07855964428760
H            5.24710492301583        5.78031411858044       -0.00524215093221
H            4.03893915024989        3.61840083237832       -0.03191104453926
H            1.53795390617270        2.07662680578298        0.52403226191890
H           -2.10627165910529        0.69715210092011        2.61500566762631
H           -4.13077289590243        1.31837902866730        3.86860131548838
H           -5.28047472937421        3.43873217237311        3.44516243718667
H           -4.38607203658808        5.04638699592612        1.77369145775701
H           -1.45462625466206        6.94314524098340       -1.68778780977142
H            0.41742223680594        5.51628761066856       -2.46244605773091
H            0.73405612330571        3.25181206432851       -1.47165360107038
H           -1.88832568660550        1.89525231392396       -2.02012393543910
H           -3.66214646688682        3.21407462318965       -3.09313564320895
H           -6.01984564233681        2.86201258857771       -2.53074879750147
H           -6.67665355976558        1.11542160779188       -0.88771784441194
H           -6.25849516640130       -2.54087815571236        2.36312331272192
H           -3.95399136201475       -3.19331449874221        3.00975267473307
H           -2.01368827185265       -2.04199877481117        1.97642830362915
H            0.78823577592572       -3.14277846451438        1.49626485886896
H            0.68425935806118       -5.36853657387083        2.53961275845483
H           -1.00200535115082       -7.01023287937069        1.86401786040220
H           -2.66824426995280       -6.45461452465506        0.10338791235071
H           -5.08413727934284       -3.88397652502765       -3.30510679887815
H           -4.18046168084607       -1.63876491553452       -3.84876582706631
H           -2.19224867395925       -0.78403851185517       -2.62765539036980
H            1.57939865785598       -2.05777295095940       -0.50395163047140
H            4.10364927402875       -3.54843726276296        0.05354777428074
H            5.34956059196883       -5.68818008197390        0.02354117568260

          :  Hamiltonian                  GFN2-xTB          :
         :: gradient norm              0.000050151440 Eh/a0 ::
         :: HOMO-LUMO gap              1.805095251963 eV    ::
         :: SCC energy              -161.749662078532 Eh    ::
         :: -> dispersion             -0.161993107054 Eh    ::
         :: repulsion energy           2.842056257668 Eh    ::

    * Orbital Energies and Occupations

         #    Occupation            Energy/Eh            Energy/eV
      -------------------------------------------------------------
         1        2.0000           -0.7018396             -19.0980
       ...           ...                  ...                  ...
       135        2.0000           -0.4149237             -11.2906
       136        2.0000           -0.4140605             -11.2672
       137        2.0000           -0.3949446             -10.7470
       138        2.0000           -0.3921336             -10.6705
       139        2.0000           -0.3891179             -10.5884
       140        2.0000           -0.3820980             -10.3974
       141        2.0000           -0.3804912             -10.3537
       142        2.0000           -0.3800029             -10.3404
       143        2.0000           -0.3783897             -10.2965
       144        2.0000           -0.3772957             -10.2667
       145        2.0000           -0.3671526              -9.9907
       146        2.0000           -0.3664226              -9.9709
       147        2.0000           -0.3659921              -9.9592 (HOMO)
       148                         -0.2996560              -8.1541 (LUMO)
       149                         -0.2948562              -8.0234
       150                         -0.2647334              -7.2038
       151                         -0.2640501              -7.1852
       152                         -0.2624052              -7.1404
       153                         -0.2571835              -6.9983
       154                         -0.2569043              -6.9907
       155                         -0.2409368              -6.5562
       156                         -0.2361687              -6.4265
       157                         -0.2352165              -6.4006
       158                         -0.2349410              -6.3931
       ...                                ...                  ...
       285                          0.7214311              19.6311
      -------------------------------------------------------------
                  HL-Gap            0.0663360 Eh            1.8051 eV

     #   Z          covCN         q      C6AA      α(0)
     1   6 C        2.920    -0.022    28.557     8.763
     2   6 C        2.918    -0.027    28.668     8.780
     3   6 C        2.924    -0.023    28.573     8.766
     4   6 C        2.984    -0.000    28.029     8.684
     5   6 C        2.983     0.203    23.688     7.984
     6   7 N        1.844    -0.290    28.380     7.895
     7   6 C        2.983     0.203    23.689     7.984
     8   6 C        2.984    -0.000    28.029     8.684
     9   6 C        2.924    -0.023    28.573     8.766
    10   6 C        2.918    -0.027    28.666     8.780
    11   6 C        2.920    -0.022    28.557     8.763
    12   6 C        2.918    -0.027    28.671     8.781
    13   6 C        2.924    -0.023    28.574     8.766
    14   7 N        1.845    -0.296    28.513     7.914
    15   6 C        2.988     0.203    23.693     7.985
    16   6 C        2.983    -0.001    28.048     8.687
    17   6 C        2.926    -0.045    29.119     8.849
    18   6 C        2.911     0.055    26.759     8.482
    19   7 N        2.797    -0.047    22.150     6.990
    20   6 C        3.081     0.049    26.824     8.491
    21   6 C        2.910    -0.047    29.177     8.857
    22   6 C        2.925    -0.028    28.705     8.786
    23   6 C        2.921    -0.036    28.893     8.815
    24   6 C        2.913    -0.025    28.630     8.774
    25   6 C        3.063    -0.020    28.440     8.745
    26   6 C        3.073     0.072    26.306     8.409
    27   7 N        1.832    -0.227    26.807     7.673
    28   6 C        2.924     0.050    26.870     8.501
    29   6 C        2.922    -0.045    29.112     8.848
    30   6 C        2.915    -0.035    28.875     8.812
    31   6 C        3.074     0.039    27.041     8.526
    32   6 C        2.913     0.041    27.079     8.533
    33   7 N        2.798    -0.044    22.093     6.981
    34   6 C        3.081     0.050    26.801     8.487
    35   6 C        2.910    -0.047    29.177     8.857
    36   6 C        2.925    -0.028    28.707     8.786
    37   6 C        2.921    -0.036    28.891     8.814
    38   6 C        2.913    -0.024    28.615     8.772
    39   6 C        3.064    -0.020    28.432     8.744
    40   6 C        3.076     0.072    26.320     8.411
    41   7 N        1.833    -0.226    26.784     7.669
    42   6 C        2.925     0.053    26.820     8.493
    43   6 C        2.923    -0.043    29.073     8.842
    44   6 C        2.915    -0.033    28.813     8.802
    45   6 C        3.072     0.040    27.033     8.525
    46   6 C        2.910     0.055    26.769     8.484
    47   7 N        2.798    -0.047    22.151     6.990
    48   6 C        3.079     0.049    26.824     8.491
    49   6 C        2.910    -0.051    29.256     8.869
    50   6 C        2.924    -0.030    28.754     8.794
    51   6 C        2.920    -0.038    28.941     8.822
    52   6 C        2.912    -0.025    28.633     8.774
    53   6 C        3.064    -0.019    28.418     8.742
    54   6 C        3.074     0.070    26.352     8.417
    55   7 N        1.833    -0.228    26.823     7.675
    56   6 C        2.925     0.053    26.821     8.493
    57   6 C        2.922    -0.043    29.077     8.843
    58   6 C        2.915    -0.033    28.824     8.804
    59   6 C        3.072     0.038    27.076     8.532
    60   6 C        2.926    -0.045    29.116     8.849
    61   7 N        1.845    -0.295    28.501     7.912
    62   6 C        2.924    -0.023    28.575     8.766
    63   6 C        2.918    -0.027    28.670     8.780
    64   1 H        0.926     0.039     2.462     2.453
    65   1 H        0.926     0.039     2.463     2.454
    66   1 H        0.926     0.056     2.247     2.344
    67   1 H        0.926     0.056     2.245     2.343
    68   1 H        0.926     0.039     2.462     2.454
    69   1 H        0.926     0.039     2.461     2.453
    70   1 H        0.926     0.039     2.465     2.455
    71   1 H        0.926     0.054     2.273     2.358
    72   1 H        0.926     0.072     2.063     2.246
    73   1 H        0.926     0.024     2.675     2.558
    74   1 H        0.926     0.034     2.524     2.484
    75   1 H        0.926     0.038     2.476     2.461
    76   1 H        0.926     0.051     2.310     2.377
    77   1 H        0.925     0.037     2.488     2.466
    78   1 H        0.926     0.034     2.526     2.485
    79   1 H        0.926     0.030     2.582     2.513
    80   1 H        0.926     0.021     2.716     2.577
    81   1 H        0.926     0.035     2.514     2.479
    82   1 H        0.926     0.038     2.469     2.457
    83   1 H        0.926     0.052     2.299     2.371
    84   1 H        0.925     0.040     2.449     2.447
    85   1 H        0.926     0.036     2.505     2.475
    86   1 H        0.926     0.024     2.667     2.554
    87   1 H        0.926     0.031     2.567     2.506
    88   1 H        0.926     0.035     2.521     2.483
    89   1 H        0.926     0.035     2.514     2.479
    90   1 H        0.926     0.050     2.319     2.382
    91   1 H        0.925     0.039     2.459     2.452
    92   1 H        0.926     0.035     2.516     2.480
    93   1 H        0.926     0.026     2.642     2.542
    94   1 H        0.926     0.074     2.045     2.236
    95   1 H        0.926     0.055     2.263     2.353
    96   1 H        0.926     0.039     2.462     2.454

molecular dipole:
                 x           y           z       tot (Debye)
 q only:        1.532      -0.012       0.133
   full:        2.505       0.019       0.017       6.368

 projected vibrational frequencies (cm⁻¹)
eigval :       -0.00    -0.00    -0.00    -0.00     0.00     0.00
eigval :        7.32    12.80    16.11    19.46    21.21    21.97
eigval :       22.96    27.94    28.38    39.65    47.36    52.49
eigval :       55.93    60.86    69.17    91.89    92.07   104.16
eigval :      106.00   107.46   120.45   123.96   126.55   144.18
eigval :      151.41   152.56   169.08   179.29   181.71   186.40
eigval :      188.78   204.12   221.92   231.52   239.79   245.50
eigval :      261.19   267.71   276.58   279.15   282.98   296.64
eigval :      331.55   350.46   358.61   364.17   364.94   376.38
eigval :      386.60   402.15   403.06   403.71   410.00   415.11
eigval :      424.06   427.42   428.37   437.61   439.53   442.24
eigval :      445.86   480.66   497.67   512.20   512.48   521.94
eigval :      522.42   524.07   537.24   542.90   544.96   548.97
eigval :      550.76   552.38   562.93   586.14   587.52   588.12
eigval :      596.30   596.50   596.88   612.54   623.90   624.71
eigval :      627.15   640.76   649.19   653.45   654.36   674.26
eigval :      680.75   682.91   683.96   685.32   692.42   700.75
eigval :      722.64   725.28   725.40   731.63   749.93   753.89
eigval :      763.82   766.32   775.81   778.17   778.60   779.81
eigval :      783.48   796.15   799.30   799.98   800.53   847.44
eigval :      860.66   867.24   875.59   877.32   879.68   882.71
eigval :      883.97   895.23   900.76   901.54   901.92   904.82
eigval :      907.35   909.50   910.30   910.45   910.72   911.41
eigval :      912.10   918.11   919.38   919.84   926.34   926.62
eigval :      927.30   930.03   931.12   933.12   934.38   934.57
eigval :      959.33   990.43   999.87  1021.98  1024.58  1025.24
eigval :     1049.05  1050.45  1066.35  1067.34  1067.64  1074.92
eigval :     1076.19  1088.83  1091.16  1092.40  1093.67  1104.84
eigval :     1108.62  1112.53  1123.09  1144.19  1145.20  1146.70
eigval :     1149.84  1150.56  1165.89  1171.75  1175.91  1177.95
eigval :     1178.35  1180.54  1180.79  1181.32  1188.23  1195.30
eigval :     1202.65  1207.19  1212.39  1219.01  1228.35  1231.72
eigval :     1234.30  1246.10  1268.43  1269.65  1287.53  1287.95
eigval :     1289.86  1295.06  1298.31  1298.59  1304.63  1315.67
eigval :     1322.16  1329.79  1330.35  1333.96  1334.95  1339.48
eigval :     1345.01  1356.12  1357.96  1359.48  1372.11  1373.74
eigval :     1378.56  1385.98  1393.50  1413.16  1418.54  1423.07
eigval :     1431.35  1432.83  1433.70  1441.04  1467.71  1467.91
eigval :     1471.10  1472.89  1475.16  1476.58  1485.66  1486.05
eigval :     1486.69  1510.09  1519.56  1545.26  1558.03  1559.59
eigval :     1561.44  1565.53  1582.09  1582.87  1583.30  1584.35
eigval :     1585.24  1588.64  1589.13  1591.22  1594.59  1595.46
eigval :     1607.32  1609.34  1610.42  3063.55  3064.65  3066.98
eigval :     3067.64  3070.29  3076.65  3076.70  3076.72  3077.74
eigval :     3078.07  3081.25  3082.69  3082.85  3085.75  3087.15
eigval :     3089.17  3091.66  3092.01  3094.35  3094.90  3096.84
eigval :     3097.57  3099.71  3100.66  3106.38  3106.58  3107.87
eigval :     3109.72  3110.74  3110.93  3111.89  3116.95  3118.20

   temp. (K)  partition function   enthalpy   heat capacity  entropy
                                   cal/mol     cal/K/mol   cal/K/mol   J/K/mol
 298.15  VIB  0.116E+24            28409.687    177.245    177.560
         ROT  0.135E+09              888.752      2.981     40.178
         INT  0.156E+32            29298.439    180.226    217.738
         TR   0.222E+29             1481.254      4.968     45.925
         TOT                       30779.6934   185.1941   263.6628  1103.1650

       T/K    H(0)-H(T)+PV         H(T)/Eh          T*S/Eh         G(T)/Eh
   ------------------------------------------------------------------------
    298.15    0.490506E-01    0.766021E+00    0.125275E+00    0.640746E+00
   ------------------------------------------------------------------------

         :::::::::::::::::::::::::::::::::::::::::::::::::::::
         ::                  THERMODYNAMIC                  ::
         :::::::::::::::::::::::::::::::::::::::::::::::::::::
         :: total free energy        -158.266859735433 Eh   ::
         ::.................................................::
         :: total energy             -158.907605820862 Eh   ::
         :: zero point energy           0.716970205482 Eh   ::
         :: G(RRHO) w/o ZPVE           -0.076224120053 Eh   ::
         :: G(RRHO) contrib.            0.640746085429 Eh   ::
         :::::::::::::::::::::::::::::::::::::::::::::::::::::

           -------------------------------------------------
          | TOTAL ENERGY             -158.907605820862 Eh   |
          | TOTAL ENTHALPY           -158.141585051722 Eh   |
          | TOTAL FREE ENERGY        -158.266859735433 Eh   |
          | GRADIENT NORM               0.000050160359 Eh/α |
          | HOMO-LUMO GAP               1.805095678383 eV   |
           -------------------------------------------------

 * finished run on 2025/09/10 at 13:28:01.329
