   * xtb version 6.7.1 (edcfbbe) compiled by 'albert@albert-system' on 2024-07-22

   ID    Z sym.   atoms
    1    6 C      1-5, 7-13, 15-18, 20-26, 28-32, 34-40, 42-46, 48-54, 56-60,
                  62, 63
    2    7 N      6, 14, 19, 27, 33, 41, 47, 55, 61
    3    1 H      64-96

          program call               : xtb data2507/gas/TCbTrz/TCbTrz_gas_S0_finalOpt.xtbopt.xyz --gfn 2 --spinpol --tblite --uhf 2 --ohess vtight --parallel 40 --molden --ceasefiles --namespace data2507/gas/TCbTrz/TCbTrz_gas_T1_preOpt
 * total energy  :  -158.8294754 Eh     change        0.6614300E-07 Eh
 * total energy  :  -158.8329522 Eh     change       -0.3476747E-02 Eh
 * total energy  :  -158.8347826 Eh     change       -0.1830462E-02 Eh
 * total energy  :  -158.8349985 Eh     change       -0.2158393E-03 Eh
 * total energy  :  -158.8350591 Eh     change       -0.6057328E-04 Eh
 * total energy  :  -158.8351206 Eh     change       -0.6157818E-04 Eh
 * total energy  :  -158.8351333 Eh     change       -0.1267942E-04 Eh
 * total energy  :  -158.8351504 Eh     change       -0.1707824E-04 Eh
 * total energy  :  -158.8351627 Eh     change       -0.1227087E-04 Eh
 * total energy  :  -158.8351876 Eh     change       -0.2495291E-04 Eh
 * total energy  :  -158.8354913 Eh     change       -0.8497174E-06 Eh
 * total energy  :  -158.8354922 Eh     change       -0.8188880E-06 Eh
 * total energy  :  -158.8354928 Eh     change       -0.6126783E-06 Eh
 * total energy  :  -158.8354932 Eh     change       -0.4579219E-06 Eh
 * total energy  :  -158.8354936 Eh     change       -0.3837955E-06 Eh
 * total energy  :  -158.8354941 Eh     change       -0.4338607E-06 Eh
 * total energy  :  -158.8354945 Eh     change       -0.4546351E-06 Eh
 * total energy  :  -158.8354949 Eh     change       -0.4387183E-06 Eh
 * total energy  :  -158.8354950 Eh     change       -0.1139247E-07 Eh
   *** GEOMETRY OPTIMIZATION CONVERGED AFTER 68 ITERATIONS ***

 final structure:
================
96
 xtb: 6.7.1 (edcfbbe)
C            7.32841804138303       -4.71513571353300       -0.46249855168163
C            8.00031243095303       -3.50613746844659       -0.36803357643858
C            7.29249682419174       -2.32527004271116       -0.26406901134820
C            5.89767539803063       -2.34407899141235       -0.25417168426435
C            5.14832337363655       -1.10057121044924       -0.13513348255083
N            5.83631325381175        0.05209934649472       -0.00706371316192
C            5.12525152906740        1.19139953741065        0.12157635114227
C            5.85084427222131        2.44890703464786        0.23883688761694
C            7.24589040733244        2.45813869723213        0.23179520817172
C            7.93122718710796        3.65229041498361        0.33419678006306
C            7.23676661351773        4.84712530934181        0.44433246417869
C            5.84951715851753        4.84440820127758        0.45252204686610
C            5.15759922490086        3.65496203834694        0.35061934212254
N            3.82045296142167        1.20084103763915        0.14025410586265
C            3.15608887549799        0.02616315471436       -0.00381172751177
C            1.73956889592589        0.01134263315967       -0.00199730440035
C            1.00511556118029        1.18523576513936        0.26206360231605
C           -0.37016218844203        1.16953579091938        0.27057656403913
N           -1.08462594941125        2.35210984414991        0.54518262626709
C           -2.15228054005560        2.46815006812043        1.41573982170926
C           -2.55061253464086        1.60902512193066        2.42943031068285
C           -3.67247656233183        1.95115144893840        3.15836566988622
C           -4.36986296677944        3.13199200444904        2.90961812971165
C           -3.94277825868212        4.02150934643944        1.94452603839248
C           -2.82054572960081        3.69300974371127        1.19536960304831
C           -2.09485797714709        4.36080036124495        0.15391350980484
N           -2.30263943715164        5.53187951280276       -0.42179609171243
C           -1.46940400743526        5.89403969845573       -1.37634595006563
C           -0.40170728480251        5.11082892077305       -1.81401574356559
C           -0.16036738685220        3.88068090754389       -1.22581740255328
C           -1.02346962041687        3.49799114546633       -0.21084549477382
C           -1.07985217396563       -0.01935168363059       -0.00663484173979
N           -2.48449001963069       -0.02458093517144       -0.03056475025682
C           -3.27533614536392        0.79997598173603       -0.80843050378111
C           -2.89946632220376        1.68999249388058       -1.80462168382986
C           -3.89530231458789        2.41041140834535       -2.43331373191298
C           -5.23832817944266        2.23630856048561       -2.10314366369822
C           -5.62359880333037        1.31324688119729       -1.15260039629758
C           -4.63689109006298        0.58299621253672       -0.50288970800728
C           -4.66310867238173       -0.44762043646561        0.49230501717482
N           -5.68362315932166       -1.02625571288941        1.10074317035409
C           -5.40972531708558       -1.95104883917079        1.99765680387031
C           -4.11468214518986       -2.32133590558618        2.35930569757428
C           -3.02913617125449       -1.72597916057831        1.74192921534469
C           -3.30833264834999       -0.78702146183521        0.76105417756397
C           -0.34550276662850       -1.19526491134775       -0.26574211105930
N           -1.03273174734063       -2.39887745034258       -0.52013258968866
C           -0.91674298990348       -3.54974647224639        0.23920439538073
C           -0.02691658351078       -3.84160068011695        1.26373790329005
C           -0.14090654026888       -5.07150429218124        1.88259622890656
C           -1.11725939632802       -5.99246240265986        1.50449191413690
C           -2.01468094181468       -5.70362871665212        0.49704695140028
C           -1.91747163160651       -4.47313910690619       -0.14053504742607
C           -2.66919152755216       -3.84267391052653       -1.18599175797348
N           -3.70990921672768       -4.27623547927247       -1.87634890374357
C           -4.19777805126290       -3.47634159210905       -2.80223661992708
C           -3.65582324623463       -2.22960990852439       -3.11392130295822
C           -2.55870547875738       -1.75925543297562       -2.41415704771649
C           -2.07707765590754       -2.56692053667943       -1.39563520650854
C            1.02977413546944       -1.17981436768444       -0.25979764536756
N            3.84411016293609       -1.13491094462465       -0.15054330921901
C            5.22705139186819       -3.56414286735017       -0.34992578742927
C            5.94142718455788       -4.74019193744002       -0.45326226908879
H            7.88460352662984       -5.63747720743138       -0.54270558075671
H            9.08034312335711       -3.48758099363885       -0.37507930383437
H            7.80129201644930       -1.37653947488444       -0.18903686024071
H            7.77256604097100        1.52025966687599        0.14491815523537
H            9.01141641307894        3.65524358401776        0.32794157482130
H            7.77536647290664        5.77991912421688        0.52350574837547
H            5.30938988853398        5.77601408616436        0.53844576602496
H            4.07862848413159        3.63675874466962        0.35460528930046
H            1.54001185600777        2.09239150552544        0.49263075586192
H           -1.99598486830815        0.70955929793768        2.64921255013552
H           -4.01325474328345        1.28943262244925        3.94076327698196
H           -5.24743349672930        3.35696708475088        3.49627837098747
H           -4.45576960444550        4.95283672339481        1.76543612374336
H           -1.66050387637102        6.86146448675738       -1.81983880108969
H            0.23589532539744        5.47000732007222       -2.60662076252468
H            0.65932223898754        3.25293041733804       -1.54492081710390
H           -1.86458659788879        1.81115623292373       -2.08899383002424
H           -3.62567786700493        3.12118494317854       -3.20033879225608
H           -5.98487169118968        2.82534056219925       -2.61372159930419
H           -6.66119086598050        1.14919842130225       -0.90953635762250
H           -6.26637308841829       -2.41749003808468        2.46380683035139
H           -3.96237882446334       -3.07077932979037        3.11976578881034
H           -2.01848839577084       -1.98419986428470        2.02275340475272
H            0.72563455371917       -3.13090233053276        1.57091430830175
H            0.54215670560593       -5.32398313286540        2.68016915140869
H           -1.17003207510407       -6.94223955650118        2.01505151148650
H           -2.78080518304019       -6.40257818881753        0.20156677163441
H           -5.05625383029909       -3.85376559048264       -3.33995072780520
H           -4.08773251017942       -1.63964483888176       -3.90667021136896
H           -2.09865435265785       -0.81452032358980       -2.66210808299894
H            1.58390060969158       -2.07694834514470       -0.48351722262684
H            4.14797059035460       -3.56782775585017       -0.33935427161541
H            5.41886224238390       -5.68279308426744       -0.52628188062500

 projected vibrational frequencies (cm⁻¹)
eigval :       -0.00    -0.00    -0.00    -0.00     0.00     0.00
eigval :        9.89    12.54    15.66    18.91    20.66    21.63
eigval :       26.86    27.64    29.79    38.84    47.35    49.95
eigval :       53.51    60.10    68.55    93.37   101.36   103.77
eigval :      105.82   108.39   118.25   121.47   124.50   143.25
eigval :      149.43   152.33   169.43   177.60   180.19   181.35
eigval :      200.31   215.01   218.70   230.35   232.23   247.52
eigval :      253.04   264.51   273.84   275.41   281.31   292.14
eigval :      314.23   349.79   355.69   366.04   366.81   368.55
eigval :      371.30   387.91   401.39   403.78   407.91   409.99
eigval :      411.57   421.30   425.85   427.90   437.74   438.97
eigval :      441.81   457.35   487.19   499.81   504.84   520.90
eigval :      521.58   522.39   534.82   539.09   540.33   541.60
eigval :      543.14   546.35   549.06   558.39   560.42   574.59
eigval :      583.50   585.14   587.58   588.27   588.68   603.99
eigval :      609.02   623.32   632.22   640.80   644.83   655.37
eigval :      662.88   670.10   679.27   679.78   681.81   683.06
eigval :      686.82   704.91   719.60   721.29   721.99   746.20
eigval :      760.68   762.57   764.03   764.23   775.76   777.10
eigval :      778.18   780.40   783.63   785.61   790.28   800.39
eigval :      830.80   839.09   847.15   863.10   870.27   872.39
eigval :      880.35   881.15   882.86   893.94   894.29   895.05
eigval :      895.76   897.30   900.27   901.33   902.89   908.98
eigval :      909.08   909.27   912.15   912.49   913.07   921.26
eigval :      925.51   925.88   926.51   927.12   927.47   930.20
eigval :      930.49   938.70   980.78   984.44   993.13  1018.13
eigval :     1021.34  1022.21  1037.17  1061.32  1064.46  1065.46
eigval :     1066.74  1073.99  1075.77  1087.53  1088.31  1089.46
eigval :     1092.66  1109.40  1110.09  1117.33  1134.17  1141.40
eigval :     1142.91  1143.64  1146.03  1157.18  1170.12  1175.17
eigval :     1176.01  1176.71  1178.04  1179.89  1180.34  1182.90
eigval :     1186.31  1189.80  1205.14  1213.93  1220.82  1230.57
eigval :     1233.66  1233.96  1259.51  1267.56  1274.66  1281.89
eigval :     1289.07  1290.99  1292.64  1293.71  1296.80  1297.18
eigval :     1304.79  1321.76  1329.71  1330.52  1331.63  1332.17
eigval :     1334.78  1337.70  1340.46  1350.70  1352.48  1353.73
eigval :     1378.38  1383.83  1393.26  1404.43  1413.13  1417.13
eigval :     1420.48  1429.28  1430.32  1432.87  1440.04  1447.01
eigval :     1464.72  1466.70  1467.40  1469.42  1478.88  1483.08
eigval :     1485.51  1486.20  1486.54  1499.96  1545.13  1548.37
eigval :     1550.63  1553.95  1574.35  1575.09  1579.34  1579.88
eigval :     1580.70  1584.91  1585.36  1586.76  1587.23  1594.12
eigval :     1602.93  1603.60  1605.35  3067.30  3069.32  3070.19
eigval :     3070.95  3074.79  3075.06  3075.29  3077.74  3079.56
eigval :     3079.86  3079.93  3081.51  3082.01  3086.65  3087.34
eigval :     3089.85  3090.21  3090.49  3094.89  3095.68  3097.30
eigval :     3098.04  3098.49  3099.17  3099.95  3100.83  3101.42
eigval :     3102.20  3108.09  3109.07  3109.43  3111.67  3113.87

   temp. (K)  partition function   enthalpy   heat capacity  entropy
                                   cal/mol     cal/K/mol   cal/K/mol   J/K/mol
 298.15  VIB  0.122E+24            28789.960    179.970    179.170
         ROT  0.135E+09              888.752      2.981     40.185
         INT  0.164E+32            29678.712    182.950    219.355
         TR   0.222E+29             1481.254      4.968     45.925
         TOT                       31159.9662   187.9186   265.2798  1109.9305

       T/K    H(0)-H(T)+PV         H(T)/Eh          T*S/Eh         G(T)/Eh
   ------------------------------------------------------------------------
    298.15    0.496566E-01    0.761411E+00    0.126043E+00    0.635368E+00
   ------------------------------------------------------------------------

         :::::::::::::::::::::::::::::::::::::::::::::::::::::
         ::                  THERMODYNAMIC                  ::
         :::::::::::::::::::::::::::::::::::::::::::::::::::::
         :: total free energy        -158.200127250925 Eh   ::
         ::.................................................::
         :: total energy             -158.835494906849 Eh   ::
         :: zero point energy           0.711754066181 Eh   ::
         :: G(RRHO) w/o ZPVE           -0.076386410257 Eh   ::
         :: G(RRHO) contrib.            0.635367655923 Eh   ::
         :::::::::::::::::::::::::::::::::::::::::::::::::::::

           -------------------------------------------------
          | TOTAL ENERGY             -158.835494906849 Eh   |
          | TOTAL ENTHALPY           -158.074084273825 Eh   |
          | TOTAL FREE ENERGY        -158.200127250925 Eh   |
          | GRADIENT NORM               0.000113728301 Eh/α |
           -------------------------------------------------

 * finished run on 2025/09/10 at 13:28:36.267
