   * xtb version 6.7.1 (edcfbbe) compiled by 'albert@albert-system' on 2024-07-22

   ID    Z sym.   atoms
    1    6 C      1-5, 7-13, 15-18, 20-26, 28-32, 34-40, 42-46, 48-54, 56-60,
                  62, 63
    2    7 N      6, 14, 19, 27, 33, 41, 47, 55, 61
    3    1 H      64-96

          program call               : xtb data2507/gas/TCbTrz/TCbTrz_gas_T1_crest.xyz --gfn 2 --spinpol --tblite --uhf 2 --ohess vtight --parallel 40 --molden --ceasefiles --namespace data2507/gas/TCbTrz/TCbTrz_gas_T1_finalOpt
 * total energy  :  -158.8354483 Eh     change       -0.2325945E-07 Eh
 * total energy  :  -158.8355037 Eh     change       -0.5539710E-04 Eh
 * total energy  :  -158.8355270 Eh     change       -0.2324715E-04 Eh
 * total energy  :  -158.8355293 Eh     change       -0.2337940E-05 Eh
 * total energy  :  -158.8355308 Eh     change       -0.1508938E-05 Eh
 * total energy  :  -158.8355319 Eh     change       -0.1095202E-05 Eh
 * total energy  :  -158.8355335 Eh     change       -0.1536814E-05 Eh
 * total energy  :  -158.8355354 Eh     change       -0.1964391E-05 Eh
 * total energy  :  -158.8355375 Eh     change       -0.2019918E-05 Eh
 * total energy  :  -158.8355388 Eh     change       -0.1367179E-05 Eh
 * total energy  :  -158.8355395 Eh     change       -0.6893727E-06 Eh
 * total energy  :  -158.8355402 Eh     change       -0.6894488E-06 Eh
 * total energy  :  -158.8355407 Eh     change       -0.4957379E-06 Eh
 * total energy  :  -158.8355412 Eh     change       -0.5367663E-06 Eh
 * total energy  :  -158.8355416 Eh     change       -0.3934346E-06 Eh
 * total energy  :  -158.8355420 Eh     change       -0.3288968E-06 Eh
 * total energy  :  -158.8355422 Eh     change       -0.2532836E-06 Eh
 * total energy  :  -158.8355422 Eh     change       -0.2379414E-07 Eh
   *** GEOMETRY OPTIMIZATION CONVERGED AFTER 18 ITERATIONS ***

 final structure:
================
96
 xtb: 6.7.1 (edcfbbe)
C            7.36196114968283       -4.65407489722424       -0.55293195512184
C            8.02507206275419       -3.44187429958167       -0.43941964516171
C            7.30888147213129       -2.26924686800067       -0.30417112977939
C            5.91442103248494       -2.29967724134461       -0.28208466328521
C            5.15611592064624       -1.06437120993683       -0.13661534628777
N            5.83568715512255        0.09120633495055        0.00814776600686
C            5.11640397696615        1.22356220877161        0.15091572092324
C            5.83298475162998        2.48327681453089        0.29708411291234
C            7.22793085361321        2.50071859885618        0.30630200445743
C            7.90481803004319        3.69635579231268        0.44211530694363
C            7.20189951509969        4.88451689549207        0.56945783686521
C            5.81470200504104        4.87367309512043        0.56083324778893
C            5.13120002288064        3.68265552234807        0.42579358181794
N            3.81151012656608        1.22444084433192        0.16126938984135
C            3.15561176456373        0.04630314030490        0.00636262053266
C            1.73937434552584        0.02157894705644        0.00470093626461
C            0.99585938393634        1.19652987784428        0.23709712204432
C           -0.37924580005764        1.17221886513858        0.23780694690335
N           -1.10241751445024        2.35819012878812        0.47240536934682
C           -2.17627095343222        2.49432104716056        1.33228217828273
C           -2.57545564541311        1.66455800032798        2.36979385914725
C           -3.70418089825636        2.02173437261985        3.08069538436630
C           -4.40761277873581        3.18953792193187        2.79083953957429
C           -3.98019777022900        4.05135852343804        1.80107060542375
C           -2.85108437155788        3.70718377975309        1.06952245674089
C           -2.12338640376798        4.34671812179913        0.01186255548607
N           -2.33544309280419        5.49751722879705       -0.60191472723691
C           -1.49909273082248        5.83477318389504       -1.56284052461369
C           -0.42373866215018        5.04527635356151       -1.96935318683781
C           -0.17770170463140        3.83616002834464       -1.34087508144451
C           -1.04418765095911        3.48003107590437       -0.31914323615440
C           -1.08000014501864       -0.02858852204361       -0.00934254662175
N           -2.48446863211213       -0.04294939635076       -0.04058833476723
C           -3.27462714684280        0.75453432126577       -0.84686144467005
C           -2.89705334013738        1.61414344480609       -1.86877020532301
C           -3.89232271269579        2.31149890796876       -2.52381217655972
C           -5.23620400421585        2.14365299596122       -2.19386844149861
C           -5.62282742930240        1.24947185349788       -1.21662773160769
C           -4.63676521584948        0.54278149259000       -0.54040393210600
C           -4.66391212091381       -0.45661809855518        0.48612193782637
N           -5.68517487294944       -1.01920001430196        1.10817999422847
C           -5.41225510867990       -1.91495935650982        2.03439936471422
C           -4.11762274850696       -2.27031228306633        2.41211580090893
C           -3.03129250044020       -1.69120593493839        1.78079557859675
C           -3.30920044748858       -0.78338550382115        0.77068387827905
C           -0.33670464165971       -1.20622990541915       -0.23229641285830
N           -1.01410530381951       -2.42274063360068       -0.44929430066344
C           -0.89007771701094       -3.54666650813536        0.34829289057498
C           -0.00036849563187       -3.79641924115838        1.38400470584143
C           -0.10551829134450       -5.00577389354935        2.04359002906812
C           -1.07305056927954       -5.94723451645652        1.69440523801781
C           -1.97034824124148       -5.70001333191744        0.67584171253765
C           -1.88205535443946       -4.49074193609323       -0.00239107811431
C           -2.63689384670907       -3.90176864241587       -1.06956372262635
N           -3.67245170420577       -4.36697326691484       -1.74693223554612
C           -4.16560678575319       -3.60223009374524       -2.69933567319815
C           -3.63430358028629       -2.36145837993397       -3.05066631286085
C           -2.54265520668831       -1.85864751365999       -2.36505438226244
C           -2.05544054621147       -2.62843444338785       -1.32020335744649
C            1.03838396595740       -1.18053370744193       -0.22506784242464
N            3.85217781751447       -1.10867844731760       -0.14847044061826
C            5.25267391823884       -3.52293162041575       -0.39661930378328
C            5.97538190755952       -4.69072987853911       -0.53089864714150
H            7.92467053555461       -5.56990663958181       -0.65826707171579
H            9.10479420418214       -3.41430848229428       -0.45658545980508
H            7.81072761415864       -1.31805594273698       -0.21476705753657
H            7.76115938002897        1.56784266936414        0.20648555824229
H            8.98496053738781        3.70563284813268        0.44917223499891
H            7.73388619047386        5.81843785081572        0.67548981903659
H            5.26799107901622        5.80008438445691        0.66016896843408
H            4.05239444235275        3.65809273013883        0.41725063759634
H            1.52365688568424        2.11308394347495        0.44575145771363
H           -2.01639016628118        0.77607406998783        2.62082232161071
H           -4.04568937105411        1.38245451680740        3.88121494111010
H           -5.29040022165213        3.42679416849229        3.36468568195268
H           -4.49815331830625        4.97312641225111        1.58972070570822
H           -1.69392647297709        6.78632316297837       -2.03793860992978
H            0.21607069108238        5.38333944172239       -2.76943716968049
H            0.64802367844254        3.20420174698372       -1.63515855595828
H           -1.86125275891221        1.72945508973168       -2.15228055176247
H           -3.62156657377747        2.99876555444671       -3.31158165376562
H           -5.98229716831413        2.71422321898323       -2.72562757234763
H           -6.66097085960065        1.08998834663474       -0.97289084326425
H           -6.26945186544039       -2.36915547382709        2.51150490205012
H           -3.96624662187063       -2.99561986915637        3.19580750893162
H           -2.02104787383683       -1.93813839923982        2.07301467328698
H            0.74539504831046       -3.06943135861851        1.66879494842644
H            0.57763316920190       -5.22548358780168        2.85072970311520
H           -1.11903877638635       -6.87976596835494        2.23644730748929
H           -2.72979973729501       -6.41500413455292        0.40233188743641
H           -5.01965215861904       -4.00474453388528       -3.22578789013942
H           -4.07018059655941       -1.80151003456303       -3.86277556595501
H           -2.09090040475551       -0.91819932216295       -2.64279751388209
H            1.59930516971095       -2.07957688858143       -0.42261142752570
H            4.17380505475290       -3.53553690126996       -0.37670679300007
H            5.45967352014402       -5.63583172736840       -0.61882070971001

 projected vibrational frequencies (cm⁻¹)
eigval :       -0.00    -0.00    -0.00     0.00     0.00     0.00
eigval :        9.74    12.60    15.76    18.14    20.79    21.72
eigval :       26.75    27.07    29.55    38.65    47.38    49.96
eigval :       53.61    60.21    68.41    93.63   101.10   103.86
eigval :      105.55   108.61   117.89   120.99   124.49   143.18
eigval :      149.43   152.28   169.32   177.55   179.99   181.66
eigval :      200.24   215.05   218.76   230.39   232.12   247.59
eigval :      252.99   264.53   273.71   275.56   281.22   291.79
eigval :      314.53   349.72   355.92   366.05   366.81   369.14
eigval :      370.82   387.50   401.28   403.54   407.86   410.07
eigval :      411.52   421.77   425.88   428.02   437.99   439.42
eigval :      441.76   457.66   487.21   499.78   504.60   520.88
eigval :      521.59   522.36   534.66   539.03   540.41   541.73
eigval :      543.07   545.89   549.06   558.90   560.14   574.35
eigval :      583.53   584.99   587.62   588.27   588.77   604.12
eigval :      609.02   623.45   632.16   640.79   645.43   655.41
eigval :      662.92   670.03   679.24   679.89   681.78   683.05
eigval :      687.14   705.19   719.58   721.27   721.98   746.09
eigval :      760.70   762.64   764.09   764.18   775.66   777.09
eigval :      778.17   780.39   783.48   785.28   789.90   800.37
eigval :      830.73   839.15   850.47   862.69   870.34   872.45
eigval :      880.32   881.01   882.85   893.98   894.28   895.12
eigval :      895.88   897.00   900.90   901.40   902.95   908.84
eigval :      909.05   909.21   911.98   912.21   912.97   921.60
eigval :      925.51   925.83   926.55   927.13   927.51   930.27
eigval :      930.54   939.08   980.79   984.38   992.64  1018.25
eigval :     1021.42  1022.37  1036.80  1061.24  1064.35  1065.47
eigval :     1066.77  1074.03  1075.77  1087.43  1088.06  1089.50
eigval :     1092.80  1109.46  1109.90  1117.25  1134.24  1141.46
eigval :     1142.90  1143.89  1145.94  1156.93  1170.11  1175.10
eigval :     1176.06  1176.62  1177.99  1179.91  1180.37  1183.03
eigval :     1186.50  1189.81  1205.05  1213.93  1220.07  1230.57
eigval :     1233.61  1233.92  1259.79  1267.59  1274.60  1281.72
eigval :     1289.14  1291.04  1292.50  1293.54  1296.77  1297.23
eigval :     1304.60  1321.58  1329.75  1330.55  1331.63  1332.12
eigval :     1334.69  1337.79  1340.34  1350.85  1352.48  1353.80
eigval :     1378.52  1383.96  1393.26  1404.46  1413.19  1417.25
eigval :     1420.60  1429.39  1430.54  1433.27  1440.13  1447.30
eigval :     1464.67  1466.76  1467.64  1469.32  1479.01  1483.20
eigval :     1485.42  1486.20  1486.54  1499.89  1545.47  1548.37
eigval :     1550.67  1554.72  1574.46  1575.24  1579.30  1580.04
eigval :     1580.73  1585.06  1585.43  1586.83  1587.29  1594.11
eigval :     1602.91  1603.62  1605.55  3067.28  3069.37  3070.25
eigval :     3070.96  3074.82  3075.12  3075.33  3077.66  3079.70
eigval :     3079.91  3080.02  3081.50  3082.06  3086.65  3087.37
eigval :     3089.92  3090.27  3090.51  3094.93  3095.70  3097.30
eigval :     3098.09  3098.49  3099.29  3099.86  3100.97  3101.48
eigval :     3102.26  3108.11  3109.12  3109.46  3111.81  3113.96

   temp. (K)  partition function   enthalpy   heat capacity  entropy
                                   cal/mol     cal/K/mol   cal/K/mol   J/K/mol
 298.15  VIB  0.131E+24            28792.421    179.951    179.229
         ROT  0.135E+09              888.752      2.981     40.186
         INT  0.177E+32            29681.174    182.932    219.415
         TR   0.222E+29             1481.254      4.968     45.925
         TOT                       31162.4277   187.8999   265.3396  1110.1809

       T/K    H(0)-H(T)+PV         H(T)/Eh          T*S/Eh         G(T)/Eh
   ------------------------------------------------------------------------
    298.15    0.496605E-01    0.761426E+00    0.126071E+00    0.635354E+00
   ------------------------------------------------------------------------

         :::::::::::::::::::::::::::::::::::::::::::::::::::::
         ::                  THERMODYNAMIC                  ::
         :::::::::::::::::::::::::::::::::::::::::::::::::::::
         :: total free energy        -158.200187923649 Eh   ::
         ::.................................................::
         :: total energy             -158.835542208599 Eh   ::
         :: zero point energy           0.711765206948 Eh   ::
         :: G(RRHO) w/o ZPVE           -0.076410921998 Eh   ::
         :: G(RRHO) contrib.            0.635354284950 Eh   ::
         :::::::::::::::::::::::::::::::::::::::::::::::::::::

           -------------------------------------------------
          | TOTAL ENERGY             -158.835542208599 Eh   |
          | TOTAL ENTHALPY           -158.074116512024 Eh   |
          | TOTAL FREE ENERGY        -158.200187923649 Eh   |
          | GRADIENT NORM               0.000138582092 Eh/α |
           -------------------------------------------------

 * finished run on 2025/09/10 at 13:42:29.612
