   * xtb version 6.7.1 (edcfbbe) compiled by 'albert@albert-system' on 2024-07-22

   ID    Z sym.   atoms
    1    6 C      1-4, 6-16, 18-22, 24-37, 39-43, 45-58, 60-63
    2    7 N      5, 17, 23, 38, 44, 59
    3    1 H      64-105

          program call               : xtb data2507/toluene/TDPA–TRZ/TDPA–TRZ_toluene_S0_finalOpt.xtbopt.xyz --gfn 2 --uhf 2 --gbsa toluene --ohess vtight --parallel 40 --molden --ceasefiles --namespace data2507/toluene/TDPA–TRZ/TDPA–TRZ_toluene_T1_preOpt
      * Solvation model:               GBSA
        Solvent                        toluene
        Solvent mass                       9.2140E+01 g/mol
          :  Hamiltonian                  GFN2-xTB          :
 * total energy  :  -161.0397752 Eh     change       -0.6208600E-07 Eh
 * total energy  :  -161.0409308 Eh     change       -0.1155600E-02 Eh
 * total energy  :  -161.0412829 Eh     change       -0.3521156E-03 Eh
 * total energy  :  -161.0413433 Eh     change       -0.6038864E-04 Eh
 * total energy  :  -161.0414444 Eh     change       -0.1011509E-03 Eh
 * total energy  :  -161.0415246 Eh     change       -0.8012332E-04 Eh
 * total energy  :  -161.0416200 Eh     change       -0.9539168E-04 Eh
 * total energy  :  -161.0417264 Eh     change       -0.1064411E-03 Eh
 * total energy  :  -161.0418062 Eh     change       -0.7977643E-04 Eh
 * total energy  :  -161.0418529 Eh     change       -0.4674370E-04 Eh
 * total energy  :  -161.0420197 Eh     change       -0.8677457E-06 Eh
 * total energy  :  -161.0420205 Eh     change       -0.7923256E-06 Eh
 * total energy  :  -161.0420214 Eh     change       -0.9054145E-06 Eh
 * total energy  :  -161.0420225 Eh     change       -0.1064720E-05 Eh
 * total energy  :  -161.0420236 Eh     change       -0.1151570E-05 Eh
 * total energy  :  -161.0420249 Eh     change       -0.1251358E-05 Eh
 * total energy  :  -161.0420258 Eh     change       -0.9694918E-06 Eh
 * total energy  :  -161.0420269 Eh     change       -0.1030668E-05 Eh
 * total energy  :  -161.0420269 Eh     change       -0.6827605E-08 Eh
   *** GEOMETRY OPTIMIZATION CONVERGED AFTER 94 ITERATIONS ***

 final structure:
================
105
 xtb: 6.7.1 (edcfbbe)
C           -8.89897578098458        3.27522150463529       -2.10021856160939
C           -9.41265078658545        2.81817722459914       -0.89624472142839
C           -8.77625444133673        1.80809293934633       -0.20201363218625
C           -7.60890721891909        1.23382324531052       -0.71036787474014
N           -6.95437738873596        0.21575565961656       -0.01145513810383
C           -7.68809943329092       -0.74354311464288        0.69041623815135
C           -7.21097934147704       -1.25124053526805        1.90115359469495
C           -7.93813393561249       -2.20124719925640        2.59084997525531
C           -9.14875580334906       -2.65800981095168        2.09266591190636
C           -9.62669133463451       -2.15811351819303        0.89096610266076
C           -8.90554685144222       -1.21162381862241        0.19020103520237
C           -5.55722393227671        0.16675123207357       -0.00702279576500
C           -4.80507264126424        1.34715800638812        0.06389743146811
C           -3.43324520353596        1.29937045408162        0.06663263834096
C           -2.75431486295463        0.07234168980260       -0.00015050386040
C           -1.31179804027565        0.02650443381756        0.00173888671456
N           -0.63903731657082        1.18228470866318        0.09291159986143
C            0.69767004719791        1.10658385959552        0.06957270032846
C            1.45483821279524        2.33479773876621        0.13280361568373
C            2.85813026242043        2.31724103843689        0.13418997080547
C            3.57766726622591        3.48520756994379        0.19338031278252
C            2.92181943304512        4.72203051927083        0.25739370165906
N            3.65323436035604        5.91125680757340        0.32250423147030
C            4.82901020081414        5.96506723709654        1.07644091133809
C            5.91987008161520        6.71715722567007        0.63457698894770
C            7.07931431929339        6.76582416888629        1.38322276317424
C            7.17502918636274        6.06605837183149        2.57629766907592
C            6.09638844237165        5.31504209724080        3.01786893584346
C            4.93041992887448        5.26284800368214        2.27956342151615
C            3.20581218580704        7.04278556169497       -0.36512269642510
C            3.36293618211899        8.31664118975667        0.18606927262965
C            2.91562618961234        9.42970231951496       -0.49816345871322
C            2.30227830324122        9.29543276793604       -1.73428403582530
C            2.14120917012425        8.03316988969506       -2.28482460674737
C            2.58906475049382        6.91360688700376       -1.61163954605677
C            1.52062014523947        4.74628907385492        0.25538838358243
C            0.80409569114585        3.57689215655948        0.19219855358051
N            1.36476201901297       -0.05159126745227       -0.00147257021752
C            0.62947448819873       -1.17049975020358       -0.06921728970273
C            1.31368412248918       -2.43917905383806       -0.13329842512377
C            2.71636378636723       -2.50108175333394       -0.14160657931425
C            3.36899655468112       -3.70732238673290       -0.20248873786876
C            2.64440580865162       -4.90555394655064       -0.26116960555338
N            3.30697126326678       -6.13488697970905       -0.32859569205639
C            4.46780560704228       -6.25918291644521       -1.09623281043190
C            4.59934012246923       -5.55863516015928       -2.29763999053625
C            5.75120420130254       -5.67949491378760       -3.04980187385330
C            6.78558738919693       -6.49916448024570       -2.62478950836585
C            6.66002539477642       -7.19756477540475       -1.43366182906222
C            5.51497359476559       -7.08008872616852       -0.67072340168576
C            2.80010928474472       -7.23553933009669        0.36762577578976
C            2.87274851483394       -8.51815904583014       -0.18089909033149
C            2.36470957566163       -9.59970427803333        0.51143978295455
C            1.77352398435557       -9.42447459816417        1.75324876455717
C            1.69668517372983       -8.15322870578551        2.30143353911662
C            2.20566361167314       -7.06522356891135        1.62009860784909
C            1.24389369508997       -4.85099119581221       -0.25160550277460
C            0.59403654836246       -3.64355744872655       -0.18738688384444
N           -0.70988256403910       -1.16574374055349       -0.08870430712798
C           -3.51370349648011       -1.10632974879344       -0.07010079490710
C           -4.88595234392449       -1.06164696852390       -0.07409512265530
C           -7.09662018234141        1.69699175617624       -1.92444715724549
C           -7.73909856079237        2.71028247414374       -2.60819987087023
H           -9.39815076168967        4.06666911081122       -2.63835988341450
H          -10.31138131624672        3.25807754520065       -0.48974237607395
H           -9.16907672049052        1.46404212686181        0.74334219626288
H           -6.27405082961321       -0.88645751303219        2.29593971982973
H           -7.56022942629193       -2.58154421249974        3.52851851882147
H           -9.71464248618497       -3.39902879156398        2.63650299591060
H          -10.56462999688614       -2.51483370476425        0.49163331763122
H           -9.27212547812887       -0.83438571081411       -0.75309560372355
H           -5.31700971574719        2.29644613759573        0.12978961326054
H           -2.84946563735932        2.20464009579809        0.13054777426675
H            3.35891469457644        1.36304046658127        0.07732907718376
H            4.65780522723433        3.46038021652441        0.17844592639705
H            5.85182601116420        7.25061424080314       -0.30203424254801
H            7.91756918618095        7.34706798395566        1.02824820271386
H            8.08368464821153        6.10502991097043        3.15765373991416
H            6.16028014550494        4.77126746881134        3.94889670759937
H            4.08617733145625        4.68711398889259        2.62983769798256
H            3.82662403080539        8.42243435057036        1.15571952076851
H            3.03853490333254       10.40858341640127       -0.05874170817146
H            1.95196152287178       10.16782839337392       -2.26469454415872
H            1.66993990356245        7.91920902456545       -3.24999747342225
H            2.47395245492714        5.93167150986229       -2.04658604013877
H            1.00822337357082        5.69555601173737        0.31742404493251
H           -0.27490321075908        3.58992085791019        0.19880326247293
H            3.27006439464070       -1.57635502893208       -0.08903747639108
H            4.44891531978366       -3.74259219369738       -0.19329793495027
H            3.78891145320068       -4.92971315646447       -2.63598421184237
H            5.83814682092667       -5.13576412088504       -3.97899602545636
H            7.68312491596348       -6.59197404574539       -3.21715832227692
H            7.46433018237075       -7.83191207042444       -1.09132113846547
H            5.42552621418181       -7.61284111273847        0.26449271759475
H            3.31848724286088       -8.65469298368055       -1.15511264652879
H            2.42246874683511      -10.58552318547383        0.07405307634335
H            1.37489549228030      -10.27192774837903        2.28992736031959
H            1.24346949832459       -8.00798784394910        3.27103020301624
H            2.15577410558190       -6.07679909468559        2.05274698146751
H            0.67922953997217       -5.77046163859810       -0.30911651675604
H           -0.48403565193043       -3.59651491110057       -0.18906999828673
H           -2.99175374685134       -2.04886680556851       -0.13135119965584
H           -5.46022336603525       -1.97439473472109       -0.14247064204358
H           -6.19852230595922        1.25018667965852       -2.32520406152620
H           -7.33494313565090        3.05609043511040       -3.54822593763036

          :  Hamiltonian                  GFN2-xTB          :
         :: gradient norm              0.000075680290 Eh/a0 ::
         :: HOMO-LUMO gap              0.003807557651 eV    ::
         :: SCC energy              -164.001026951323 Eh    ::
         :: -> dispersion             -0.143133628124 Eh    ::
         :: -> Gsolv                  -0.078055900642 Eh    ::
         :: repulsion energy           2.959000084435 Eh    ::

    * Orbital Energies and Occupations

         #    Occupation            Energy/Eh            Energy/eV
      -------------------------------------------------------------
         1        2.0000           -0.6731326             -18.3169
       ...           ...                  ...                  ...
       139        2.0000           -0.4103264             -11.1656
       140        2.0000           -0.4075911             -11.0911
       141        2.0000           -0.4074732             -11.0879
       142        2.0000           -0.4073153             -11.0836
       143        2.0000           -0.4049875             -11.0203
       144        2.0000           -0.4002789             -10.8921
       145        2.0000           -0.3999363             -10.8828
       146        1.9575           -0.3581504              -9.7458
       147        1.9447           -0.3578872              -9.7386
       148        1.8351           -0.3567315              -9.7072
       149        1.6716           -0.3558696              -9.6837
       150        1.5910           -0.3555398              -9.6747
       151        0.5183           -0.2722413              -7.4081 (HOMO)
       152        0.4817           -0.2721021              -7.4043 (LUMO)
       153                         -0.2431741              -6.6171
       154                         -0.2368657              -6.4454
       155                         -0.2368556              -6.4452
       156                         -0.2368366              -6.4447
       157                         -0.2316205              -6.3027
       158                         -0.2315908              -6.3019
       159                         -0.2315766              -6.3015
       160                         -0.2271115              -6.1800
       161                         -0.2271025              -6.1798
       162                         -0.2270754              -6.1790
       ...                                ...                  ...
       294                          0.6929564              18.8563
      -------------------------------------------------------------
                  HL-Gap            0.0001392 Eh            0.0038 eV

     #   Z          covCN         q      C6AA      α(0)
     1   6 C        2.919    -0.034    28.855     8.809
     2   6 C        2.919    -0.028    28.696     8.784
     3   6 C        2.921    -0.044    29.104     8.847
     4   6 C        2.925     0.064    26.560     8.452
     5   7 N        2.752    -0.050    22.213     7.000
     6   6 C        2.924     0.064    26.560     8.451
     7   6 C        2.921    -0.044    29.092     8.845
     8   6 C        2.919    -0.028    28.693     8.784
     9   6 C        2.919    -0.035    28.859     8.809
    10   6 C        2.919    -0.028    28.696     8.785
    11   6 C        2.921    -0.045    29.109     8.848
    12   6 C        2.925     0.055    26.758     8.483
    13   6 C        2.917    -0.046    29.149     8.853
    14   6 C        2.921    -0.035    28.874     8.812
    15   6 C        2.981    -0.019    28.467     8.752
    16   6 C        2.943     0.201    23.748     7.992
    17   7 N        1.844    -0.341    29.720     8.079
    18   6 C        2.943     0.201    23.729     7.989
    19   6 C        2.981    -0.019    28.466     8.752
    20   6 C        2.921    -0.035    28.866     8.811
    21   6 C        2.917    -0.046    29.152     8.854
    22   6 C        2.925     0.056    26.744     8.481
    23   7 N        2.752    -0.051    22.223     7.001
    24   6 C        2.924     0.064    26.561     8.452
    25   6 C        2.921    -0.045    29.105     8.847
    26   6 C        2.919    -0.028    28.696     8.785
    27   6 C        2.919    -0.034    28.857     8.809
    28   6 C        2.919    -0.028    28.693     8.784
    29   6 C        2.921    -0.044    29.087     8.844
    30   6 C        2.924     0.064    26.560     8.452
    31   6 C        2.921    -0.045    29.106     8.847
    32   6 C        2.919    -0.028    28.696     8.785
    33   6 C        2.919    -0.034    28.858     8.809
    34   6 C        2.919    -0.028    28.694     8.784
    35   6 C        2.921    -0.044    29.089     8.845
    36   6 C        2.917    -0.046    29.152     8.854
    37   6 C        2.921    -0.035    28.867     8.811
    38   7 N        1.844    -0.341    29.705     8.077
    39   6 C        2.943     0.200    23.758     7.994
    40   6 C        2.980    -0.019    28.469     8.752
    41   6 C        2.921    -0.035    28.878     8.812
    42   6 C        2.917    -0.046    29.149     8.853
    43   6 C        2.925     0.055    26.763     8.484
    44   7 N        2.752    -0.050    22.210     6.999
    45   6 C        2.924     0.064    26.560     8.451
    46   6 C        2.921    -0.044    29.088     8.844
    47   6 C        2.919    -0.028    28.693     8.784
    48   6 C        2.919    -0.034    28.858     8.809
    49   6 C        2.919    -0.028    28.696     8.785
    50   6 C        2.921    -0.045    29.107     8.847
    51   6 C        2.924     0.064    26.560     8.452
    52   6 C        2.921    -0.044    29.105     8.847
    53   6 C        2.919    -0.028    28.696     8.784
    54   6 C        2.919    -0.034    28.856     8.809
    55   6 C        2.919    -0.028    28.693     8.784
    56   6 C        2.921    -0.044    29.085     8.844
    57   6 C        2.917    -0.046    29.150     8.854
    58   6 C        2.921    -0.035    28.878     8.812
    59   7 N        1.843    -0.340    29.679     8.074
    60   6 C        2.921    -0.035    28.874     8.812
    61   6 C        2.917    -0.046    29.148     8.853
    62   6 C        2.921    -0.044    29.085     8.844
    63   6 C        2.919    -0.028    28.693     8.784
    64   1 H        0.926     0.040     2.454     2.450
    65   1 H        0.926     0.041     2.430     2.438
    66   1 H        0.926     0.040     2.455     2.450
    67   1 H        0.926     0.035     2.515     2.480
    68   1 H        0.926     0.039     2.462     2.454
    69   1 H        0.926     0.039     2.457     2.451
    70   1 H        0.926     0.041     2.432     2.439
    71   1 H        0.926     0.039     2.456     2.451
    72   1 H        0.926     0.037     2.486     2.465
    73   1 H        0.926     0.040     2.442     2.444
    74   1 H        0.926     0.040     2.442     2.444
    75   1 H        0.926     0.038     2.482     2.464
    76   1 H        0.926     0.039     2.456     2.451
    77   1 H        0.926     0.041     2.431     2.438
    78   1 H        0.926     0.039     2.456     2.450
    79   1 H        0.926     0.039     2.461     2.453
    80   1 H        0.926     0.035     2.515     2.480
    81   1 H        0.926     0.039     2.457     2.451
    82   1 H        0.926     0.041     2.432     2.439
    83   1 H        0.926     0.039     2.456     2.451
    84   1 H        0.926     0.039     2.461     2.453
    85   1 H        0.926     0.035     2.515     2.480
    86   1 H        0.926     0.038     2.481     2.463
    87   1 H        0.926     0.041     2.440     2.443
    88   1 H        0.926     0.040     2.446     2.446
    89   1 H        0.926     0.037     2.486     2.466
    90   1 H        0.926     0.035     2.514     2.480
    91   1 H        0.926     0.039     2.462     2.454
    92   1 H        0.926     0.039     2.456     2.451
    93   1 H        0.926     0.041     2.431     2.438
    94   1 H        0.926     0.040     2.455     2.450
    95   1 H        0.926     0.040     2.455     2.450
    96   1 H        0.926     0.041     2.431     2.438
    97   1 H        0.926     0.040     2.455     2.450
    98   1 H        0.926     0.039     2.460     2.453
    99   1 H        0.926     0.035     2.513     2.479
   100   1 H        0.926     0.037     2.487     2.466
   101   1 H        0.926     0.040     2.447     2.446
   102   1 H        0.926     0.040     2.445     2.445
   103   1 H        0.926     0.037     2.482     2.464
   104   1 H        0.926     0.035     2.514     2.480
   105   1 H        0.926     0.039     2.460     2.453

molecular dipole:
                 x           y           z       tot (Debye)
 q only:       -0.009       0.021      -0.007
   full:       -0.008       0.021      -0.006       0.059

 projected vibrational frequencies (cm⁻¹)
eigval :       -0.00    -0.00    -0.00     0.00     0.00     0.00
eigval :      -13.46   -10.68     3.68     8.91    11.42    14.51
eigval :       23.29    26.56    31.63    33.01    36.78    40.30
eigval :       43.05    49.46    56.10    60.68    62.24    63.66
eigval :       65.72    74.42    75.65    92.10    93.93    97.30
eigval :      103.15   105.43   128.66   136.03   164.23   164.65
eigval :      166.76   174.08   175.71   211.92   213.96   219.77
eigval :      226.60   228.34   231.24   275.33   278.06   283.58
eigval :      289.54   308.82   309.82   310.21   311.64   330.41
eigval :      342.05   348.19   372.59   374.49   375.53   375.68
eigval :      376.29   376.70   381.12   383.26   384.67   385.80
eigval :      386.97   388.38   398.65   399.91   409.29   452.65
eigval :      453.11   471.32   472.88   476.17   483.27   501.04
eigval :      501.08   503.77   531.85   542.40   554.41   568.27
eigval :      569.67   574.52   576.10   580.46   584.24   587.25
eigval :      587.51   590.21   590.95   592.23   595.88   596.93
eigval :      611.29   614.78   615.10   624.81   655.36   657.29
eigval :      657.62   661.80   662.92   663.51   664.36   678.98
eigval :      679.53   690.74   691.06   704.46   720.91   754.80
eigval :      754.95   756.92   757.95   758.66   760.31   809.03
eigval :      809.48   810.55   814.00   814.63   851.71   853.49
eigval :      857.43   869.20   870.69   871.50   871.75   872.22
eigval :      875.75   891.24   891.98   894.01   894.53   894.78
eigval :      896.54   906.61   906.89   907.59   908.45   909.48
eigval :      909.78   911.49   916.49   918.18   919.27   922.70
eigval :      923.11   924.58   925.70   926.79   926.98   927.12
eigval :      927.61   928.27   928.37   928.54   929.03   929.65
eigval :      930.88   955.21   982.16   982.45   984.43  1000.79
eigval :     1001.09  1001.32  1003.66  1008.73  1009.66  1065.11
eigval :     1079.13  1079.40  1080.26  1080.32  1080.45  1081.40
eigval :     1118.86  1118.96  1121.06  1121.38  1122.20  1122.89
eigval :     1124.11  1126.51  1128.53  1155.27  1157.18  1173.30
eigval :     1174.93  1176.02  1176.93  1177.14  1177.29  1177.43
eigval :     1177.78  1178.40  1184.86  1189.77  1189.92  1191.94
eigval :     1192.35  1193.29  1209.08  1210.01  1213.14  1254.37
eigval :     1256.50  1257.21  1269.86  1273.42  1273.59  1275.36
eigval :     1275.63  1276.05  1277.39  1299.32  1299.53  1301.46
eigval :     1302.50  1303.57  1303.94  1316.65  1316.79  1317.06
eigval :     1324.62  1324.68  1324.87  1329.37  1330.16  1336.05
eigval :     1349.15  1350.02  1378.00  1418.91  1420.89  1421.07
eigval :     1431.28  1431.83  1432.16  1438.04  1438.33  1438.73
eigval :     1457.92  1458.36  1459.66  1459.86  1460.30  1461.00
eigval :     1461.66  1462.76  1479.14  1504.75  1506.58  1508.32
eigval :     1555.82  1556.06  1564.95  1565.36  1565.58  1569.36
eigval :     1569.64  1570.00  1578.65  1579.48  1579.80  1579.84
eigval :     1585.44  1586.68  1589.99  3075.14  3075.51  3075.76
eigval :     3076.22  3076.37  3076.46  3076.54  3076.81  3077.01
eigval :     3077.33  3077.52  3077.65  3077.80  3077.82  3077.99
eigval :     3078.00  3078.56  3079.12  3085.69  3085.83  3086.12
eigval :     3086.53  3086.65  3087.00  3088.36  3088.54  3088.97
eigval :     3089.61  3089.62  3090.24  3095.96  3096.56  3096.72
eigval :     3096.98  3097.09  3097.20  3097.25  3097.48  3097.67
eigval :     3098.51  3099.52  3100.88

   temp. (K)  partition function   enthalpy   heat capacity  entropy
                                   cal/mol     cal/K/mol   cal/K/mol   J/K/mol
 298.15  VIB  0.478E+28            31686.979    192.542    202.954
         ROT  0.344E+09              888.752      2.981     42.041
         INT  0.164E+37            32575.732    195.523    244.996
         TR   0.223E+29             1481.254      4.968     45.936
         TOT                       34056.9856   200.4909   290.9317  1217.2584

       T/K    H(0)-H(T)+PV         H(T)/Eh          T*S/Eh         G(T)/Eh
   ------------------------------------------------------------------------
    298.15    0.542733E-01    0.858591E+00    0.138231E+00    0.720360E+00
   ------------------------------------------------------------------------

         :::::::::::::::::::::::::::::::::::::::::::::::::::::
         ::                  THERMODYNAMIC                  ::
         :::::::::::::::::::::::::::::::::::::::::::::::::::::
         :: total free energy        -160.321667297709 Eh   ::
         ::.................................................::
         :: total energy             -161.042026886357 Eh   ::
         :: zero point energy           0.804317387976 Eh   ::
         :: G(RRHO) w/o ZPVE           -0.083957799328 Eh   ::
         :: G(RRHO) contrib.            0.720359588648 Eh   ::
         :::::::::::::::::::::::::::::::::::::::::::::::::::::

           -------------------------------------------------
          | TOTAL ENERGY             -161.042026886357 Eh   |
          | TOTAL ENTHALPY           -160.183436237167 Eh   |
          | TOTAL FREE ENERGY        -160.321667297709 Eh   |
          | GRADIENT NORM               0.000071803179 Eh/α |
          | HOMO-LUMO GAP               0.003788469156 eV   |
           -------------------------------------------------

 * finished run on 2025/09/05 at 10:52:49.589
