   * xtb version 6.7.1 (edcfbbe) compiled by 'albert@albert-system' on 2024-07-22

   ID    Z sym.   atoms
    1    6 C      1-4, 6-16, 18-22, 24-37, 39-43, 45-58, 60-63
    2    7 N      5, 17, 23, 38, 44, 59
    3    1 H      64-105

          program call               : xtb data2507/toluene/TDPA–TRZ/TDPA–TRZ_toluene_S0_crest.xyz --gfn 2 --gbsa toluene --ohess vtight --parallel 40 --molden --ceasefiles --namespace data2507/toluene/TDPA–TRZ/TDPA–TRZ_toluene_S0_finalOpt
      * Solvation model:               GBSA
        Solvent                        toluene
        Solvent mass                       9.2140E+01 g/mol
          :  Hamiltonian                  GFN2-xTB          :
 * total energy  :  -161.1196018 Eh     change       -0.1303590E-08 Eh
 * total energy  :  -161.1197048 Eh     change       -0.1029687E-03 Eh
 * total energy  :  -161.1197501 Eh     change       -0.4531401E-04 Eh
 * total energy  :  -161.1197669 Eh     change       -0.1682935E-04 Eh
 * total energy  :  -161.1197832 Eh     change       -0.1627778E-04 Eh
 * total energy  :  -161.1198119 Eh     change       -0.2870081E-04 Eh
 * total energy  :  -161.1198321 Eh     change       -0.2021898E-04 Eh
 * total energy  :  -161.1198502 Eh     change       -0.1806281E-04 Eh
 * total energy  :  -161.1198602 Eh     change       -0.1003508E-04 Eh
 * total energy  :  -161.1198662 Eh     change       -0.6005483E-05 Eh
 * total energy  :  -161.1198772 Eh     change       -0.6536755E-06 Eh
 * total energy  :  -161.1198777 Eh     change       -0.5863493E-06 Eh
 * total energy  :  -161.1198783 Eh     change       -0.5396742E-06 Eh
 * total energy  :  -161.1198789 Eh     change       -0.5680747E-06 Eh
 * total energy  :  -161.1198795 Eh     change       -0.6001090E-06 Eh
 * total energy  :  -161.1198800 Eh     change       -0.5485337E-06 Eh
 * total energy  :  -161.1198805 Eh     change       -0.5431137E-06 Eh
 * total energy  :  -161.1198812 Eh     change       -0.6808683E-06 Eh
 * total energy  :  -161.1198813 Eh     change       -0.2116610E-07 Eh
   *** GEOMETRY OPTIMIZATION CONVERGED AFTER 22 ITERATIONS ***

 final structure:
================
105
 xtb: 6.7.1 (edcfbbe)
C           -8.96545092545323        3.26189007060946       -2.05846655120086
C           -9.43175870991897        2.81984844646786       -0.83087633838565
C           -8.76548378020627        1.81960323622270       -0.14832786979125
C           -7.62006969237850        1.24240598363483       -0.69390902967408
N           -6.94964644480289        0.21470067837783       -0.00952904655203
C           -7.70592832863073       -0.76549471871493        0.65423985493050
C           -7.30705127500410       -1.24067089729006        1.90277034377529
C           -8.06022785594468       -2.19885803183690        2.55425954464001
C           -9.22175011443402       -2.68866244286277        1.97883742232805
C           -9.62546554904109       -2.21370157710663        0.74139589899248
C           -8.87436941189953       -1.26164005231387        0.07834100277019
C           -5.56302682567739        0.16978805917418        0.00881184507815
C           -4.81059209182685        1.35088350396671       -0.01064138796427
C           -3.43612448659201        1.30476343585801        0.00433712550978
C           -2.76311809152209        0.08167553897858        0.03491771385413
C           -1.30678594483068        0.03638084001929        0.03958080218444
N           -0.64714207224553        1.19361009118378        0.06995868331139
C            0.68241183554521        1.10518745004525        0.07167930942387
C            1.44900020269364        2.34300585399688        0.12019082242730
C            2.84451793103565        2.31794280285399        0.07657188839184
C            3.57089784029429        3.48460891011892        0.12600449704503
C            2.92412310337882        4.72323675858255        0.22308834688897
N            3.65605180563796        5.89964633190779        0.28048989199568
C            4.92478407554084        5.92013552567315        0.88531273170464
C            5.96231997245748        6.65554775553837        0.31515539210121
C            7.20515290464123        6.68643974423241        0.91919693671677
C            7.43258604595782        5.98383124777400        2.09155941001730
C            6.40372862834908        5.25072642489290        2.66108555921087
C            5.15564583022812        5.21971399873631        2.06837908317782
C            3.14484795221565        7.09215119249313       -0.25829992454711
C            3.34376789640409        8.30238317110786        0.40425091771486
C            2.85724133144425        9.47812814542919       -0.13522711963356
C            2.16276305978035        9.46480334732104       -1.33412208710808
C            1.96101054201789        8.26367275964018       -1.99491392881184
C            2.45054010340246        7.08383526570125       -1.46728437483790
C            1.52427347598154        4.74739159108850        0.26358050984146
C            0.80288785997920        3.57758336978301        0.21198739644699
N            1.35485540119272       -0.04435085711083        0.02947881470046
C            0.61354439728324       -1.15110336125181       -0.00366420111872
C            1.30403805373426       -2.43259729656259       -0.06113303829170
C            2.69934972003935       -2.48858635333700       -0.06828281209756
C            3.35489762389244       -3.69561491043668       -0.13524754070346
C            2.63447760510569       -4.89515766207333       -0.19900161536773
N            3.29394390706554       -6.11259055368619       -0.27791013736764
C            4.53125849407977       -6.21263114113064       -0.93674234835182
C            4.75739762682685       -5.52196886645899       -2.12653214279529
C            5.97407702175934       -5.63157684414920       -2.77273689049909
C            6.97530707318677       -6.43501566012022       -2.25095804164471
C            6.75195195570683       -7.12862697919801       -1.07248404220329
C            5.54141062692699       -7.01864567893768       -0.41452208933412
C            2.73204753451558       -7.27076318953080        0.28541811600632
C            2.82087393096812       -8.49033538969922       -0.38370056163086
C            2.28341679207233       -9.63248965906018        0.17912429174784
C            1.64675179077231       -9.57543586906071        1.40843731597274
C            1.55439783337976       -8.36458849483418        2.07589714880945
C            2.09555090257662       -7.21856694574431        1.52467056636087
C            1.23505799120833       -4.83822056208916       -0.18453247261309
C            0.58475110594913       -3.62814641101444       -0.11735958959002
N           -0.71894922742064       -1.15895790782603        0.00898292759682
C           -3.51217371434223       -1.09651307862850        0.05565103225700
C           -4.88697218367709       -1.05622078200032        0.04504799931058
C           -7.15770677235150        1.68551589785949       -1.93230734938063
C           -7.82628017834041        2.69153646155702       -2.60369526641621
H           -9.48671868832772        4.04539945317628       -2.58751502145811
H          -10.31698311993461        3.26128728198931       -0.39705366816641
H           -9.12597663364677        1.47983532380451        0.81152986320905
H           -6.40779972322053       -0.85055101523467        2.35695216184900
H           -7.74139283477416       -2.55819034800241        3.52183714480079
H           -9.80905935397965       -3.43485666285550        2.49233340125154
H          -10.52790968127629       -2.59236845670986        0.28439909194015
H           -9.18661593259125       -0.89636907758320       -0.88909267035681
H           -5.31951303308769        2.30329377934879       -0.02689135182238
H           -2.85587216598386        2.21429772822972       -0.00134060979994
H            3.34228123932092        1.36441406435826       -0.00706788475902
H            4.64936780518998        3.45211622076273        0.08014991658557
H            5.78697399334712        7.19868421843731       -0.60191582945960
H            8.00266700547803        7.25734136033179        0.46676549436220
H            8.40511681189283        6.00805638590982        2.55960438833755
H            6.57023572665461        4.70532538455841        3.57850160426894
H            4.35083057617110        4.65578571931275        2.51748363298222
H            3.88029869474368        8.31270333075720        1.34173501740052
H            3.01554479626643       10.40946461599401        0.38839446077722
H            1.78147621563758       10.38453999619362       -1.75137508152492
H            1.42613611543601        8.24471567854189       -2.93324918314342
H            2.30211073370856        6.14955546558545       -1.98902186331294
H            1.01255865274147        5.69461140707514        0.34834807900512
H           -0.27502817541872        3.59496858866306        0.25461643573267
H            3.25409706978573       -1.56500780649056       -0.01187937877214
H            4.43442295889064       -3.72485740043143       -0.13102970819532
H            3.97327705655619       -4.90392491823693       -2.53949476359061
H            6.13679543688936       -5.09231742867690       -3.69447003064565
H            7.92303265437936       -6.52090441278983       -2.76071968370418
H            7.52827532743196       -7.75435694163553       -0.65729990978227
H            5.37005741008416       -7.55505806780943        0.50728194567755
H            3.31126322078590       -8.53412584815298       -1.34517051087381
H            2.35624174660229      -10.57132512630250       -0.34992766384747
H            1.22596231259019      -10.46896829341316        1.84426923236176
H            1.06552844393918       -8.31201871632370        3.03774789708939
H            2.03144227804129       -6.27686486534510        2.05030476400269
H            0.66626269943430       -5.75449423957503       -0.24126528017357
H           -0.49320834370785       -3.58362878625490       -0.11988783340618
H           -2.99037548352840       -2.04069990980360        0.07112994259316
H           -5.45491097075268       -1.97476831928508        0.05199434272861
H           -6.27514016634247        1.23441182715185       -2.36227536954014
H           -7.45921608011831        3.02507499156788       -3.56332701835470

          :  Hamiltonian                  GFN2-xTB          :
         :: gradient norm              0.000118122995 Eh/a0 ::
         :: HOMO-LUMO gap              2.011854726260 eV    ::
         :: SCC energy              -164.092603420514 Eh    ::
         :: -> dispersion             -0.143113291369 Eh    ::
         :: -> Gsolv                  -0.074620950696 Eh    ::
         :: repulsion energy           2.972722168522 Eh    ::

    * Orbital Energies and Occupations

         #    Occupation            Energy/Eh            Energy/eV
      -------------------------------------------------------------
         1        2.0000           -0.6765392             -18.4096
       ...           ...                  ...                  ...
       138        2.0000           -0.4094154             -11.1408
       139        2.0000           -0.4092854             -11.1372
       140        2.0000           -0.4086669             -11.1204
       141        2.0000           -0.4086547             -11.1201
       142        2.0000           -0.4085812             -11.1181
       143        2.0000           -0.4072983             -11.0832
       144        2.0000           -0.4067048             -11.0670
       145        2.0000           -0.4066717             -11.0661
       146        2.0000           -0.3688491             -10.0369
       147        2.0000           -0.3687967             -10.0355
       148        2.0000           -0.3567356              -9.7073
       149        2.0000           -0.3566624              -9.7053
       150        2.0000           -0.3553045              -9.6683 (HOMO)
       151                         -0.2813701              -7.6565 (LUMO)
       152                         -0.2813072              -7.6548
       153                         -0.2459548              -6.6928
       154                         -0.2341172              -6.3707
       155                         -0.2341040              -6.3703
       156                         -0.2339583              -6.3663
       157                         -0.2315045              -6.2996
       158                         -0.2314706              -6.2986
       159                         -0.2314618              -6.2984
       160                         -0.2263697              -6.1598
       161                         -0.2263668              -6.1598
       ...                                ...                  ...
       294                          0.6939157              18.8824
      -------------------------------------------------------------
                  HL-Gap            0.0739344 Eh            2.0119 eV

     #   Z          covCN         q      C6AA      α(0)
     1   6 C        2.919    -0.036    28.907     8.817
     2   6 C        2.919    -0.029    28.720     8.788
     3   6 C        2.922    -0.046    29.131     8.851
     4   6 C        2.925     0.063    26.580     8.455
     5   7 N        2.752    -0.068    22.563     7.055
     6   6 C        2.925     0.063    26.580     8.455
     7   6 C        2.922    -0.046    29.145     8.853
     8   6 C        2.919    -0.029    28.724     8.789
     9   6 C        2.919    -0.037    28.909     8.817
    10   6 C        2.919    -0.029    28.720     8.788
    11   6 C        2.922    -0.046    29.133     8.851
    12   6 C        2.922     0.072    26.397     8.425
    13   6 C        2.920    -0.050    29.237     8.867
    14   6 C        2.922    -0.028    28.700     8.785
    15   6 C        2.983    -0.022    28.544     8.764
    16   6 C        2.978     0.220    23.375     7.931
    17   7 N        1.844    -0.341    29.717     8.079
    18   6 C        2.977     0.220    23.376     7.931
    19   6 C        2.983    -0.022    28.550     8.765
    20   6 C        2.922    -0.028    28.700     8.785
    21   6 C        2.920    -0.050    29.245     8.868
    22   6 C        2.922     0.072    26.396     8.425
    23   7 N        2.752    -0.068    22.556     7.054
    24   6 C        2.925     0.063    26.581     8.455
    25   6 C        2.922    -0.045    29.124     8.850
    26   6 C        2.919    -0.029    28.718     8.788
    27   6 C        2.919    -0.036    28.901     8.816
    28   6 C        2.919    -0.029    28.723     8.789
    29   6 C        2.922    -0.046    29.135     8.852
    30   6 C        2.925     0.063    26.581     8.455
    31   6 C        2.922    -0.046    29.133     8.851
    32   6 C        2.919    -0.029    28.720     8.788
    33   6 C        2.919    -0.037    28.908     8.817
    34   6 C        2.919    -0.029    28.725     8.789
    35   6 C        2.922    -0.046    29.144     8.853
    36   6 C        2.920    -0.050    29.245     8.868
    37   6 C        2.922    -0.028    28.700     8.785
    38   7 N        1.844    -0.341    29.714     8.079
    39   6 C        2.977     0.220    23.376     7.931
    40   6 C        2.983    -0.022    28.550     8.765
    41   6 C        2.922    -0.028    28.701     8.785
    42   6 C        2.920    -0.050    29.243     8.868
    43   6 C        2.922     0.072    26.396     8.425
    44   7 N        2.752    -0.068    22.555     7.054
    45   6 C        2.925     0.063    26.581     8.455
    46   6 C        2.922    -0.046    29.139     8.852
    47   6 C        2.919    -0.029    28.724     8.789
    48   6 C        2.919    -0.036    28.905     8.816
    49   6 C        2.919    -0.029    28.719     8.788
    50   6 C        2.922    -0.045    29.128     8.850
    51   6 C        2.925     0.063    26.581     8.455
    52   6 C        2.922    -0.045    29.130     8.851
    53   6 C        2.919    -0.029    28.719     8.788
    54   6 C        2.919    -0.036    28.906     8.817
    55   6 C        2.919    -0.029    28.724     8.789
    56   6 C        2.922    -0.046    29.140     8.852
    57   6 C        2.920    -0.050    29.246     8.868
    58   6 C        2.922    -0.028    28.700     8.785
    59   7 N        1.844    -0.341    29.718     8.079
    60   6 C        2.922    -0.028    28.700     8.785
    61   6 C        2.920    -0.050    29.237     8.867
    62   6 C        2.922    -0.046    29.142     8.853
    63   6 C        2.919    -0.029    28.724     8.789
    64   1 H        0.926     0.037     2.492     2.469
    65   1 H        0.926     0.038     2.471     2.458
    66   1 H        0.926     0.036     2.505     2.475
    67   1 H        0.926     0.033     2.551     2.498
    68   1 H        0.926     0.037     2.491     2.468
    69   1 H        0.926     0.037     2.493     2.469
    70   1 H        0.926     0.038     2.472     2.459
    71   1 H        0.926     0.036     2.506     2.476
    72   1 H        0.926     0.042     2.423     2.434
    73   1 H        0.926     0.048     2.349     2.397
    74   1 H        0.926     0.047     2.352     2.398
    75   1 H        0.926     0.042     2.425     2.435
    76   1 H        0.926     0.036     2.502     2.474
    77   1 H        0.926     0.039     2.468     2.457
    78   1 H        0.926     0.037     2.488     2.467
    79   1 H        0.926     0.037     2.487     2.466
    80   1 H        0.926     0.033     2.547     2.496
    81   1 H        0.926     0.036     2.508     2.476
    82   1 H        0.926     0.038     2.472     2.459
    83   1 H        0.926     0.037     2.493     2.469
    84   1 H        0.926     0.037     2.489     2.467
    85   1 H        0.926     0.033     2.546     2.495
    86   1 H        0.926     0.042     2.422     2.434
    87   1 H        0.926     0.047     2.352     2.398
    88   1 H        0.926     0.048     2.350     2.397
    89   1 H        0.926     0.042     2.423     2.434
    90   1 H        0.926     0.033     2.550     2.497
    91   1 H        0.926     0.037     2.489     2.467
    92   1 H        0.926     0.037     2.491     2.468
    93   1 H        0.926     0.038     2.469     2.457
    94   1 H        0.926     0.036     2.503     2.474
    95   1 H        0.926     0.036     2.507     2.476
    96   1 H        0.926     0.038     2.471     2.458
    97   1 H        0.926     0.037     2.491     2.468
    98   1 H        0.926     0.037     2.488     2.467
    99   1 H        0.926     0.033     2.544     2.494
   100   1 H        0.926     0.042     2.424     2.434
   101   1 H        0.926     0.047     2.352     2.398
   102   1 H        0.926     0.048     2.349     2.397
   103   1 H        0.926     0.042     2.422     2.434
   104   1 H        0.926     0.032     2.552     2.498
   105   1 H        0.926     0.037     2.491     2.468

molecular dipole:
                 x           y           z       tot (Debye)
 q only:        0.047       0.002      -0.027
   full:        0.045       0.002      -0.026       0.131

 projected vibrational frequencies (cm⁻¹)
eigval :       -0.00    -0.00     0.00     0.00     0.00     0.00
eigval :       -7.36    -4.39     7.59     9.73    13.78    14.33
eigval :       24.60    26.27    32.30    37.97    39.20    41.24
eigval :       44.30    44.72    56.75    59.91    62.45    63.81
eigval :       65.06    72.46    72.96    90.26    90.97    97.70
eigval :       99.78   100.85   131.18   135.81   154.99   156.82
eigval :      165.44   180.27   180.68   215.94   216.39   220.96
eigval :      233.67   235.11   235.65   278.16   279.77   295.11
eigval :      296.16   306.82   312.28   313.12   326.65   334.21
eigval :      366.05   367.19   372.69   374.73   375.16   375.70
eigval :      376.74   376.89   379.28   382.61   384.97   387.95
eigval :      399.23   400.76   408.93   434.00   434.68   468.83
eigval :      469.08   485.18   491.78   492.71   493.19   497.93
eigval :      498.25   502.93   555.91   580.98   581.54   582.96
eigval :      584.33   584.58   585.51   592.08   592.32   592.96
eigval :      604.68   604.88   613.44   613.69   614.04   625.37
eigval :      630.55   631.96   659.84   660.56   660.79   665.23
eigval :      665.54   667.31   676.54   701.66   702.16   702.50
eigval :      703.02   724.93   756.10   756.36   757.34   758.71
eigval :      759.55   760.51   775.07   821.55   822.82   823.27
eigval :      842.97   843.07   864.38   866.40   867.30   872.48
eigval :      873.17   873.48   873.95   874.02   875.67   891.87
eigval :      892.84   893.46   895.14   895.63   895.82   909.01
eigval :      909.03   909.05   915.34   916.73   918.46   920.34
eigval :      923.97   924.88   925.16   925.63   926.11   926.87
eigval :      926.94   927.14   927.51   927.70   928.54   928.98
eigval :      929.25   929.45   929.63   930.56   930.65   980.96
eigval :      985.85   986.03  1004.07  1004.21  1004.31  1007.14
eigval :     1017.39  1018.06  1044.51  1080.40  1080.61  1080.64
eigval :     1081.78  1081.93  1082.01  1086.61  1118.50  1119.19
eigval :     1119.44  1120.88  1121.10  1121.48  1126.68  1131.27
eigval :     1132.62  1162.54  1163.82  1177.04  1177.50  1177.58
eigval :     1177.75  1178.48  1178.51  1182.35  1183.00  1183.68
eigval :     1189.42  1191.48  1192.38  1192.56  1198.45  1198.95
eigval :     1210.71  1211.29  1217.51  1217.74  1258.81  1261.49
eigval :     1261.73  1275.18  1275.44  1275.64  1279.11  1279.21
eigval :     1279.38  1301.42  1301.44  1302.16  1314.89  1314.95
eigval :     1315.21  1319.44  1319.74  1321.12  1322.86  1323.24
eigval :     1323.32  1333.92  1334.15  1337.55  1359.38  1359.58
eigval :     1389.58  1414.97  1415.41  1418.31  1433.60  1433.84
eigval :     1434.39  1438.86  1438.93  1439.44  1465.51  1465.56
eigval :     1468.05  1470.21  1470.33  1470.44  1486.87  1487.05
eigval :     1492.64  1492.87  1495.97  1550.58  1555.15  1555.34
eigval :     1576.79  1576.86  1576.90  1580.36  1580.39  1580.49
eigval :     1588.36  1588.57  1588.60  1590.29  1590.32  1590.35
eigval :     1597.78  1597.99  1598.01  3073.31  3073.85  3074.06
eigval :     3074.13  3074.30  3074.59  3074.78  3075.14  3075.59
eigval :     3075.77  3076.20  3076.29  3082.43  3082.80  3083.12
eigval :     3083.48  3083.69  3084.58  3084.90  3085.12  3086.04
eigval :     3086.33  3086.37  3086.54  3086.67  3087.08  3087.42
eigval :     3087.49  3087.60  3088.21  3095.41  3095.48  3095.80
eigval :     3095.94  3096.32  3096.38  3102.65  3103.01  3103.38
eigval :     3104.30  3104.82  3106.16

   temp. (K)  partition function   enthalpy   heat capacity  entropy
                                   cal/mol     cal/K/mol   cal/K/mol   J/K/mol
 298.15  VIB  0.442E+28            31129.200    188.460    200.720
         ROT  0.345E+09              888.752      2.981     42.050
         INT  0.152E+37            32017.953    191.441    242.770
         TR   0.223E+29             1481.254      4.968     45.936
         TOT                       33499.2066   196.4092   288.7059  1207.9454

       T/K    H(0)-H(T)+PV         H(T)/Eh          T*S/Eh         G(T)/Eh
   ------------------------------------------------------------------------
    298.15    0.533844E-01    0.865709E+00    0.137173E+00    0.728536E+00
   ------------------------------------------------------------------------

         :::::::::::::::::::::::::::::::::::::::::::::::::::::
         ::                  THERMODYNAMIC                  ::
         :::::::::::::::::::::::::::::::::::::::::::::::::::::
         :: total free energy        -160.391345661819 Eh   ::
         ::.................................................::
         :: total energy             -161.119881253160 Eh   ::
         :: zero point energy           0.812324688932 Eh   ::
         :: G(RRHO) w/o ZPVE           -0.083789097590 Eh   ::
         :: G(RRHO) contrib.            0.728535591342 Eh   ::
         :::::::::::::::::::::::::::::::::::::::::::::::::::::

           -------------------------------------------------
          | TOTAL ENERGY             -161.119881253160 Eh   |
          | TOTAL ENTHALPY           -160.254172180421 Eh   |
          | TOTAL FREE ENERGY        -160.391345661819 Eh   |
          | GRADIENT NORM               0.000118011947 Eh/α |
          | HOMO-LUMO GAP               2.011857504086 eV   |
           -------------------------------------------------

 * finished run on 2025/09/05 at 10:52:25.893
