   * xtb version 6.7.1 (edcfbbe) compiled by 'albert@albert-system' on 2024-07-22

   ID    Z sym.   atoms
    1    6 C      1-4, 6-16, 18-22, 24-37, 39-43, 45-58, 60-63
    2    7 N      5, 17, 23, 38, 44, 59
    3    1 H      64-105

          program call               : xtb data2507/toluene/TDPA–TRZ/TDPA–TRZ_toluene_T1_crest.xyz --gfn 2 --uhf 2 --gbsa toluene --ohess vtight --parallel 40 --molden --ceasefiles --namespace data2507/toluene/TDPA–TRZ/TDPA–TRZ_toluene_T1_finalOpt
      * Solvation model:               GBSA
        Solvent                        toluene
        Solvent mass                       9.2140E+01 g/mol
          :  Hamiltonian                  GFN2-xTB          :
 * total energy  :  -161.0417700 Eh     change       -0.3306866E-09 Eh
 * total energy  :  -161.0419430 Eh     change       -0.1730443E-03 Eh
 * total energy  :  -161.0420063 Eh     change       -0.6326745E-04 Eh
 * total energy  :  -161.0420142 Eh     change       -0.7933365E-05 Eh
 * total energy  :  -161.0420248 Eh     change       -0.1063584E-04 Eh
 * total energy  :  -161.0420321 Eh     change       -0.7279439E-05 Eh
 * total energy  :  -161.0420366 Eh     change       -0.4515730E-05 Eh
 * total energy  :  -161.0420394 Eh     change       -0.2713149E-05 Eh
 * total energy  :  -161.0420419 Eh     change       -0.2568222E-05 Eh
 * total energy  :  -161.0420442 Eh     change       -0.2255858E-05 Eh
 * total energy  :  -161.0420591 Eh     change       -0.2161592E-06 Eh
 * total energy  :  -161.0420594 Eh     change       -0.3402706E-06 Eh
 * total energy  :  -161.0420598 Eh     change       -0.3193489E-06 Eh
 * total energy  :  -161.0420600 Eh     change       -0.2697557E-06 Eh
 * total energy  :  -161.0420602 Eh     change       -0.1904282E-06 Eh
 * total energy  :  -161.0420605 Eh     change       -0.2663292E-06 Eh
 * total energy  :  -161.0420607 Eh     change       -0.2214704E-06 Eh
 * total energy  :  -161.0420609 Eh     change       -0.1925931E-06 Eh
 * total energy  :  -161.0420610 Eh     change       -0.4297465E-07 Eh
   *** GEOMETRY OPTIMIZATION CONVERGED AFTER 39 ITERATIONS ***

 final structure:
================
105
 xtb: 6.7.1 (edcfbbe)
C           -9.34466315959571        1.70299695616301        2.13398953795207
C           -9.56351467162800        2.35191089917122        0.92844451097981
C           -8.50608392187275        2.88637698862726        0.21894514275807
C           -7.20385100361277        2.78295210972737        0.71387350884279
N           -6.12738315449462        3.31747292787969        0.00148146888075
C           -6.27133817076814        4.50982390391338       -0.71186844217243
C           -5.60384220983890        4.69024569454065       -1.92575556879055
C           -5.74258571615000        5.87217728108321       -2.62620065705891
C           -6.54724711765761        6.88932919802572       -2.13583208058052
C           -7.21201179749641        6.71577486526347       -0.93151724126141
C           -7.07647583551360        5.54003925743019       -0.21996893809186
C           -4.89756728080695        2.65141590452594       -0.00001257824753
C           -4.84591934606030        1.25252809870350       -0.06712132230816
C           -3.63847979172899        0.59951415778583       -0.06840523152127
C           -2.43166107817922        1.31472172129531       -0.00416356827446
C           -1.16341002764127        0.62776455204589       -0.00516694428509
N           -1.16152919454019       -0.71054852942405       -0.09095539932135
C            0.03180827999660       -1.31508355854561       -0.06987173513727
C            0.07301880555546       -2.75756696555330       -0.13568449498994
C            1.29788211308763       -3.44238517753199       -0.12975916704045
C            1.33944249406634       -4.81335726473625       -0.19272687600493
C            0.15444158474046       -5.55776803038902       -0.26623709586435
N            0.19597178269643       -6.95322870375132       -0.33096795493766
C            1.19789211000021       -7.58524624587996       -1.07284192831074
C            1.77055248830166       -8.77625999910438       -0.62089074853889
C            2.76270792125350       -9.39321143419800       -1.35727093786116
C            3.20348448568832       -8.83596637753705       -2.54781045739784
C            2.64037386743839       -7.65222319792033       -2.99957704819385
C            1.64454282888625       -7.02896236880860       -2.27355278140362
C           -0.75703104033422       -7.71196070686245        0.35398097998676
C           -1.24839048920027       -8.89795419812119       -0.19645915233654
C           -2.18992050755438       -9.64265411292363        0.48627727812014
C           -2.66080805938010       -9.21976157374822        1.71986432010561
C           -2.17895140067161       -8.04151023339757        2.26925729536349
C           -1.23392961355494       -7.29132592123432        1.59750743034659
C           -1.07196121604071       -4.87970091116435       -0.27332791558204
C           -1.11016540062513       -3.50873585946970       -0.20739002683577
N            1.19124571610165       -0.64846866777069       -0.00024013470074
C            1.11665439023454        0.68868133043151        0.06340495057280
C            2.34612260711492        1.44244597308886        0.12616148072475
C            3.58982436882487        0.79151830320949        0.12021430468142
C            4.76041497055656        1.50637262288393        0.18141430426063
C            4.73557829258810        2.90565276971938        0.25297127330473
N            5.92600581145138        3.63596447974399        0.31814451224630
C            6.99810203297492        3.15553563911399        1.07395669061658
C            6.76873449095000        2.47271404832307        2.27083470199227
C            7.83098507074083        1.99424575347972        3.01226356075093
C            9.13405301409700        2.18995449747301        2.58076344520837
C            9.36759523077105        2.86705077729247        1.39361955225264
C            8.31280037110286        3.34512388355750        0.64133909438158
C            6.03597399173117        4.84465631258983       -0.37488915735301
C            6.74296300998358        5.91712544562927        0.17371821079618
C            6.84336396877302        7.10858282181656       -0.51742759908956
C            6.24094106902381        7.25483721308456       -1.75761774499856
C            5.53538169746359        6.19431816996248       -2.30536649061416
C            5.43218028753330        4.99703902674677       -1.62504319107050
C            3.49716088890469        3.56189539981152        0.25741711960165
C            2.32842081178475        2.84445143257408        0.19433403608432
N           -0.04254920295911        1.35663457369354        0.08012079746548
C           -2.49106042012726        2.71620315551922        0.06291499210173
C           -3.69709189981960        3.37168093557308        0.06585589701254
C           -6.98930795126257        2.12871304730223        1.92936058508609
C           -8.05372651360107        1.59437674439190        2.62821242372477
H          -10.17347518453137        1.28473182112907        2.68462805148474
H          -10.56500506351983        2.43425836886486        0.53254926388378
H           -8.67704156447790        3.37732749368282       -0.72769261976541
H           -4.98619645709838        3.89360999018252       -2.31393623022345
H           -5.22482534978585        5.99642698660611       -3.56592611883019
H           -6.65442079406289        7.81068285871122       -2.68782941486671
H           -7.83372051486960        7.50653728461779       -0.53831428423193
H           -7.58225484167863        5.41337652796448        0.72585747286518
H           -5.76794677182053        0.69268818319765       -0.13081005123275
H           -3.59331842748616       -0.47691592106961       -0.12928301446608
H            2.20734062629215       -2.86528003618962       -0.06418164799833
H            2.28793802780702       -5.33054249043026       -0.17288977951108
H            1.43883308508157       -9.20316883304553        0.31406450761503
H            3.20158632255882      -10.31089699657775       -0.99427899980182
H            3.98088312188266       -9.32002167385770       -3.11919165244053
H            2.97377427312698       -7.21411480684551       -3.92880729051839
H            1.19872605598435       -6.11227324542926       -2.63110054259786
H           -0.89306403549365       -9.22154685833091       -1.16370756145475
H           -2.56572466927425      -10.55540038344027        0.04800828907679
H           -3.39855705682258       -9.80356679363264        2.24899182964836
H           -2.53575251659330       -7.70714697151388        3.23237933495652
H           -0.84921292546177       -6.38011763003987        2.03141852586633
H           -1.98896372625370       -5.44684299842470       -0.34354179450096
H           -2.05163656118939       -2.98152098933452       -0.22098258482534
H            3.60370932838627       -0.28559778946593        0.05618373592473
H            5.71192553328774        0.99474544569853        0.16224507911900
H            5.75430148889646        2.33091547241759        2.61380856888442
H            7.63995450429642        1.47176626361001        3.93808125428248
H            9.96103041641078        1.81613918925024        3.16512026749957
H           10.37923798582871        3.01598759701981        1.04592561254437
H            8.49604574115902        3.85793629190594       -0.29129085060619
H            7.19964564578962        5.80988633293187        1.14655383494729
H            7.38878756191583        7.93204643667197       -0.08062250337632
H            6.32033839441179        8.18844359928420       -2.29352955564838
H            5.06790907684329        6.29704836325768       -3.27362842377252
H            4.89233383223078        4.16696875750505       -2.05652667610515
H            3.47127811940030        4.64002138829296        0.32488361998249
H            1.37236850632606        3.34473502342694        0.20733778663981
H           -1.56414352908040        3.26547923817548        0.12262568618612
H           -3.73079417997522        4.44967614022953        0.13220358733749
H           -5.98513997083177        2.05280472043561        2.32018321376543
H           -7.87443851711484        1.09595047433115        3.56949608402838

          :  Hamiltonian                  GFN2-xTB          :
         :: gradient norm              0.000133268597 Eh/a0 ::
         :: HOMO-LUMO gap              0.005875746172 eV    ::
         :: SCC energy              -164.001135209381 Eh    ::
         :: -> dispersion             -0.143133681161 Eh    ::
         :: -> Gsolv                  -0.078084729299 Eh    ::
         :: repulsion energy           2.959074243374 Eh    ::

    * Orbital Energies and Occupations

         #    Occupation            Energy/Eh            Energy/eV
      -------------------------------------------------------------
         1        2.0000           -0.6731240             -18.3166
       ...           ...                  ...                  ...
       139        2.0000           -0.4103259             -11.1655
       140        2.0000           -0.4076660             -11.0932
       141        2.0000           -0.4074722             -11.0879
       142        2.0000           -0.4073013             -11.0832
       143        2.0000           -0.4049795             -11.0201
       144        2.0000           -0.4003707             -10.8946
       145        2.0000           -0.3998120             -10.8794
       146        1.9554           -0.3581295              -9.7452
       147        1.9430           -0.3578844              -9.7385
       148        1.8312           -0.3567327              -9.7072
       149        1.6782           -0.3559264              -9.6853
       150        1.5921           -0.3555723              -9.6756
       151        0.5284           -0.2723155              -7.4101 (HOMO)
       152        0.4716           -0.2720997              -7.4042 (LUMO)
       153                         -0.2431914              -6.6176
       154                         -0.2368675              -6.4455
       155                         -0.2368373              -6.4447
       156                         -0.2368266              -6.4444
       157                         -0.2316360              -6.3031
       158                         -0.2315806              -6.3016
       159                         -0.2315392              -6.3005
       160                         -0.2271103              -6.1800
       161                         -0.2271038              -6.1798
       162                         -0.2270769              -6.1791
       ...                                ...                  ...
       294                          0.6929629              18.8565
      -------------------------------------------------------------
                  HL-Gap            0.0002158 Eh            0.0059 eV

     #   Z          covCN         q      C6AA      α(0)
     1   6 C        2.919    -0.034    28.857     8.809
     2   6 C        2.919    -0.028    28.696     8.784
     3   6 C        2.921    -0.045    29.107     8.847
     4   6 C        2.924     0.064    26.559     8.451
     5   7 N        2.752    -0.050    22.205     6.999
     6   6 C        2.924     0.064    26.559     8.451
     7   6 C        2.921    -0.044    29.089     8.845
     8   6 C        2.919    -0.028    28.693     8.784
     9   6 C        2.919    -0.034    28.858     8.809
    10   6 C        2.919    -0.028    28.696     8.785
    11   6 C        2.921    -0.045    29.108     8.848
    12   6 C        2.925     0.055    26.772     8.485
    13   6 C        2.917    -0.046    29.145     8.853
    14   6 C        2.921    -0.035    28.882     8.813
    15   6 C        2.980    -0.019    28.469     8.752
    16   6 C        2.943     0.199    23.769     7.996
    17   7 N        1.844    -0.341    29.703     8.077
    18   6 C        2.943     0.202    23.722     7.988
    19   6 C        2.981    -0.019    28.465     8.752
    20   6 C        2.921    -0.035    28.864     8.810
    21   6 C        2.917    -0.046    29.153     8.854
    22   6 C        2.925     0.056    26.740     8.480
    23   7 N        2.752    -0.051    22.226     7.002
    24   6 C        2.925     0.064    26.561     8.452
    25   6 C        2.921    -0.045    29.105     8.847
    26   6 C        2.919    -0.028    28.696     8.784
    27   6 C        2.919    -0.034    28.857     8.809
    28   6 C        2.919    -0.028    28.693     8.784
    29   6 C        2.921    -0.044    29.087     8.844
    30   6 C        2.924     0.064    26.561     8.452
    31   6 C        2.921    -0.045    29.106     8.847
    32   6 C        2.919    -0.028    28.696     8.785
    33   6 C        2.919    -0.034    28.858     8.809
    34   6 C        2.919    -0.028    28.693     8.784
    35   6 C        2.921    -0.044    29.090     8.845
    36   6 C        2.917    -0.046    29.152     8.854
    37   6 C        2.921    -0.035    28.864     8.810
    38   7 N        1.844    -0.342    29.738     8.082
    39   6 C        2.943     0.201    23.745     7.992
    40   6 C        2.981    -0.019    28.467     8.752
    41   6 C        2.921    -0.035    28.873     8.812
    42   6 C        2.917    -0.046    29.149     8.853
    43   6 C        2.925     0.055    26.756     8.483
    44   7 N        2.752    -0.051    22.217     7.000
    45   6 C        2.924     0.064    26.559     8.451
    46   6 C        2.921    -0.044    29.091     8.845
    47   6 C        2.919    -0.028    28.693     8.784
    48   6 C        2.919    -0.035    28.859     8.809
    49   6 C        2.919    -0.028    28.696     8.785
    50   6 C        2.921    -0.045    29.110     8.848
    51   6 C        2.925     0.064    26.560     8.452
    52   6 C        2.921    -0.044    29.104     8.847
    53   6 C        2.919    -0.028    28.696     8.784
    54   6 C        2.919    -0.034    28.855     8.809
    55   6 C        2.919    -0.028    28.693     8.784
    56   6 C        2.922    -0.044    29.085     8.844
    57   6 C        2.917    -0.046    29.149     8.853
    58   6 C        2.921    -0.035    28.872     8.812
    59   7 N        1.844    -0.339    29.663     8.072
    60   6 C        2.921    -0.035    28.882     8.813
    61   6 C        2.917    -0.046    29.144     8.853
    62   6 C        2.921    -0.044    29.087     8.844
    63   6 C        2.919    -0.028    28.693     8.784
    64   1 H        0.926     0.040     2.455     2.450
    65   1 H        0.926     0.041     2.431     2.438
    66   1 H        0.926     0.040     2.453     2.449
    67   1 H        0.926     0.035     2.515     2.480
    68   1 H        0.926     0.039     2.461     2.453
    69   1 H        0.926     0.039     2.456     2.451
    70   1 H        0.926     0.041     2.431     2.438
    71   1 H        0.926     0.040     2.454     2.450
    72   1 H        0.926     0.037     2.488     2.467
    73   1 H        0.926     0.040     2.447     2.446
    74   1 H        0.926     0.041     2.439     2.442
    75   1 H        0.926     0.038     2.482     2.463
    76   1 H        0.926     0.039     2.457     2.451
    77   1 H        0.926     0.041     2.431     2.438
    78   1 H        0.926     0.039     2.455     2.450
    79   1 H        0.926     0.039     2.461     2.453
    80   1 H        0.926     0.035     2.515     2.480
    81   1 H        0.926     0.039     2.457     2.451
    82   1 H        0.926     0.041     2.432     2.439
    83   1 H        0.926     0.039     2.456     2.451
    84   1 H        0.926     0.039     2.461     2.453
    85   1 H        0.926     0.035     2.516     2.480
    86   1 H        0.926     0.038     2.480     2.462
    87   1 H        0.926     0.041     2.439     2.442
    88   1 H        0.926     0.040     2.443     2.444
    89   1 H        0.926     0.037     2.483     2.464
    90   1 H        0.926     0.035     2.515     2.480
    91   1 H        0.926     0.039     2.462     2.454
    92   1 H        0.926     0.039     2.457     2.451
    93   1 H        0.926     0.041     2.432     2.439
    94   1 H        0.926     0.039     2.456     2.451
    95   1 H        0.926     0.040     2.455     2.450
    96   1 H        0.926     0.041     2.430     2.438
    97   1 H        0.926     0.040     2.454     2.450
    98   1 H        0.926     0.039     2.460     2.453
    99   1 H        0.926     0.035     2.515     2.480
   100   1 H        0.926     0.037     2.485     2.465
   101   1 H        0.926     0.040     2.444     2.445
   102   1 H        0.926     0.040     2.447     2.446
   103   1 H        0.926     0.037     2.487     2.466
   104   1 H        0.926     0.035     2.515     2.480
   105   1 H        0.926     0.039     2.461     2.453

molecular dipole:
                 x           y           z       tot (Debye)
 q only:        0.003      -0.004      -0.004
   full:        0.005      -0.006      -0.003       0.020

 projected vibrational frequencies (cm⁻¹)
eigval :       -0.00    -0.00    -0.00    -0.00     0.00     0.00
eigval :      -11.56     7.11     9.09    10.02    14.17    16.05
eigval :       26.06    27.38    33.34    41.01    43.49    43.91
eigval :       45.38    50.93    58.58    62.08    64.06    65.75
eigval :       66.65    74.52    76.38    92.56    93.81    94.91
eigval :      104.33   106.34   128.93   136.51   163.95   164.30
eigval :      166.13   173.96   174.98   211.83   212.60   220.15
eigval :      229.33   229.61   231.97   275.82   277.04   286.65
eigval :      289.21   309.03   311.05   311.63   312.52   329.89
eigval :      342.89   348.23   372.44   373.03   374.65   377.09
eigval :      377.43   377.91   381.43   384.60   385.16   386.14
eigval :      387.66   389.36   398.66   400.42   408.78   452.86
eigval :      454.02   471.71   471.96   476.23   483.71   501.00
eigval :      501.96   504.10   532.30   547.24   554.55   569.15
eigval :      569.54   575.14   576.93   580.48   584.64   587.37
eigval :      587.91   590.41   592.10   592.43   595.99   596.84
eigval :      611.39   613.81   615.41   624.76   655.77   657.31
eigval :      658.16   662.35   663.31   663.99   664.89   679.62
eigval :      681.02   690.05   690.80   704.70   720.81   754.87
eigval :      755.12   755.29   757.62   757.93   758.83   807.39
eigval :      809.93   810.43   814.39   814.69   851.46   854.19
eigval :      855.43   869.22   869.91   870.61   871.72   873.36
eigval :      876.06   891.43   892.17   892.70   893.12   893.79
eigval :      894.52   905.08   907.06   907.66   908.48   908.59
eigval :      909.73   911.16   915.38   918.12   919.22   922.73
eigval :      922.98   924.98   925.63   925.82   926.18   926.55
eigval :      927.38   927.75   928.14   928.33   928.78   929.02
eigval :      929.57   954.53   982.04   982.54   984.62  1001.18
eigval :     1001.26  1001.35  1003.58  1008.87  1009.74  1065.27
eigval :     1079.64  1079.84  1080.34  1080.56  1080.80  1081.25
eigval :     1119.66  1119.85  1120.77  1122.00  1122.68  1123.12
eigval :     1123.65  1126.51  1129.04  1155.31  1157.23  1174.36
eigval :     1175.95  1176.64  1176.91  1177.57  1178.07  1178.14
eigval :     1178.53  1178.78  1184.92  1189.52  1190.83  1191.77
eigval :     1192.58  1193.08  1209.17  1211.40  1212.66  1254.64
eigval :     1256.75  1257.57  1269.93  1274.26  1274.37  1274.93
eigval :     1276.09  1276.59  1276.71  1299.42  1299.84  1301.82
eigval :     1302.56  1303.56  1304.10  1316.73  1316.94  1317.19
eigval :     1324.66  1324.83  1324.95  1329.45  1330.27  1336.03
eigval :     1348.44  1350.42  1378.15  1419.04  1420.91  1421.21
eigval :     1431.66  1432.03  1432.35  1438.39  1438.56  1438.99
eigval :     1457.91  1458.38  1459.72  1459.83  1460.34  1461.11
eigval :     1461.25  1462.70  1479.23  1504.10  1506.80  1508.85
eigval :     1555.76  1556.69  1564.76  1565.64  1565.74  1569.18
eigval :     1569.86  1570.09  1578.81  1579.49  1579.74  1579.98
eigval :     1585.96  1586.44  1589.98  3075.40  3075.73  3075.90
eigval :     3076.18  3076.28  3076.68  3076.77  3077.08  3077.23
eigval :     3077.41  3077.55  3077.69  3078.08  3078.27  3078.37
eigval :     3078.48  3078.74  3079.16  3085.68  3085.81  3086.48
eigval :     3086.53  3086.81  3087.32  3088.43  3088.79  3089.31
eigval :     3089.37  3089.92  3090.14  3096.41  3096.64  3096.86
eigval :     3097.05  3097.20  3097.25  3097.33  3097.48  3097.87
eigval :     3098.38  3099.10  3100.87

   temp. (K)  partition function   enthalpy   heat capacity  entropy
                                   cal/mol     cal/K/mol   cal/K/mol   J/K/mol
 298.15  VIB  0.967E+27            31616.303    193.116    201.827
         ROT  0.344E+09              888.752      2.981     42.041
         INT  0.332E+36            32505.055    196.097    243.868
         TR   0.223E+29             1481.254      4.968     45.936
         TOT                       33986.3089   201.0647   289.8038  1212.5393

       T/K    H(0)-H(T)+PV         H(T)/Eh          T*S/Eh         G(T)/Eh
   ------------------------------------------------------------------------
    298.15    0.541606E-01    0.858651E+00    0.137695E+00    0.720956E+00
   ------------------------------------------------------------------------

         :::::::::::::::::::::::::::::::::::::::::::::::::::::
         ::                  THERMODYNAMIC                  ::
         :::::::::::::::::::::::::::::::::::::::::::::::::::::
         :: total free energy        -160.321105047789 Eh   ::
         ::.................................................::
         :: total energy             -161.042060961734 Eh   ::
         :: zero point energy           0.804490437973 Eh   ::
         :: G(RRHO) w/o ZPVE           -0.083534524028 Eh   ::
         :: G(RRHO) contrib.            0.720955913945 Eh   ::
         :::::::::::::::::::::::::::::::::::::::::::::::::::::

           -------------------------------------------------
          | TOTAL ENERGY             -161.042060961734 Eh   |
          | TOTAL ENTHALPY           -160.183409893080 Eh   |
          | TOTAL FREE ENERGY        -160.321105047789 Eh   |
          | GRADIENT NORM               0.000132230954 Eh/α |
          | HOMO-LUMO GAP               0.005873525321 eV   |
           -------------------------------------------------

 * finished run on 2025/09/05 at 11:19:03.958
