   * xtb version 6.7.1 (edcfbbe) compiled by 'albert@albert-system' on 2024-07-22

   ID    Z sym.   atoms
    1    6 C      1-4, 6-16, 18-22, 24-37, 39-43, 45-58, 60-63
    2    7 N      5, 17, 23, 38, 44, 59
    3    1 H      64-105

          program call               : xtb data2507/toluene/TDPA–TRZ/TDPA–TRZ.xyz --gfn 2 --gbsa toluene --ohess vtight --parallel 40 --molden --ceasefiles --namespace data2507/toluene/TDPA–TRZ/TDPA–TRZ_toluene_S0_preOpt
      * Solvation model:               GBSA
        Solvent                        toluene
        Solvent mass                       9.2140E+01 g/mol
          :  Hamiltonian                  GFN2-xTB          :
 * total energy  :  -161.0857026 Eh     change       -0.1336900E-08 Eh
 * total energy  :  -161.1024907 Eh     change       -0.1678805E-01 Eh
 * total energy  :  -161.1105291 Eh     change       -0.8038455E-02 Eh
 * total energy  :  -161.1143128 Eh     change       -0.3783701E-02 Eh
 * total energy  :  -161.1167979 Eh     change       -0.2485056E-02 Eh
 * total energy  :  -161.1179964 Eh     change       -0.1198481E-02 Eh
 * total energy  :  -161.1185548 Eh     change       -0.5584779E-03 Eh
 * total energy  :  -161.1187908 Eh     change       -0.2359324E-03 Eh
 * total energy  :  -161.1189123 Eh     change       -0.1214977E-03 Eh
 * total energy  :  -161.1190661 Eh     change       -0.1538534E-03 Eh
 * total energy  :  -161.1200023 Eh     change       -0.4375285E-06 Eh
 * total energy  :  -161.1200028 Eh     change       -0.5376099E-06 Eh
 * total energy  :  -161.1200033 Eh     change       -0.4359806E-06 Eh
 * total energy  :  -161.1200035 Eh     change       -0.2745457E-06 Eh
 * total energy  :  -161.1200037 Eh     change       -0.1690576E-06 Eh
 * total energy  :  -161.1200038 Eh     change       -0.1446993E-06 Eh
 * total energy  :  -161.1200040 Eh     change       -0.1384990E-06 Eh
 * total energy  :  -161.1200041 Eh     change       -0.1059782E-06 Eh
 * total energy  :  -161.1200041 Eh     change       -0.8312924E-08 Eh
   *** GEOMETRY OPTIMIZATION CONVERGED AFTER 145 ITERATIONS ***

 final structure:
================
105
 xtb: 6.7.1 (edcfbbe)
C            2.03854614988595       -9.33165827540294       -2.10504125520961
C            2.61709060608767       -9.50325853466483       -0.85782046165064
C            3.08212961821211       -8.41339446968723       -0.14629755439690
C            2.97885660448884       -7.13071117447943       -0.68219319635551
N            3.46518641070142       -6.02358425894202        0.03277891576307
C            4.67125853746742       -6.15089216737440        0.74275333640917
C            4.80803461872067       -5.58546744778301        2.00964075824146
C            5.99424628461266       -5.72045407705526        2.70583934111359
C            7.05354552102753       -6.42500322546693        2.15642975947110
C            6.91881971832367       -6.99471361363231        0.90058178606452
C            5.73897615474452       -6.85868826510778        0.19355063308250
C            2.77162563094451       -4.82211696390856        0.03259756635725
C            1.37357933827309       -4.80374663282827       -0.04917117965559
C            0.68851832079566       -3.61110274215528       -0.05168299171501
C            1.37145116034810       -2.39535151525734        0.02114034708762
C            0.64441857640169       -1.13258471405767        0.01031728671593
N           -0.68700831057709       -1.17804735276234        0.03299243648880
C           -1.30881543577368        0.00057570477787        0.03677064850213
C           -2.76483432802938        0.00451454496462        0.08365971401160
C           -3.47574319405463        1.20448689088876        0.01452157772848
C           -4.85021812088610        1.21171807594037        0.06122124621540
C           -5.56548822092406        0.01339415244232        0.18120785342447
N           -6.95158859161329        0.01784203139906        0.23009299062310
C           -7.64377717814966        1.09615189015752        0.80666155465130
C           -8.82314353641540        1.56284225821020        0.22844596765178
C           -9.51087310925411        2.61416609157343        0.80468037105494
C           -9.03232212253068        3.21812193931115        1.95619320444403
C           -7.86022836274427        2.75733986867044        2.53416373131063
C           -7.17006786482371        1.70118779029713        1.97003850787004
C           -7.68851146376265       -1.05818462770213       -0.29363910943396
C           -8.81953554730926       -1.52560818234942        0.37349822031024
C           -9.55135643524288       -2.57441027561254       -0.15075845718481
C           -9.16492619734274       -3.17490200274186       -1.33809055373326
C           -8.04086948911566       -2.71352268464341       -2.00423139700208
C           -7.30772744889266       -1.65968266093252       -1.49235542367599
C           -4.85123620246982       -1.18952700411541        0.25031166541816
C           -3.47685076768265       -1.19107334620755        0.20043108740684
N           -0.68272867114697        1.17625303255158        0.00032778776131
C            0.64824166858333        1.12523685797812       -0.03580262143071
C            1.37872348241735        2.38424082600990       -0.09220902375329
C            0.70572847474571        3.60372809149184        0.00730306136144
C            1.39376439538141        4.79341096316064       -0.04499331874003
C            2.78518583002634        4.80563567625359       -0.20638864188661
N            3.48186735161382        6.00314507492639       -0.26291634595675
C            2.88338850022654        7.15768628459883       -0.79517011561817
C            2.08128364644882        7.08049187189905       -1.93291442918799
C            1.50001559312500        8.22214445213006       -2.45143702088834
C            1.71715108236410        9.45338726809761       -1.85385129808759
C            2.52171201786454        9.53569630321943       -0.72884885445286
C            3.10006008415386        8.39830548262450       -0.19774290878724
C            4.80080933812070        6.08599869345093        0.21606185229221
C            5.75352479586743        6.82871889468867       -0.47913207544894
C            7.04732833893089        6.91950886969555       -0.00141704101526
C            7.41038698764904        6.26974088956883        1.16724379477331
C            6.46572270179512        5.53158615007219        1.86218158572502
C            5.16749276480387        5.44158370990351        1.39658631163438
C            3.45859423821963        3.58156289754020       -0.30885675884795
C            2.76617774871934        2.39485478577174       -0.24986417166185
N            1.35370340725565       -0.00516765018325       -0.02242230761348
C            2.76522624644659       -2.41241745207402        0.10444340550221
C            3.45503955236026       -3.60223933631470        0.11344769395939
C            2.40350361222760       -6.96323155046125       -1.94108410728465
C            1.93403830509749       -8.05820675231123       -2.64142310792775
H            1.67311862581582      -10.18457102197065       -2.65683562874073
H            2.70057577128480      -10.49201028137135       -0.43109099280405
H            3.52710159037800       -8.54764474510524        0.82875758114107
H            3.97861590727605       -5.04525871248934        2.44252793110995
H            6.08772952683634       -5.27949952600616        3.68753355924944
H            7.97756263826116       -6.53064267323546        2.70465126477128
H            7.74043418096919       -7.54317353331641        0.46381509018383
H            5.63657614780172       -7.29747207425924       -0.78820637302228
H            0.83341730974657       -5.73754189620787       -0.09996879429618
H           -0.38897263191043       -3.59698765131602       -0.10563374195140
H           -2.92490455055379        2.12647845335881       -0.08839421900719
H           -5.38806985426885        2.14577589993491       -0.00624832222140
H           -9.19371686509782        1.09711358045831       -0.67297289796103
H          -10.42245724663146        2.96845264188142        0.34627640340434
H           -9.57023850666794        4.04115196899608        2.40196728730129
H           -7.48353657140644        3.21700438046330        3.43622505460032
H           -6.26183781340582        1.33604026967913        2.42733432967055
H           -9.11781845848697       -1.06254809612307        1.30271931354228
H          -10.42476214369623       -2.92954544459667        0.37615558810823
H           -9.73696517864148       -3.99600449703993       -1.74299360872255
H           -7.73618769405429       -3.17091854011064       -2.93422181100222
H           -6.43769581233755       -1.29367931593088       -2.01799936192486
H           -5.38881037144716       -2.12041368182117        0.35414947133610
H           -2.92629537686271       -2.11674671337645        0.26439711197250
H           -0.36495107914539        3.59429794832107        0.14041375165975
H            0.86245504374721        5.72888843777564        0.04858662895729
H            1.92055962780181        6.12266848187705       -2.40620504387317
H            0.88055534713349        8.14964410242726       -3.33345940961753
H            1.26380445579963       10.34329723118196       -2.26370738233957
H            2.69437953303199       10.49107181052051       -0.25539332185225
H            3.72177395908320        8.46237428367840        0.68329269448267
H            5.47236050279895        7.33007815348613       -1.39370905303742
H            7.77802657025691        7.49526237795308       -0.55022419450244
H            8.42281874510676        6.33958827313083        1.53537949605047
H            6.73811076930492        5.02836555944616        2.77840337823615
H            4.42879255129894        4.87418629750170        1.94403983097095
H            4.52984274358886        3.57527527666564       -0.44567408538733
H            3.28357693004322        1.45225066420362       -0.33876234778738
H            3.29174809128166       -1.47206328650962        0.15525191559303
H            4.53352131434033       -3.60128487562598        0.17072182720238
H            2.33114311529806       -5.97204136901135       -2.36478680441062
H            1.49151733940627       -7.91552451562741       -3.61647438688946

          :  Hamiltonian                  GFN2-xTB          :
         :: gradient norm              0.000048518367 Eh/a0 ::
         :: HOMO-LUMO gap              2.014822722377 eV    ::
         :: SCC energy              -164.092435692343 Eh    ::
         :: -> dispersion             -0.143098828464 Eh    ::
         :: -> Gsolv                  -0.074791197886 Eh    ::
         :: repulsion energy           2.972431594629 Eh    ::

    * Orbital Energies and Occupations

         #    Occupation            Energy/Eh            Energy/eV
      -------------------------------------------------------------
         1        2.0000           -0.6765334             -18.4094
       ...           ...                  ...                  ...
       138        2.0000           -0.4093726             -11.1396
       139        2.0000           -0.4093124             -11.1380
       140        2.0000           -0.4086706             -11.1205
       141        2.0000           -0.4086262             -11.1193
       142        2.0000           -0.4085872             -11.1182
       143        2.0000           -0.4073000             -11.0832
       144        2.0000           -0.4067047             -11.0670
       145        2.0000           -0.4066764             -11.0662
       146        2.0000           -0.3688204             -10.0361
       147        2.0000           -0.3687832             -10.0351
       148        2.0000           -0.3567491              -9.7076
       149        2.0000           -0.3566569              -9.7051
       150        2.0000           -0.3552984              -9.6682 (HOMO)
       151                         -0.2812550              -7.6533 (LUMO)
       152                         -0.2811522              -7.6505
       153                         -0.2458436              -6.6897
       154                         -0.2341288              -6.3710
       155                         -0.2340661              -6.3693
       156                         -0.2339933              -6.3673
       157                         -0.2314698              -6.2986
       158                         -0.2314622              -6.2984
       159                         -0.2314425              -6.2979
       160                         -0.2263578              -6.1595
       161                         -0.2263195              -6.1585
       ...                                ...                  ...
       294                          0.6936200              18.8744
      -------------------------------------------------------------
                  HL-Gap            0.0740434 Eh            2.0148 eV

     #   Z          covCN         q      C6AA      α(0)
     1   6 C        2.919    -0.037    28.909     8.817
     2   6 C        2.919    -0.029    28.720     8.788
     3   6 C        2.922    -0.046    29.134     8.851
     4   6 C        2.925     0.063    26.580     8.455
     5   7 N        2.752    -0.068    22.564     7.055
     6   6 C        2.925     0.063    26.579     8.455
     7   6 C        2.922    -0.046    29.138     8.852
     8   6 C        2.919    -0.029    28.724     8.789
     9   6 C        2.919    -0.036    28.904     8.816
    10   6 C        2.919    -0.029    28.719     8.788
    11   6 C        2.922    -0.045    29.127     8.850
    12   6 C        2.922     0.072    26.397     8.425
    13   6 C        2.920    -0.050    29.239     8.867
    14   6 C        2.922    -0.028    28.700     8.785
    15   6 C        2.983    -0.022    28.545     8.764
    16   6 C        2.978     0.220    23.373     7.930
    17   7 N        1.844    -0.341    29.719     8.079
    18   6 C        2.977     0.220    23.375     7.931
    19   6 C        2.983    -0.022    28.549     8.765
    20   6 C        2.922    -0.028    28.701     8.785
    21   6 C        2.920    -0.050    29.243     8.868
    22   6 C        2.922     0.072    26.397     8.425
    23   7 N        2.752    -0.068    22.553     7.053
    24   6 C        2.925     0.063    26.581     8.455
    25   6 C        2.922    -0.046    29.131     8.851
    26   6 C        2.919    -0.029    28.720     8.788
    27   6 C        2.919    -0.036    28.907     8.817
    28   6 C        2.919    -0.029    28.724     8.789
    29   6 C        2.922    -0.046    29.142     8.853
    30   6 C        2.925     0.063    26.581     8.455
    31   6 C        2.922    -0.045    29.128     8.850
    32   6 C        2.919    -0.029    28.719     8.788
    33   6 C        2.919    -0.036    28.904     8.816
    34   6 C        2.919    -0.029    28.724     8.789
    35   6 C        2.922    -0.046    29.139     8.852
    36   6 C        2.920    -0.050    29.244     8.868
    37   6 C        2.922    -0.028    28.700     8.785
    38   7 N        1.844    -0.341    29.716     8.079
    39   6 C        2.977     0.220    23.375     7.931
    40   6 C        2.983    -0.022    28.551     8.765
    41   6 C        2.922    -0.028    28.700     8.785
    42   6 C        2.920    -0.050    29.249     8.869
    43   6 C        2.922     0.072    26.397     8.425
    44   7 N        2.752    -0.068    22.553     7.053
    45   6 C        2.925     0.063    26.582     8.455
    46   6 C        2.922    -0.046    29.141     8.853
    47   6 C        2.919    -0.029    28.724     8.789
    48   6 C        2.919    -0.036    28.906     8.817
    49   6 C        2.919    -0.029    28.719     8.788
    50   6 C        2.922    -0.046    29.131     8.851
    51   6 C        2.925     0.063    26.581     8.455
    52   6 C        2.922    -0.045    29.124     8.850
    53   6 C        2.919    -0.029    28.718     8.788
    54   6 C        2.919    -0.036    28.902     8.816
    55   6 C        2.919    -0.029    28.723     8.789
    56   6 C        2.922    -0.046    29.135     8.852
    57   6 C        2.920    -0.050    29.248     8.869
    58   6 C        2.922    -0.028    28.700     8.785
    59   7 N        1.844    -0.341    29.719     8.079
    60   6 C        2.922    -0.028    28.700     8.785
    61   6 C        2.920    -0.050    29.240     8.867
    62   6 C        2.922    -0.046    29.145     8.853
    63   6 C        2.919    -0.029    28.725     8.789
    64   1 H        0.926     0.037     2.494     2.469
    65   1 H        0.926     0.038     2.472     2.459
    66   1 H        0.926     0.036     2.507     2.476
    67   1 H        0.926     0.033     2.549     2.497
    68   1 H        0.926     0.037     2.489     2.467
    69   1 H        0.926     0.037     2.490     2.468
    70   1 H        0.926     0.038     2.470     2.457
    71   1 H        0.926     0.036     2.505     2.475
    72   1 H        0.926     0.042     2.422     2.434
    73   1 H        0.926     0.047     2.352     2.398
    74   1 H        0.926     0.048     2.350     2.397
    75   1 H        0.926     0.042     2.422     2.434
    76   1 H        0.926     0.036     2.505     2.475
    77   1 H        0.926     0.038     2.471     2.458
    78   1 H        0.926     0.037     2.492     2.469
    79   1 H        0.926     0.037     2.490     2.468
    80   1 H        0.926     0.033     2.548     2.496
    81   1 H        0.926     0.036     2.504     2.475
    82   1 H        0.926     0.038     2.470     2.458
    83   1 H        0.926     0.037     2.490     2.468
    84   1 H        0.926     0.037     2.488     2.466
    85   1 H        0.926     0.033     2.546     2.495
    86   1 H        0.926     0.042     2.424     2.434
    87   1 H        0.926     0.047     2.352     2.398
    88   1 H        0.926     0.047     2.355     2.400
    89   1 H        0.926     0.042     2.422     2.434
    90   1 H        0.926     0.033     2.545     2.495
    91   1 H        0.926     0.037     2.489     2.467
    92   1 H        0.926     0.037     2.492     2.468
    93   1 H        0.926     0.038     2.471     2.458
    94   1 H        0.926     0.036     2.506     2.476
    95   1 H        0.926     0.036     2.504     2.474
    96   1 H        0.926     0.039     2.469     2.457
    97   1 H        0.926     0.037     2.489     2.467
    98   1 H        0.926     0.037     2.486     2.465
    99   1 H        0.926     0.033     2.544     2.494
   100   1 H        0.926     0.042     2.425     2.435
   101   1 H        0.926     0.047     2.354     2.400
   102   1 H        0.926     0.048     2.350     2.397
   103   1 H        0.926     0.042     2.425     2.435
   104   1 H        0.926     0.032     2.552     2.498
   105   1 H        0.926     0.037     2.492     2.469

molecular dipole:
                 x           y           z       tot (Debye)
 q only:        0.013       0.030       0.004
   full:        0.013       0.029       0.003       0.082

 projected vibrational frequencies (cm⁻¹)
eigval :       -0.00    -0.00     0.00     0.00     0.00     0.00
eigval :        9.32     9.53    10.79    12.05    14.57    15.94
eigval :       27.17    29.42    33.89    39.58    43.07    45.90
eigval :       48.82    49.40    57.03    62.24    63.31    65.88
eigval :       66.51    74.15    75.54    90.15    91.00   100.70
eigval :      103.02   103.41   131.45   136.36   156.12   157.61
eigval :      167.14   181.09   181.14   216.14   218.44   221.89
eigval :      234.26   235.05   236.16   278.50   280.78   295.21
eigval :      296.76   306.93   312.70   312.92   327.25   334.23
eigval :      367.17   367.77   375.89   376.75   377.99   378.12
eigval :      378.18   379.68   380.38   385.72   387.00   389.82
eigval :      400.41   401.20   409.49   433.42   434.79   470.49
eigval :      471.28   486.32   492.11   493.01   493.84   498.63
eigval :      499.31   504.29   556.01   581.52   581.87   583.29
eigval :      584.73   584.93   585.85   592.42   592.62   593.21
eigval :      604.58   605.21   613.07   613.71   614.23   625.53
eigval :      631.67   632.97   660.43   661.22   661.67   665.78
eigval :      666.29   668.04   678.51   702.09   702.17   703.60
eigval :      704.66   724.97   756.37   758.64   758.88   759.19
eigval :      760.91   761.84   775.03   823.24   824.20   824.66
eigval :      843.02   843.24   865.83   867.38   868.47   874.09
eigval :      874.78   874.82   875.11   875.83   876.59   892.85
eigval :      894.68   895.12   896.51   896.81   897.13   909.02
eigval :      909.16   909.28   915.50   917.96   919.77   921.40
eigval :      925.02   926.56   927.06   927.48   928.12   928.42
eigval :      928.58   928.82   929.06   929.48   929.89   930.45
eigval :      930.57   930.84   931.49   931.60   932.48   981.14
eigval :      986.09   986.19  1004.44  1004.45  1004.55  1007.14
eigval :     1017.65  1018.03  1044.42  1080.84  1081.10  1081.34
eigval :     1082.04  1082.26  1082.54  1086.72  1119.84  1120.07
eigval :     1120.17  1121.86  1121.92  1122.00  1126.84  1131.28
eigval :     1132.55  1162.90  1163.80  1176.70  1177.89  1178.71
eigval :     1179.22  1179.35  1179.49  1183.32  1183.54  1184.24
eigval :     1189.96  1193.27  1193.58  1193.80  1199.38  1199.83
eigval :     1210.89  1211.26  1217.86  1217.98  1259.19  1261.60
eigval :     1262.38  1275.18  1275.69  1276.08  1278.83  1279.35
eigval :     1279.99  1301.33  1301.56  1301.98  1314.87  1314.99
eigval :     1315.15  1319.41  1319.64  1321.07  1322.82  1323.17
eigval :     1323.32  1334.03  1334.16  1337.49  1359.42  1359.67
eigval :     1389.71  1415.07  1415.41  1418.36  1433.47  1433.73
eigval :     1434.42  1438.69  1438.87  1439.43  1465.36  1465.74
eigval :     1468.06  1470.09  1470.55  1470.64  1486.92  1487.26
eigval :     1492.46  1492.79  1496.17  1550.52  1554.96  1555.35
eigval :     1576.66  1576.74  1577.12  1580.27  1580.32  1580.65
eigval :     1588.41  1588.56  1588.68  1590.17  1590.37  1590.47
eigval :     1597.76  1598.02  1598.11  3073.79  3074.09  3074.40
eigval :     3074.60  3074.68  3075.28  3075.46  3075.66  3076.13
eigval :     3076.42  3076.68  3076.97  3083.20  3083.37  3083.42
eigval :     3083.91  3084.12  3084.60  3084.90  3085.35  3085.57
eigval :     3085.83  3086.68  3086.79  3086.95  3087.02  3087.14
eigval :     3087.75  3087.83  3088.30  3095.65  3095.66  3095.94
eigval :     3096.21  3096.53  3096.72  3101.99  3102.37  3102.49
eigval :     3103.55  3103.75  3104.98

   temp. (K)  partition function   enthalpy   heat capacity  entropy
                                   cal/mol     cal/K/mol   cal/K/mol   J/K/mol
 298.15  VIB  0.319E+27            30999.233    188.848    198.226
         ROT  0.345E+09              888.752      2.981     42.048
         INT  0.110E+36            31887.985    191.829    240.274
         TR   0.223E+29             1481.254      4.968     45.936
         TOT                       33369.2390   196.7970   286.2098  1197.5020

       T/K    H(0)-H(T)+PV         H(T)/Eh          T*S/Eh         G(T)/Eh
   ------------------------------------------------------------------------
    298.15    0.531773E-01    0.866004E+00    0.135988E+00    0.730016E+00
   ------------------------------------------------------------------------

         :::::::::::::::::::::::::::::::::::::::::::::::::::::
         ::                  THERMODYNAMIC                  ::
         :::::::::::::::::::::::::::::::::::::::::::::::::::::
         :: total free energy        -160.389988036449 Eh   ::
         ::.................................................::
         :: total energy             -161.120004100322 Eh   ::
         :: zero point energy           0.812826327641 Eh   ::
         :: G(RRHO) w/o ZPVE           -0.082810263769 Eh   ::
         :: G(RRHO) contrib.            0.730016063872 Eh   ::
         :::::::::::::::::::::::::::::::::::::::::::::::::::::

           -------------------------------------------------
          | TOTAL ENERGY             -161.120004100322 Eh   |
          | TOTAL ENTHALPY           -160.254000505520 Eh   |
          | TOTAL FREE ENERGY        -160.389988036449 Eh   |
          | GRADIENT NORM               0.000048506149 Eh/α |
          | HOMO-LUMO GAP               2.014824318827 eV   |
           -------------------------------------------------

 * finished run on 2025/09/05 at 10:39:18.696
