   * xtb version 6.7.1 (edcfbbe) compiled by 'albert@albert-system' on 2024-07-22

   ID    Z sym.   atoms
    1    8 O      1, 4
    2    6 C      2, 3, 5-12, 14-33
    3    7 N      13
    4    1 H      34-52

          program call               : xtb data2507/toluene/ADO-TPA/ADO-TPA.xyz --gfn 2 --gbsa toluene --ohess vtight --parallel 40 --molden --ceasefiles --namespace data2507/toluene/ADO-TPA/ADO-TPA_toluene_S0_preOpt
      * Solvation model:               GBSA
        Solvent                        toluene
        Solvent mass                       9.2140E+01 g/mol
          :  Hamiltonian                  GFN2-xTB          :
 * total energy  :   -84.9817751 Eh     change       -0.1101967E-08 Eh
 * total energy  :   -84.9926993 Eh     change       -0.1092414E-01 Eh
 * total energy  :   -84.9962639 Eh     change       -0.3564674E-02 Eh
 * total energy  :   -84.9970118 Eh     change       -0.7478496E-03 Eh
 * total energy  :   -84.9974836 Eh     change       -0.4718260E-03 Eh
 * total energy  :   -84.9976905 Eh     change       -0.2069146E-03 Eh
 * total energy  :   -84.9978653 Eh     change       -0.1748244E-03 Eh
 * total energy  :   -84.9980514 Eh     change       -0.1860539E-03 Eh
 * total energy  :   -84.9982304 Eh     change       -0.1790271E-03 Eh
 * total energy  :   -84.9983847 Eh     change       -0.1543023E-03 Eh
 * total energy  :   -85.0004900 Eh     change       -0.3136778E-06 Eh
 * total energy  :   -85.0004902 Eh     change       -0.2693373E-06 Eh
 * total energy  :   -85.0004905 Eh     change       -0.2509593E-06 Eh
 * total energy  :   -85.0004907 Eh     change       -0.2178065E-06 Eh
 * total energy  :   -85.0004909 Eh     change       -0.1978153E-06 Eh
 * total energy  :   -85.0004911 Eh     change       -0.1744474E-06 Eh
 * total energy  :   -85.0004912 Eh     change       -0.1602166E-06 Eh
 * total energy  :   -85.0004914 Eh     change       -0.1465803E-06 Eh
 * total energy  :   -85.0004914 Eh     change       -0.1477730E-08 Eh
   *** GEOMETRY OPTIMIZATION CONVERGED AFTER 94 ITERATIONS ***

 final structure:
================
52
 xtb: 6.7.1 (edcfbbe)
O            8.56128979560371       -0.63103201070614       -0.02439120668870
C            7.43408514650041       -0.18863055896658       -0.04922939483788
C            7.06683600084512        1.31574026990982       -0.25530182872842
O            7.87526776883680        2.20862891012099       -0.40798885959479
C            5.60989159974922        1.37554165696172       -0.21595609470210
C            4.70259670379597        2.40959809489218       -0.31156633608300
C            3.33952725465083        2.11073022230332       -0.23426761508923
C            2.84296164003536        0.82341776677503       -0.07008306249931
C            1.39687373039680        0.60516792114977       -0.05080482992690
C            0.56456937708592        1.42731261288997        0.71276802149892
C           -0.79828473138304        1.23444054139060        0.73644438562755
C           -1.38819317370072        0.22253779538487       -0.02861364752457
N           -2.76334982300610        0.02973779417955       -0.01430670325452
C           -3.30418447366032       -1.25575680230837       -0.17671731624724
C           -2.70846740914421       -2.35791351271254        0.43535753050865
C           -3.25069086678405       -3.61887991020107        0.27490364474428
C           -4.39368832117384       -3.79919489864912       -0.48745551214313
C           -4.99241902754323       -2.70575651019819       -1.09247119467816
C           -4.45317826692755       -1.44201240955332       -0.94404007128932
C           -3.63426806007853        1.11720914050992        0.16021051988800
C           -3.37667712848527        2.33849637932466       -0.46141916325521
C           -4.24140388766308        3.40238845467346       -0.28772905670442
C           -5.37460999319769        3.26431571314597        0.49776485538178
C           -5.63799478789494        2.05028734533980        1.11169211553114
C           -4.77540826218223        0.98280840478506        0.94973781941992
C           -0.55993977804771       -0.58733497150362       -0.81266586669328
C            0.80479480350733       -0.40354009181896       -0.81520025880065
C            3.76257864460508       -0.26027895304757        0.06942255977700
C            3.47028154992374       -1.61690991254387        0.34113823706331
C            4.47706065577856       -2.54771887854931        0.45906632194965
C            5.83450939800587       -2.21100924662440        0.33065911497200
C            6.15607980769314       -0.89388879336993        0.09934111289742
C            5.12236183944326        0.06236285479763       -0.01814906861204
H            5.03443428303771        3.42685407180107       -0.45426327516199
H            2.63200264548831        2.92051901797002       -0.33678072091864
H            1.00181895467895        2.20041679792332        1.32693693042420
H           -1.42083013945550        1.86232226682315        1.35628095345436
H           -1.82501171639185       -2.21715890611970        1.04090905035173
H           -2.78250248173601       -4.46519372748301        0.75611322549462
H           -4.81629520962044       -4.78534323250808       -0.60810443556681
H           -5.88182404872646       -2.83807865537463       -1.69112389945361
H           -4.91713751101270       -0.59124710249666       -1.42159827157226
H           -2.50011903643598        2.44434859152137       -1.08392999893886
H           -4.03326022322839        4.34300765255397       -0.77653757466309
H           -6.04958190657429        4.09667444216634        0.62903091118932
H           -6.51765346041124        1.93524680650414        1.72805194369985
H           -4.97872240200371        0.03887605968946        1.43423988747252
H           -1.00098789008167       -1.35523035488024       -1.43070500417405
H            1.42000204826461       -1.01561757708777       -1.45762784325284
H            2.44407249529838       -1.92237196339248        0.47490498798277
H            4.22022920133155       -3.57565606274406        0.66755153194963
H            6.60255867199119       -2.96323554265338        0.42650144978156

          :  Hamiltonian                  GFN2-xTB          :
         :: gradient norm              0.000034498609 Eh/a0 ::
         :: HOMO-LUMO gap              0.770768697677 eV    ::
         :: SCC energy               -86.501055844639 Eh    ::
         :: -> dispersion             -0.069375353927 Eh    ::
         :: -> Gsolv                  -0.043985313814 Eh    ::
         :: repulsion energy           1.500564471315 Eh    ::

    * Orbital Energies and Occupations

         #    Occupation            Energy/Eh            Energy/eV
      -------------------------------------------------------------
         1        2.0000           -0.7313091             -19.8999
       ...           ...                  ...                  ...
        66        2.0000           -0.4362102             -11.8699
        67        2.0000           -0.4287559             -11.6670
        68        2.0000           -0.4274134             -11.6305
        69        2.0000           -0.4267888             -11.6135
        70        2.0000           -0.4265490             -11.6070
        71        2.0000           -0.4152625             -11.2999
        72        2.0000           -0.4146973             -11.2845
        73        2.0000           -0.4118074             -11.2059
        74        2.0000           -0.4091938             -11.1347
        75        2.0000           -0.4085330             -11.1167
        76        2.0000           -0.3991334             -10.8610
        77        2.0000           -0.3864017             -10.5145
        78        2.0000           -0.3556772              -9.6785 (HOMO)
        79        0.0000           -0.3273520              -8.9077 (LUMO)
        80                         -0.3060161              -8.3271
        81                         -0.2513634              -6.8399
        82                         -0.2413735              -6.5681
        83                         -0.2345635              -6.3828
        84                         -0.2327187              -6.3326
        85                         -0.2274382              -6.1889
        86                         -0.2256311              -6.1397
        87                         -0.2082524              -5.6668
        88                         -0.2031129              -5.5270
        89                         -0.1861773              -5.0661
       ...                                ...                  ...
       151                          0.7398409              20.1321
      -------------------------------------------------------------
                  HL-Gap            0.0283252 Eh            0.7708 eV

     #   Z          covCN         q      C6AA      α(0)
     1   8 O        0.856    -0.363    20.957     6.138
     2   6 C        2.862     0.207    23.611     7.965
     3   6 C        2.861     0.204    23.679     7.976
     4   8 O        0.856    -0.375    21.195     6.173
     5   6 C        3.008    -0.031    28.757     8.797
     6   6 C        2.911    -0.009    28.236     8.713
     7   6 C        2.924    -0.033    28.814     8.803
     8   6 C        2.973     0.025    27.445     8.593
     9   6 C        2.976     0.003    27.956     8.673
    10   6 C        2.923    -0.031    28.775     8.797
    11   6 C        2.920    -0.048    29.188     8.860
    12   6 C        2.922     0.068    26.470     8.437
    13   7 N        2.752    -0.068    22.562     7.055
    14   6 C        2.925     0.064    26.570     8.453
    15   6 C        2.922    -0.046    29.152     8.854
    16   6 C        2.919    -0.029    28.730     8.790
    17   6 C        2.919    -0.037    28.913     8.818
    18   6 C        2.919    -0.029    28.723     8.789
    19   6 C        2.922    -0.046    29.134     8.852
    20   6 C        2.925     0.064    26.569     8.453
    21   6 C        2.922    -0.046    29.150     8.854
    22   6 C        2.919    -0.029    28.729     8.790
    23   6 C        2.919    -0.037    28.913     8.818
    24   6 C        2.919    -0.029    28.725     8.789
    25   6 C        2.922    -0.046    29.135     8.852
    26   6 C        2.920    -0.049    29.206     8.862
    27   6 C        2.922    -0.031    28.775     8.797
    28   6 C        2.976     0.018    27.596     8.617
    29   6 C        2.918    -0.019    28.494     8.754
    30   6 C        2.918    -0.025    28.618     8.773
    31   6 C        2.912    -0.007    28.206     8.709
    32   6 C        3.008    -0.026    28.628     8.777
    33   6 C        3.090     0.010    27.679     8.623
    34   1 H        0.926     0.057     2.234     2.337
    35   1 H        0.926     0.060     2.195     2.317
    36   1 H        0.926     0.043     2.412     2.429
    37   1 H        0.926     0.040     2.452     2.449
    38   1 H        0.926     0.036     2.500     2.473
    39   1 H        0.926     0.037     2.495     2.470
    40   1 H        0.926     0.034     2.529     2.487
    41   1 H        0.926     0.035     2.514     2.479
    42   1 H        0.926     0.034     2.534     2.489
    43   1 H        0.926     0.036     2.506     2.475
    44   1 H        0.926     0.036     2.504     2.474
    45   1 H        0.926     0.034     2.531     2.488
    46   1 H        0.926     0.035     2.511     2.478
    47   1 H        0.926     0.034     2.528     2.486
    48   1 H        0.926     0.040     2.446     2.446
    49   1 H        0.926     0.045     2.388     2.417
    50   1 H        0.926     0.068     2.103     2.268
    51   1 H        0.926     0.062     2.178     2.308
    52   1 H        0.926     0.059     2.210     2.325

molecular dipole:
                 x           y           z       tot (Debye)
 q only:       -4.911      -0.952       0.267
   full:       -4.905      -0.938       0.266      12.712

 projected vibrational frequencies (cm⁻¹)
eigval :       -0.00    -0.00    -0.00     0.00     0.00     0.00
eigval :       19.38    22.10    25.67    45.93    51.32    59.37
eigval :       69.71    74.45    77.45   105.88   122.18   156.81
eigval :      161.39   182.08   188.42   227.94   232.12   272.48
eigval :      292.45   298.89   310.28   329.14   352.30   363.42
eigval :      376.78   377.78   381.40   392.08   399.75   422.68
eigval :      444.47   463.12   470.73   490.69   496.01   521.60
eigval :      538.00   562.39   571.00   583.44   586.31   592.58
eigval :      603.44   616.94   625.48   643.78   660.56   665.31
eigval :      687.05   695.20   735.57   745.92   753.81   756.81
eigval :      761.14   796.53   808.04   817.68   844.46   868.23
eigval :      873.23   874.96   875.16   893.15   895.20   904.00
eigval :      908.96   913.12   914.51   922.76   924.48   927.84
eigval :      928.64   930.40   931.11   940.36   944.84   983.24
eigval :     1004.10  1009.27  1035.73  1051.10  1080.71  1081.94
eigval :     1095.41  1119.30  1121.07  1128.74  1143.15  1176.86
eigval :     1178.24  1181.38  1183.75  1192.44  1194.24  1204.28
eigval :     1214.98  1216.21  1245.59  1267.46  1275.09  1275.32
eigval :     1281.11  1302.06  1312.43  1320.42  1321.38  1323.57
eigval :     1329.54  1349.13  1383.89  1412.52  1422.61  1423.70
eigval :     1433.44  1439.10  1466.58  1468.67  1470.22  1490.95
eigval :     1542.13  1551.38  1571.97  1576.05  1579.83  1586.55
eigval :     1590.05  1593.46  1597.77  1696.81  1726.79  3073.76
eigval :     3074.11  3074.92  3075.22  3081.21  3083.09  3083.34
eigval :     3084.09  3085.57  3086.13  3086.30  3087.04  3092.93
eigval :     3094.68  3094.94  3095.74  3096.37  3097.02  3103.60

   temp. (K)  partition function   enthalpy   heat capacity  entropy
                                   cal/mol     cal/K/mol   cal/K/mol   J/K/mol
 298.15  VIB  0.435E+11            14511.689     93.898     89.115
         ROT  0.309E+08              888.752      2.981     37.252
         INT  0.134E+19            15400.442     96.878    126.367
         TR   0.849E+28             1481.254      4.968     44.014
         TOT                       16881.6956   101.8466   170.3810   712.8742

       T/K    H(0)-H(T)+PV         H(T)/Eh          T*S/Eh         G(T)/Eh
   ------------------------------------------------------------------------
    298.15    0.269027E-01    0.416867E+00    0.809535E-01    0.335913E+00
   ------------------------------------------------------------------------

         :::::::::::::::::::::::::::::::::::::::::::::::::::::
         ::                  THERMODYNAMIC                  ::
         :::::::::::::::::::::::::::::::::::::::::::::::::::::
         :: total free energy         -84.664578377038 Eh   ::
         ::.................................................::
         :: total energy              -85.000491372940 Eh   ::
         :: zero point energy           0.389963820296 Eh   ::
         :: G(RRHO) w/o ZPVE           -0.054050824393 Eh   ::
         :: G(RRHO) contrib.            0.335912995902 Eh   ::
         :::::::::::::::::::::::::::::::::::::::::::::::::::::

           -------------------------------------------------
          | TOTAL ENERGY              -85.000491372940 Eh   |
          | TOTAL ENTHALPY            -84.583624858236 Eh   |
          | TOTAL FREE ENERGY         -84.664578377038 Eh   |
          | GRADIENT NORM               0.000034499466 Eh/α |
          | HOMO-LUMO GAP               0.770769002191 eV   |
           -------------------------------------------------

 * finished run on 2025/07/16 at 22:34:41.828
