   * xtb version 6.7.1 (edcfbbe) compiled by 'albert@albert-system' on 2024-07-22

   ID    Z sym.   atoms
    1    8 O      1, 4
    2    6 C      2, 3, 5-12, 14-33
    3    7 N      13
    4    1 H      34-52

          program call               : xtb data2507/toluene/ADO-TPA/ADO-TPA_toluene_S0_finalOpt.xtbopt.xyz --gfn 2 --uhf 2 --gbsa toluene --ohess vtight --parallel 40 --molden --ceasefiles --namespace data2507/toluene/ADO-TPA/ADO-TPA_toluene_T1_preOpt
      * Solvation model:               GBSA
        Solvent                        toluene
        Solvent mass                       9.2140E+01 g/mol
          :  Hamiltonian                  GFN2-xTB          :
 * total energy  :   -84.9471335 Eh     change       -0.8483880E-10 Eh
 * total energy  :   -84.9498782 Eh     change       -0.2744732E-02 Eh
 * total energy  :   -84.9507254 Eh     change       -0.8472052E-03 Eh
 * total energy  :   -84.9508188 Eh     change       -0.9332922E-04 Eh
 * total energy  :   -84.9508738 Eh     change       -0.5502699E-04 Eh
 * total energy  :   -84.9508810 Eh     change       -0.7221573E-05 Eh
 * total energy  :   -84.9508856 Eh     change       -0.4603823E-05 Eh
 * total energy  :   -84.9508887 Eh     change       -0.3122316E-05 Eh
 * total energy  :   -84.9508939 Eh     change       -0.5192746E-05 Eh
 * total energy  :   -84.9508986 Eh     change       -0.4643493E-05 Eh
 * total energy  :   -84.9509093 Eh     change       -0.2047995E-05 Eh
 * total energy  :   -84.9509108 Eh     change       -0.1495655E-05 Eh
 * total energy  :   -84.9509115 Eh     change       -0.6615690E-06 Eh
 * total energy  :   -84.9509120 Eh     change       -0.5045759E-06 Eh
 * total energy  :   -84.9509125 Eh     change       -0.5712991E-06 Eh
 * total energy  :   -84.9509130 Eh     change       -0.4938760E-06 Eh
 * total energy  :   -84.9509135 Eh     change       -0.4204451E-06 Eh
 * total energy  :   -84.9509140 Eh     change       -0.5369817E-06 Eh
 * total energy  :   -84.9509140 Eh     change       -0.3561567E-08 Eh
   *** GEOMETRY OPTIMIZATION CONVERGED AFTER 22 ITERATIONS ***

 final structure:
================
52
 xtb: 6.7.1 (edcfbbe)
O            7.80710527147187        0.83185238881664        0.10340663480051
C            6.66425659916274        0.35025583455127        0.04515813604761
C            6.33904761974926       -1.08265626524113       -0.19117796869578
O            7.16994206519332       -1.99302033633532       -0.35684730993270
C            4.87890788607565       -1.18737015275416       -0.18136790019300
C            4.00392623874350       -2.23979340172168       -0.32105980488877
C            2.62921419262426       -1.96859554813530       -0.24771639774433
C            2.10024506493935       -0.70226161082643       -0.05441246427044
C            0.64717152525724       -0.51753423724761       -0.04418149573153
C            0.04227238265035        0.48888509840899       -0.80268347518132
C           -1.32493729302585        0.65276505610118       -0.80138999118932
C           -2.13946219337877       -0.18536880160197       -0.03116700777124
N           -3.51990908037785       -0.01698266292862       -0.02055499871210
C           -4.36368654928414       -1.12723733530224        0.09392473965932
C           -5.53515652963267       -1.04600279050352        0.85026691796229
C           -6.36754434464761       -2.14284586309985        0.95669228278922
C           -6.04772160280083       -3.33104979531668        0.31693549598770
C           -4.88581692191578       -3.41602426865488       -0.43551026061731
C           -4.04651083301692       -2.32533559191272       -0.55058092257119
C           -4.07479095750659        1.26281876133219       -0.12685172522412
C           -5.24596387233533        1.46348051036440       -0.86124802304268
C           -5.79487388387097        2.72711030679934       -0.95720972089496
C           -5.18899714460056        3.80494591854824       -0.32900679438654
C           -4.02546096582911        3.61061719531490        0.40026495919118
C           -3.46859202804774        2.35118208490218        0.50525101063891
C           -1.53880784034957       -1.19962835866830        0.72391435407353
C           -0.17200223871057       -1.36382983107141        0.70826219361262
C            2.99212449128599        0.40143105378845        0.11815486731648
C            2.68233086853047        1.75163606758459        0.41323583518912
C            3.68379227709169        2.68001348804675        0.56572367330154
C            5.05099688931776        2.35967811449510        0.45513187599846
C            5.38200963039216        1.05284667771772        0.19426834502733
C            4.35068774288465        0.10304637446861        0.03992908055571
H            4.35493825592770       -3.24705782362927       -0.48639870271865
H            1.94612806322645       -2.79551700467984       -0.38015100634371
H            0.65351506256967        1.11963864121604       -1.42978775047933
H           -1.77768650923744        1.41710108927340       -1.41496910331182
H           -5.77606053054946       -0.12612208827175        1.36178666485091
H           -7.26712073820469       -2.07311854359283        1.54961797693619
H           -6.70073658736257       -4.18593505809860        0.40346093278747
H           -4.63616369680765       -4.33557627737179       -0.94322055863459
H           -3.15139610425855       -2.38615311055182       -1.15145138428575
H           -5.70897131169891        0.62750629653314       -1.36399442041889
H           -6.69661787497107        2.87350072447268       -1.53260188715231
H           -5.62130197803767        4.79071371566347       -0.40736939659659
H           -3.55366193715090        4.44437016598534        0.89827959048940
H           -2.57396753562204        2.19706629779370        1.08990015279204
H           -2.15309262743840       -1.84143494717975        1.33734474124237
H            0.27946350677674       -2.13502980518010        1.31361474355715
H            1.65310976236304        2.05104288077853        0.53701725613164
H            3.42202875061195        3.70416985754601        0.78907270832800
H            5.80674148430456        3.11942463257497        0.58435839305206

          :  Hamiltonian                  GFN2-xTB          :
         :: gradient norm              0.000053651552 Eh/a0 ::
         :: HOMO-LUMO gap              0.521472306404 eV    ::
         :: SCC energy               -86.443220199108 Eh    ::
         :: -> dispersion             -0.069168084771 Eh    ::
         :: -> Gsolv                  -0.060532143117 Eh    ::
         :: repulsion energy           1.492306200536 Eh    ::

    * Orbital Energies and Occupations

         #    Occupation            Energy/Eh            Energy/eV
      -------------------------------------------------------------
         1        2.0000           -0.6983068             -19.0019
       ...           ...                  ...                  ...
        67        2.0000           -0.4349950             -11.8368
        68        2.0000           -0.4324786             -11.7683
        69        2.0000           -0.4256109             -11.5815
        70        2.0000           -0.4253838             -11.5753
        71        2.0000           -0.4241555             -11.5419
        72        2.0000           -0.4209584             -11.4549
        73        2.0000           -0.4204872             -11.4420
        74        2.0000           -0.4186713             -11.3926
        75        2.0000           -0.4165233             -11.3342
        76        2.0000           -0.3943175             -10.7299
        77        1.5980           -0.3691408             -10.0448
        78        1.4020           -0.3683865             -10.0243
        79        1.0000           -0.3133608              -8.5270 (HOMO)
        80        0.0000           -0.2941967              -8.0055 (LUMO)
        81                         -0.2496117              -6.7923
        82                         -0.2480873              -6.7508
        83                         -0.2434746              -6.6253
        84                         -0.2413018              -6.5662
        85                         -0.2379900              -6.4760
        86                         -0.2370463              -6.4504
        87                         -0.2158697              -5.8741
        88                         -0.1887669              -5.1366
        89                         -0.1833625              -4.9895
        90                         -0.1178292              -3.2063
       ...                                ...                  ...
       151                          0.7224064              19.6577
      -------------------------------------------------------------
                  HL-Gap            0.0191640 Eh            0.5215 eV

     #   Z          covCN         q      C6AA      α(0)
     1   8 O        0.856    -0.436    22.414     6.347
     2   6 C        2.878     0.171    24.315     8.084
     3   6 C        2.877     0.169    24.360     8.091
     4   8 O        0.856    -0.440    22.507     6.361
     5   6 C        3.031    -0.017    28.410     8.743
     6   6 C        2.911    -0.019    28.483     8.751
     7   6 C        2.925    -0.032    28.799     8.801
     8   6 C        2.975     0.012    27.742     8.640
     9   6 C        2.976     0.018    27.596     8.617
    10   6 C        2.922    -0.028    28.701     8.785
    11   6 C        2.919    -0.041    29.011     8.833
    12   6 C        2.925     0.064    26.561     8.452
    13   7 N        2.753    -0.025    21.722     6.922
    14   6 C        2.926     0.063    26.589     8.456
    15   6 C        2.921    -0.039    28.980     8.828
    16   6 C        2.918    -0.024    28.611     8.771
    17   6 C        2.919    -0.027    28.685     8.783
    18   6 C        2.918    -0.024    28.611     8.771
    19   6 C        2.921    -0.040    28.989     8.829
    20   6 C        2.926     0.063    26.589     8.456
    21   6 C        2.921    -0.039    28.981     8.828
    22   6 C        2.918    -0.024    28.610     8.771
    23   6 C        2.919    -0.027    28.685     8.783
    24   6 C        2.918    -0.024    28.611     8.771
    25   6 C        2.921    -0.040    28.991     8.830
    26   6 C        2.919    -0.040    28.994     8.830
    27   6 C        2.922    -0.029    28.714     8.787
    28   6 C        2.977     0.016    27.658     8.627
    29   6 C        2.919    -0.030    28.757     8.794
    30   6 C        2.920    -0.027    28.667     8.780
    31   6 C        2.912    -0.017    28.439     8.745
    32   6 C        3.031    -0.016    28.374     8.737
    33   6 C        3.098    -0.010    28.133     8.692
    34   1 H        0.926     0.046     2.366     2.405
    35   1 H        0.926     0.057     2.232     2.336
    36   1 H        0.926     0.053     2.280     2.362
    37   1 H        0.926     0.052     2.295     2.369
    38   1 H        0.926     0.047     2.359     2.402
    39   1 H        0.926     0.047     2.359     2.402
    40   1 H        0.926     0.045     2.382     2.413
    41   1 H        0.926     0.047     2.364     2.404
    42   1 H        0.926     0.047     2.358     2.401
    43   1 H        0.926     0.047     2.363     2.404
    44   1 H        0.926     0.047     2.361     2.403
    45   1 H        0.926     0.045     2.382     2.413
    46   1 H        0.926     0.047     2.359     2.402
    47   1 H        0.926     0.047     2.355     2.400
    48   1 H        0.926     0.052     2.297     2.370
    49   1 H        0.926     0.051     2.306     2.375
    50   1 H        0.926     0.062     2.174     2.306
    51   1 H        0.926     0.056     2.252     2.347
    52   1 H        0.926     0.046     2.372     2.409

molecular dipole:
                 x           y           z       tot (Debye)
 q only:      -10.397       0.943       0.218
   full:      -10.254       0.919       0.216      26.173

 projected vibrational frequencies (cm⁻¹)
eigval :       -0.00    -0.00    -0.00     0.00     0.00     0.00
eigval :       14.73    21.33    24.40    41.29    50.00    64.65
eigval :       70.82    74.32    90.25   106.47   131.73   149.54
eigval :      160.63   188.53   192.97   230.99   232.31   265.57
eigval :      296.12   303.03   313.82   333.54   354.33   364.01
eigval :      376.21   378.51   387.95   394.51   403.23   416.90
eigval :      438.56   453.27   465.39   487.10   503.62   522.81
eigval :      537.14   560.52   565.21   582.17   584.13   591.67
eigval :      603.43   614.81   618.48   631.74   656.28   658.72
eigval :      661.11   684.90   692.74   718.60   739.16   757.03
eigval :      760.06   792.66   794.69   816.47   834.48   857.20
eigval :      863.95   869.86   871.04   887.72   898.73   899.08
eigval :      906.17   908.83   914.14   917.43   921.02   928.93
eigval :      929.38   929.88   930.45   935.37   955.36   980.31
eigval :     1000.51  1001.41  1012.04  1037.26  1078.54  1079.43
eigval :     1085.32  1115.80  1119.69  1121.62  1139.92  1174.89
eigval :     1176.18  1176.89  1177.89  1186.25  1187.84  1189.78
eigval :     1200.15  1213.46  1216.07  1262.62  1269.37  1271.28
eigval :     1277.32  1292.93  1305.14  1309.01  1314.57  1322.58
eigval :     1323.26  1340.58  1364.00  1393.63  1408.99  1429.30
eigval :     1433.16  1435.78  1451.47  1452.59  1455.73  1473.59
eigval :     1503.60  1531.91  1537.15  1558.88  1564.10  1567.29
eigval :     1573.60  1577.23  1580.38  1590.78  1620.38  3078.24
eigval :     3078.52  3082.59  3083.13  3083.77  3084.27  3087.48
eigval :     3088.98  3090.84  3091.78  3092.76  3093.68  3094.32
eigval :     3095.18  3098.38  3098.59  3101.04  3101.64  3102.08

   temp. (K)  partition function   enthalpy   heat capacity  entropy
                                   cal/mol     cal/K/mol   cal/K/mol   J/K/mol
 298.15  VIB  0.543E+11            14556.740     94.575     89.221
         ROT  0.308E+08              888.752      2.981     37.246
         INT  0.167E+19            15445.492     97.556    126.468
         TR   0.849E+28             1481.254      4.968     44.014
         TOT                       16926.7461   102.5238   170.4820   713.2965

       T/K    H(0)-H(T)+PV         H(T)/Eh          T*S/Eh         G(T)/Eh
   ------------------------------------------------------------------------
    298.15    0.269745E-01    0.414889E+00    0.810015E-01    0.333888E+00
   ------------------------------------------------------------------------

         :::::::::::::::::::::::::::::::::::::::::::::::::::::
         ::                  THERMODYNAMIC                  ::
         :::::::::::::::::::::::::::::::::::::::::::::::::::::
         :: total free energy         -84.617026246939 Eh   ::
         ::.................................................::
         :: total energy              -84.950914001044 Eh   ::
         :: zero point energy           0.387914744462 Eh   ::
         :: G(RRHO) w/o ZPVE           -0.054026990357 Eh   ::
         :: G(RRHO) contrib.            0.333887754106 Eh   ::
         :::::::::::::::::::::::::::::::::::::::::::::::::::::

           -------------------------------------------------
          | TOTAL ENERGY              -84.950914001044 Eh   |
          | TOTAL ENTHALPY            -84.536024769674 Eh   |
          | TOTAL FREE ENERGY         -84.617026246939 Eh   |
          | GRADIENT NORM               0.000056673410 Eh/α |
          | HOMO-LUMO GAP               0.521479723732 eV   |
           -------------------------------------------------

 * finished run on 2025/07/16 at 22:36:45.972
