   * xtb version 6.7.1 (edcfbbe) compiled by 'albert@albert-system' on 2024-07-22

   ID    Z sym.   atoms
    1    8 O      1, 4
    2    6 C      2, 3, 5-12, 14-33
    3    7 N      13
    4    1 H      34-52

          program call               : xtb data2507/toluene/ADO-TPA/ADO-TPA_toluene_T1_crest.xyz --gfn 2 --uhf 2 --gbsa toluene --ohess vtight --parallel 40 --molden --ceasefiles --namespace data2507/toluene/ADO-TPA/ADO-TPA_toluene_T1_finalOpt
      * Solvation model:               GBSA
        Solvent                        toluene
        Solvent mass                       9.2140E+01 g/mol
          :  Hamiltonian                  GFN2-xTB          :
 * total energy  :   -84.9505409 Eh     change       -0.1159606E-09 Eh
 * total energy  :   -84.9508331 Eh     change       -0.2922560E-03 Eh
 * total energy  :   -84.9509065 Eh     change       -0.7340732E-04 Eh
 * total energy  :   -84.9509171 Eh     change       -0.1058572E-04 Eh
 * total energy  :   -84.9509213 Eh     change       -0.4168350E-05 Eh
 * total energy  :   -84.9509224 Eh     change       -0.1081705E-05 Eh
 * total energy  :   -84.9509228 Eh     change       -0.4100546E-06 Eh
 * total energy  :   -84.9509231 Eh     change       -0.3005212E-06 Eh
 * total energy  :   -84.9509234 Eh     change       -0.3318221E-06 Eh
 * total energy  :   -84.9509236 Eh     change       -0.2227695E-06 Eh
 * total energy  :   -84.9509237 Eh     change       -0.3212173E-07 Eh
   *** GEOMETRY OPTIMIZATION CONVERGED AFTER 11 ITERATIONS ***

 final structure:
================
52
 xtb: 6.7.1 (edcfbbe)
O            7.80909130821485        0.83774443145142        0.05661954396297
C            6.66589883724084        0.35550055115006        0.01389208513022
C            6.33911201748650       -1.08139734367518       -0.19462346807279
O            7.16901759377634       -1.99484272256954       -0.34799078867762
C            4.87922142001686       -1.18528127700986       -0.17595773720224
C            4.00324323415847       -2.23957477231996       -0.29413385249419
C            2.62909665435475       -1.96645237644833       -0.22049688151100
C            2.10092839612538       -0.69689620126320       -0.04578685973982
C            0.64795117360128       -0.51273816152463       -0.03657974471854
C            0.04215560735553        0.48852647987341       -0.80133373783349
C           -1.32522052565580        0.65130342493639       -0.80089766416497
C           -2.13892315936850       -0.18464381600018       -0.02781380434570
N           -3.52020010068658       -0.01757672109735       -0.01845272573491
C           -4.36102526565902       -1.13107136795662        0.08168423335177
C           -5.53697321161608       -1.06178163631128        0.83231460080164
C           -6.36588205717152       -2.16266257468416        0.92301693376479
C           -6.03805167934159       -3.34337065342923        0.27347637268446
C           -4.87110693568674       -3.41688600806783       -0.47236253563142
C           -4.03536392816212       -2.32201389938452       -0.57199056936922
C           -4.07374557962334        1.26341825990685       -0.10980626719672
C           -5.24940053495375        1.47409668126532       -0.83431262659404
C           -5.79573807724400        2.73993953878319       -0.91434805093532
C           -5.18282533693626        3.81043682870825       -0.28040087510956
C           -4.01448173103994        3.60638668476682        0.43847423738370
C           -3.46049520499208        2.34461162199033        0.52813457718304
C           -1.53807431267732       -1.19500997037887        0.73189964560901
C           -0.17088843583463       -1.35626047988077        0.71959199274209
C            2.99408484331270        0.40898137108141        0.10621977861857
C            2.68659406860135        1.76377083782291        0.38222769671238
C            3.68915240196989        2.69427028900056        0.51342472103718
C            5.05557652704769        2.37189910057977        0.39954165261956
C            5.38466258890127        1.06079370793939        0.15858780868797
C            4.35221339711670        0.10886145845926        0.02611831386070
H            4.35317824096161       -3.24963466001530       -0.44392257617554
H            1.94541326067358       -2.79511941244818       -0.33788169127228
H            0.65274649158559        1.11588143651057       -1.43244242871902
H           -1.77893721332294        1.41261057562865       -1.41757356640061
H           -5.78407831775290       -0.14815881623617        1.35200622451138
H           -7.26900745958210       -2.10217533450731        1.51155388265344
H           -6.68850086333152       -4.20138080549717        0.34753864781474
H           -4.61499483431536       -4.33051720711419       -0.98750099381640
H           -3.13638741698260       -2.37386881926622       -1.16791396735494
H           -5.71794814124807        0.64437273576437       -1.34224634875129
H           -6.70102557781609        2.89405194950825       -1.48210289347065
H           -5.61315617549053        4.79796028074127       -0.34643499182955
H           -3.53702777570909        4.43413024149751        0.94110349252219
H           -2.56246277760800        2.18287999658340        1.10542788011534
H           -2.15264441359993       -1.83548530113661        1.34648852186888
H            0.28095028846275       -2.12297218235447        1.33029552775938
H            1.65840958898520        2.06559386385581        0.50856226932086
H            3.42891398385300        3.72193831028237        0.72194592826396
H            5.81228598030618        3.13342957988956        0.51144372964153

          :  Hamiltonian                  GFN2-xTB          :
         :: gradient norm              0.000111143591 Eh/a0 ::
         :: HOMO-LUMO gap              0.519074888795 eV    ::
         :: SCC energy               -86.443219016050 Eh    ::
         :: -> dispersion             -0.069169435201 Eh    ::
         :: -> Gsolv                  -0.060529455521 Eh    ::
         :: repulsion energy           1.492295352428 Eh    ::

    * Orbital Energies and Occupations

         #    Occupation            Energy/Eh            Energy/eV
      -------------------------------------------------------------
         1        2.0000           -0.6983345             -19.0026
       ...           ...                  ...                  ...
        67        2.0000           -0.4350068             -11.8371
        68        2.0000           -0.4324625             -11.7679
        69        2.0000           -0.4256177             -11.5816
        70        2.0000           -0.4254200             -11.5763
        71        2.0000           -0.4240836             -11.5399
        72        2.0000           -0.4209512             -11.4547
        73        2.0000           -0.4204748             -11.4417
        74        2.0000           -0.4187042             -11.3935
        75        2.0000           -0.4165310             -11.3344
        76        2.0000           -0.3942549             -10.7282
        77        1.5991           -0.3691445             -10.0449
        78        1.4009           -0.3683813             -10.0242
        79        1.0000           -0.3133773              -8.5274 (HOMO)
        80        0.0000           -0.2943014              -8.0083 (LUMO)
        81                         -0.2496383              -6.7930
        82                         -0.2480519              -6.7498
        83                         -0.2434847              -6.6256
        84                         -0.2413062              -6.5663
        85                         -0.2379879              -6.4760
        86                         -0.2370061              -6.4493
        87                         -0.2158506              -5.8736
        88                         -0.1887878              -5.1372
        89                         -0.1832858              -4.9875
        90                         -0.1178494              -3.2068
       ...                                ...                  ...
       151                          0.7223237              19.6554
      -------------------------------------------------------------
                  HL-Gap            0.0190759 Eh            0.5191 eV

     #   Z          covCN         q      C6AA      α(0)
     1   8 O        0.856    -0.436    22.412     6.347
     2   6 C        2.878     0.171    24.314     8.083
     3   6 C        2.877     0.169    24.361     8.091
     4   8 O        0.856    -0.441    22.509     6.361
     5   6 C        3.031    -0.017    28.410     8.743
     6   6 C        2.911    -0.019    28.484     8.752
     7   6 C        2.926    -0.032    28.800     8.801
     8   6 C        2.975     0.012    27.744     8.640
     9   6 C        2.976     0.018    27.595     8.617
    10   6 C        2.922    -0.028    28.702     8.786
    11   6 C        2.919    -0.040    29.006     8.832
    12   6 C        2.925     0.064    26.564     8.452
    13   7 N        2.753    -0.025    21.723     6.922
    14   6 C        2.926     0.063    26.588     8.456
    15   6 C        2.921    -0.040    28.982     8.828
    16   6 C        2.918    -0.024    28.611     8.771
    17   6 C        2.919    -0.027    28.685     8.783
    18   6 C        2.918    -0.024    28.611     8.771
    19   6 C        2.921    -0.040    28.990     8.830
    20   6 C        2.926     0.063    26.587     8.456
    21   6 C        2.921    -0.040    28.984     8.829
    22   6 C        2.918    -0.024    28.610     8.771
    23   6 C        2.919    -0.027    28.686     8.783
    24   6 C        2.918    -0.024    28.611     8.771
    25   6 C        2.921    -0.040    28.994     8.830
    26   6 C        2.919    -0.040    28.989     8.829
    27   6 C        2.922    -0.029    28.715     8.788
    28   6 C        2.977     0.016    27.658     8.627
    29   6 C        2.919    -0.030    28.757     8.794
    30   6 C        2.920    -0.027    28.667     8.780
    31   6 C        2.912    -0.017    28.438     8.745
    32   6 C        3.031    -0.016    28.374     8.737
    33   6 C        3.098    -0.010    28.134     8.693
    34   1 H        0.926     0.046     2.366     2.405
    35   1 H        0.926     0.057     2.231     2.336
    36   1 H        0.926     0.053     2.278     2.360
    37   1 H        0.926     0.052     2.295     2.369
    38   1 H        0.926     0.047     2.358     2.401
    39   1 H        0.926     0.047     2.359     2.402
    40   1 H        0.926     0.045     2.382     2.414
    41   1 H        0.926     0.046     2.364     2.404
    42   1 H        0.926     0.047     2.360     2.402
    43   1 H        0.926     0.047     2.362     2.403
    44   1 H        0.926     0.047     2.362     2.403
    45   1 H        0.926     0.045     2.382     2.414
    46   1 H        0.926     0.047     2.360     2.402
    47   1 H        0.926     0.047     2.357     2.401
    48   1 H        0.926     0.052     2.298     2.370
    49   1 H        0.926     0.051     2.304     2.374
    50   1 H        0.926     0.062     2.172     2.305
    51   1 H        0.926     0.056     2.251     2.346
    52   1 H        0.926     0.046     2.372     2.408

molecular dipole:
                 x           y           z       tot (Debye)
 q only:      -10.387       0.944       0.237
   full:      -10.244       0.920       0.235      26.150

 projected vibrational frequencies (cm⁻¹)
eigval :       -0.00    -0.00     0.00     0.00     0.00     0.00
eigval :        9.82    19.31    23.75    39.64    49.66    64.46
eigval :       69.83    74.17    88.98   105.86   131.28   147.18
eigval :      160.74   189.03   193.03   230.45   231.97   265.67
eigval :      296.01   302.93   313.76   333.22   354.05   364.30
eigval :      375.39   378.68   387.72   394.19   402.84   416.40
eigval :      438.43   453.33   464.95   486.92   503.67   522.82
eigval :      537.01   560.46   564.37   582.12   584.19   591.70
eigval :      603.07   614.81   617.86   630.45   654.43   657.86
eigval :      660.97   684.97   692.88   717.25   739.22   756.85
eigval :      760.12   791.95   794.45   815.97   833.78   857.06
eigval :      863.95   867.91   871.10   888.46   897.70   899.32
eigval :      905.08   908.82   913.89   915.97   921.78   927.82
eigval :      929.36   929.99   931.02   935.55   955.10   980.14
eigval :     1000.29  1001.32  1011.93  1037.14  1078.71  1079.51
eigval :     1085.87  1115.83  1119.75  1121.86  1139.61  1175.03
eigval :     1176.62  1177.45  1177.78  1185.95  1187.71  1189.71
eigval :     1199.21  1213.32  1215.92  1262.59  1268.74  1271.56
eigval :     1277.14  1293.57  1304.73  1308.84  1314.51  1322.57
eigval :     1323.44  1340.60  1363.64  1393.27  1408.88  1429.38
eigval :     1432.76  1436.07  1451.26  1452.77  1455.80  1473.29
eigval :     1503.61  1532.09  1536.99  1558.42  1564.01  1567.20
eigval :     1573.47  1577.30  1580.33  1590.76  1620.26  3078.03
eigval :     3078.27  3082.74  3083.08  3083.67  3084.20  3087.37
eigval :     3088.81  3091.23  3092.00  3092.91  3093.74  3094.37
eigval :     3095.35  3098.52  3098.69  3101.26  3101.91  3102.24

   temp. (K)  partition function   enthalpy   heat capacity  entropy
                                   cal/mol     cal/K/mol   cal/K/mol   J/K/mol
 298.15  VIB  0.996E+11            14582.424     94.533     89.829
         ROT  0.308E+08              888.752      2.981     37.246
         INT  0.307E+19            15471.177     97.514    127.076
         TR   0.849E+28             1481.254      4.968     44.014
         TOT                       16952.4307   102.4818   171.0902   715.8413

       T/K    H(0)-H(T)+PV         H(T)/Eh          T*S/Eh         G(T)/Eh
   ------------------------------------------------------------------------
    298.15    0.270154E-01    0.414851E+00    0.812905E-01    0.333560E+00
   ------------------------------------------------------------------------

         :::::::::::::::::::::::::::::::::::::::::::::::::::::
         ::                  THERMODYNAMIC                  ::
         :::::::::::::::::::::::::::::::::::::::::::::::::::::
         :: total free energy         -84.617363614301 Eh   ::
         ::.................................................::
         :: total energy              -84.950923666640 Eh   ::
         :: zero point energy           0.387835093885 Eh   ::
         :: G(RRHO) w/o ZPVE           -0.054275041547 Eh   ::
         :: G(RRHO) contrib.            0.333560052339 Eh   ::
         :::::::::::::::::::::::::::::::::::::::::::::::::::::

           -------------------------------------------------
          | TOTAL ENERGY              -84.950923666640 Eh   |
          | TOTAL ENTHALPY            -84.536073154861 Eh   |
          | TOTAL FREE ENERGY         -84.617363614301 Eh   |
          | GRADIENT NORM               0.000108870544 Eh/α |
          | HOMO-LUMO GAP               0.519082194276 eV   |
           -------------------------------------------------

 * finished run on 2025/07/16 at 22:39:53.511
