   * xtb version 6.7.1 (edcfbbe) compiled by 'albert@albert-system' on 2024-07-22

   ID    Z sym.   atoms
    1    8 O      1, 4
    2    6 C      2, 3, 5-12, 14-33
    3    7 N      13
    4    1 H      34-52

          program call               : xtb data2507/toluene/ADO-TPA/ADO-TPA_toluene_S0_crest.xyz --gfn 2 --gbsa toluene --ohess vtight --parallel 40 --molden --ceasefiles --namespace data2507/toluene/ADO-TPA/ADO-TPA_toluene_S0_finalOpt
      * Solvation model:               GBSA
        Solvent                        toluene
        Solvent mass                       9.2140E+01 g/mol
          :  Hamiltonian                  GFN2-xTB          :
 * total energy  :   -85.0003164 Eh     change       -0.6622543E-09 Eh
 * total energy  :   -85.0004346 Eh     change       -0.1182539E-03 Eh
 * total energy  :   -85.0004627 Eh     change       -0.2812474E-04 Eh
 * total energy  :   -85.0004669 Eh     change       -0.4166443E-05 Eh
 * total energy  :   -85.0004697 Eh     change       -0.2830056E-05 Eh
 * total energy  :   -85.0004735 Eh     change       -0.3789913E-05 Eh
 * total energy  :   -85.0004769 Eh     change       -0.3397806E-05 Eh
 * total energy  :   -85.0004793 Eh     change       -0.2394642E-05 Eh
 * total energy  :   -85.0004804 Eh     change       -0.1124362E-05 Eh
 * total energy  :   -85.0004810 Eh     change       -0.5964504E-06 Eh
 * total energy  :   -85.0004825 Eh     change       -0.2882655E-06 Eh
 * total energy  :   -85.0004828 Eh     change       -0.2712589E-06 Eh
 * total energy  :   -85.0004830 Eh     change       -0.2340093E-06 Eh
 * total energy  :   -85.0004832 Eh     change       -0.1982258E-06 Eh
 * total energy  :   -85.0004834 Eh     change       -0.2060002E-06 Eh
 * total energy  :   -85.0004837 Eh     change       -0.2478518E-06 Eh
 * total energy  :   -85.0004839 Eh     change       -0.2689985E-06 Eh
 * total energy  :   -85.0004841 Eh     change       -0.2066158E-06 Eh
 * total energy  :   -85.0004841 Eh     change       -0.2662702E-08 Eh
   *** GEOMETRY OPTIMIZATION CONVERGED AFTER 22 ITERATIONS ***

 final structure:
================
52
 xtb: 6.7.1 (edcfbbe)
O            7.80065022378613        0.85424173061722        0.10449822468818
C            6.68245746237497        0.39222875127928        0.04858796354647
C            6.34655391032660       -1.11006813001891       -0.21683486778041
O            7.17367373313089       -1.98141548546132       -0.39228693644548
C            4.89072311155600       -1.19854715114772       -0.19782190431868
C            4.00480402861861       -2.24529553803150       -0.34272667707319
C            2.63547828483515       -1.97537265069383       -0.27066018279092
C            2.11210903415482       -0.70474987539130       -0.06460081760937
C            0.66183406963914       -0.51583617738323       -0.05123490692397
C            0.05589813368445        0.51062505517614       -0.78037094074065
C           -1.31209601439530        0.66829071195693       -0.78185167224778
C           -2.13057432493334       -0.18665114882519       -0.03626221393504
N           -3.50908403004470       -0.01880128794224       -0.02369825401639
C           -4.36132748913643       -1.12735605864049        0.10397418107067
C           -5.51017340609156       -1.04297219803319        0.88930102727809
C           -6.35406231180282       -2.13116228018685        1.00555101761960
C           -6.06363458402770       -3.31710506234494        0.35038811321116
C           -4.92283381972982       -3.40546606052237       -0.43124359086311
C           -4.07703741740287       -2.32018620166737       -0.55988938357637
C           -4.07140154768688        1.26258036496704       -0.13880894621373
C           -5.22150744072661        1.45876204711126       -0.90203795204834
C           -5.78167389438158        2.71805215422198       -1.00369041674884
C           -5.20298696790020        3.79765018683779       -0.35583087873071
C           -4.05895388838581        3.60758756574329        0.40257540912439
C           -3.49602115155189        2.35063075973737        0.51652478929246
C           -1.52695023206130       -1.21746172949211        0.69197679489948
C           -0.16055466108950       -1.38374886724475        0.67147437244369
C            3.00893506219488        0.39049416142749        0.12476710543103
C            2.68771593630087        1.73081728135901        0.44127620063561
C            3.67496250447364        2.67553816384298        0.60449323483998
C            5.03999420476341        2.36938107525075        0.48028990489626
C            5.38943146955207        1.06771269186957        0.20591747558424
C            4.37566133913872        0.09709183344561        0.04155827735219
H            4.35796894612529       -3.25006640120621       -0.51873810364737
H            1.94496661890199       -2.79407261066738       -0.41113652184196
H            0.66354729558750        1.15891694463333       -1.39373346344704
H           -1.76298470312030        1.45130727466594       -1.37325001395985
H           -5.73441288556800       -0.12139544897231        1.40641524376433
H           -7.24006438261905       -2.05469182410279        1.61882773754453
H           -6.72348129523648       -4.16621348536255        0.44636003569048
H           -4.69360930364046       -4.32372596272626       -0.95203199351027
H           -3.19452861936881       -2.38751055962455       -1.17931269042101
H           -5.67004006663774        0.61931891070530       -1.41317316871362
H           -6.67190249791310        2.85803554384020       -1.59937987352573
H           -5.64202961184433        4.78038397252001       -0.44016799977791
H           -3.60612907047624        4.44252406318502        0.91716152989380
H           -2.61188853564815        2.20206123438844        1.11920359443508
H           -2.14170011617429       -1.88115256937243        1.28155716342816
H            0.28654615118514       -2.17256501895765        1.25795673532982
H            1.65449631145305        2.01222042528604        0.57377952770926
H            3.39604761257291        3.69035608987114        0.84621048423989
H            5.79211239423927        3.13219364108015        0.61208152035863

          :  Hamiltonian                  GFN2-xTB          :
         :: gradient norm              0.000052889837 Eh/a0 ::
         :: HOMO-LUMO gap              0.771042996508 eV    ::
         :: SCC energy               -86.501009767001 Eh    ::
         :: -> dispersion             -0.069379364616 Eh    ::
         :: -> Gsolv                  -0.043982099066 Eh    ::
         :: repulsion energy           1.500525630819 Eh    ::

    * Orbital Energies and Occupations

         #    Occupation            Energy/Eh            Energy/eV
      -------------------------------------------------------------
         1        2.0000           -0.7312987             -19.8997
       ...           ...                  ...                  ...
        66        2.0000           -0.4362070             -11.8698
        67        2.0000           -0.4287391             -11.6666
        68        2.0000           -0.4274130             -11.6305
        69        2.0000           -0.4267797             -11.6133
        70        2.0000           -0.4265738             -11.6077
        71        2.0000           -0.4152724             -11.3001
        72        2.0000           -0.4147258             -11.2853
        73        2.0000           -0.4117985             -11.2056
        74        2.0000           -0.4091897             -11.1346
        75        2.0000           -0.4085173             -11.1163
        76        2.0000           -0.3991153             -10.8605
        77        2.0000           -0.3863876             -10.5141
        78        2.0000           -0.3556805              -9.6786 (HOMO)
        79        0.0000           -0.3273452              -8.9075 (LUMO)
        80                         -0.3060123              -8.3270
        81                         -0.2513508              -6.8396
        82                         -0.2414198              -6.5694
        83                         -0.2345696              -6.3830
        84                         -0.2327320              -6.3330
        85                         -0.2274293              -6.1887
        86                         -0.2256212              -6.1395
        87                         -0.2082243              -5.6661
        88                         -0.2030913              -5.5264
        89                         -0.1861052              -5.0642
       ...                                ...                  ...
       151                          0.7398587              20.1326
      -------------------------------------------------------------
                  HL-Gap            0.0283353 Eh            0.7710 eV

     #   Z          covCN         q      C6AA      α(0)
     1   8 O        0.856    -0.363    20.957     6.138
     2   6 C        2.862     0.207    23.611     7.965
     3   6 C        2.861     0.204    23.680     7.976
     4   8 O        0.856    -0.375    21.197     6.173
     5   6 C        3.008    -0.031    28.757     8.797
     6   6 C        2.911    -0.009    28.236     8.713
     7   6 C        2.924    -0.033    28.814     8.803
     8   6 C        2.973     0.025    27.445     8.593
     9   6 C        2.976     0.003    27.956     8.673
    10   6 C        2.922    -0.031    28.776     8.797
    11   6 C        2.920    -0.049    29.206     8.862
    12   6 C        2.922     0.068    26.470     8.437
    13   7 N        2.752    -0.068    22.558     7.054
    14   6 C        2.925     0.064    26.569     8.453
    15   6 C        2.922    -0.046    29.136     8.852
    16   6 C        2.919    -0.029    28.725     8.789
    17   6 C        2.919    -0.037    28.913     8.818
    18   6 C        2.919    -0.029    28.730     8.790
    19   6 C        2.922    -0.046    29.150     8.854
    20   6 C        2.925     0.064    26.570     8.453
    21   6 C        2.922    -0.046    29.135     8.852
    22   6 C        2.919    -0.029    28.723     8.789
    23   6 C        2.919    -0.037    28.913     8.818
    24   6 C        2.919    -0.029    28.730     8.790
    25   6 C        2.922    -0.046    29.153     8.854
    26   6 C        2.920    -0.048    29.188     8.860
    27   6 C        2.923    -0.031    28.775     8.797
    28   6 C        2.976     0.018    27.596     8.617
    29   6 C        2.918    -0.020    28.495     8.754
    30   6 C        2.918    -0.025    28.619     8.773
    31   6 C        2.912    -0.007    28.206     8.709
    32   6 C        3.008    -0.026    28.628     8.777
    33   6 C        3.090     0.010    27.679     8.623
    34   1 H        0.926     0.057     2.234     2.337
    35   1 H        0.926     0.060     2.195     2.317
    36   1 H        0.926     0.045     2.387     2.416
    37   1 H        0.926     0.040     2.446     2.445
    38   1 H        0.926     0.034     2.527     2.486
    39   1 H        0.926     0.035     2.511     2.478
    40   1 H        0.926     0.034     2.531     2.488
    41   1 H        0.926     0.036     2.504     2.474
    42   1 H        0.926     0.036     2.505     2.475
    43   1 H        0.926     0.034     2.533     2.489
    44   1 H        0.926     0.035     2.514     2.479
    45   1 H        0.926     0.034     2.530     2.487
    46   1 H        0.926     0.037     2.495     2.470
    47   1 H        0.926     0.036     2.500     2.473
    48   1 H        0.926     0.040     2.452     2.449
    49   1 H        0.926     0.043     2.412     2.428
    50   1 H        0.926     0.068     2.103     2.268
    51   1 H        0.926     0.062     2.178     2.308
    52   1 H        0.926     0.059     2.210     2.325

molecular dipole:
                 x           y           z       tot (Debye)
 q only:       -4.934       0.849       0.246
   full:       -4.928       0.836       0.245      12.719

 projected vibrational frequencies (cm⁻¹)
eigval :       -0.00    -0.00    -0.00     0.00     0.00     0.00
eigval :       12.75    20.38    26.38    45.11    49.21    60.28
eigval :       66.67    74.16    76.24   104.28   122.60   157.25
eigval :      161.06   182.96   188.17   228.34   233.28   272.12
eigval :      291.83   299.08   310.32   328.63   351.93   363.34
eigval :      376.43   378.15   381.90   391.08   399.39   423.66
eigval :      444.20   463.13   470.71   490.67   496.55   520.86
eigval :      537.74   562.31   570.83   583.36   586.24   592.40
eigval :      602.91   616.81   625.28   643.15   660.86   665.65
eigval :      685.58   694.93   733.82   745.75   749.69   756.89
eigval :      760.81   796.51   807.66   818.34   845.62   869.05
eigval :      873.23   874.31   875.30   893.34   894.31   903.91
eigval :      909.04   912.91   915.97   924.67   926.43   927.08
eigval :      929.55   929.98   930.15   941.20   944.38   983.12
eigval :     1004.04  1009.01  1035.48  1051.04  1080.40  1081.50
eigval :     1094.69  1118.72  1120.50  1128.00  1142.36  1175.42
eigval :     1177.80  1180.96  1183.39  1192.02  1193.77  1204.21
eigval :     1214.72  1216.29  1245.67  1266.93  1274.43  1275.28
eigval :     1280.88  1301.95  1312.30  1320.26  1321.18  1323.53
eigval :     1329.32  1348.87  1383.89  1412.48  1422.37  1423.72
eigval :     1433.33  1438.93  1466.52  1468.70  1470.01  1490.71
eigval :     1541.83  1551.23  1571.89  1575.92  1579.71  1586.49
eigval :     1590.12  1593.37  1597.78  1696.74  1726.46  3073.56
eigval :     3073.83  3074.51  3075.02  3080.77  3082.25  3083.20
eigval :     3083.80  3085.84  3086.15  3086.23  3086.82  3092.37
eigval :     3094.36  3094.64  3095.36  3096.56  3096.91  3103.22

   temp. (K)  partition function   enthalpy   heat capacity  entropy
                                   cal/mol     cal/K/mol   cal/K/mol   J/K/mol
 298.15  VIB  0.758E+11            14533.747     93.812     89.636
         ROT  0.309E+08              888.752      2.981     37.252
         INT  0.234E+19            15422.499     96.793    126.888
         TR   0.849E+28             1481.254      4.968     44.014
         TOT                       16903.7529   101.7615   170.9023   715.0554

       T/K    H(0)-H(T)+PV         H(T)/Eh          T*S/Eh         G(T)/Eh
   ------------------------------------------------------------------------
    298.15    0.269378E-01    0.416816E+00    0.812012E-01    0.335615E+00
   ------------------------------------------------------------------------

         :::::::::::::::::::::::::::::::::::::::::::::::::::::
         ::                  THERMODYNAMIC                  ::
         :::::::::::::::::::::::::::::::::::::::::::::::::::::
         :: total free energy         -84.664869462737 Eh   ::
         ::.................................................::
         :: total energy              -85.000484139461 Eh   ::
         :: zero point energy           0.389878052219 Eh   ::
         :: G(RRHO) w/o ZPVE           -0.054263375495 Eh   ::
         :: G(RRHO) contrib.            0.335614676724 Eh   ::
         :::::::::::::::::::::::::::::::::::::::::::::::::::::

           -------------------------------------------------
          | TOTAL ENERGY              -85.000484139461 Eh   |
          | TOTAL ENTHALPY            -84.583668242255 Eh   |
          | TOTAL FREE ENERGY         -84.664869462737 Eh   |
          | GRADIENT NORM               0.000052873618 Eh/α |
          | HOMO-LUMO GAP               0.771042694698 eV   |
           -------------------------------------------------

 * finished run on 2025/07/16 at 22:36:43.337
