   * xtb version 6.7.1 (edcfbbe) compiled by 'albert@albert-system' on 2024-07-22

   ID    Z sym.   atoms
    1    6 C      1, 3-14, 16-22, 24, 25, 27-30, 32, 33
    2    8 O      2
    3    7 N      15, 23, 26, 31
    4    1 H      34-53

          program call               : xtb data2507/gas/Me-MOC/Me-MOC_gas_S0_finalOpt.xtbopt.xyz --gfn 2 --spinpol --tblite --uhf 2 --ohess vtight --parallel 40 --molden --ceasefiles --namespace data2507/gas/Me-MOC/Me-MOC_gas_T1_preOpt
 * total energy  :   -85.8001545 Eh     change       -0.7138723E-08 Eh
 * total energy  :   -85.8036944 Eh     change       -0.3539919E-02 Eh
 * total energy  :   -85.8048407 Eh     change       -0.1146294E-02 Eh
 * total energy  :   -85.8054467 Eh     change       -0.6060453E-03 Eh
 * total energy  :   -85.8060404 Eh     change       -0.5936304E-03 Eh
 * total energy  :   -85.8063314 Eh     change       -0.2910245E-03 Eh
 * total energy  :   -85.8065738 Eh     change       -0.2423945E-03 Eh
 * total energy  :   -85.8066637 Eh     change       -0.8995347E-04 Eh
 * total energy  :   -85.8068215 Eh     change       -0.1578012E-03 Eh
 * total energy  :   -85.8069204 Eh     change       -0.9884764E-04 Eh
 * total energy  :   -85.8076265 Eh     change       -0.4539240E-06 Eh
 * total energy  :   -85.8076270 Eh     change       -0.5767743E-06 Eh
 * total energy  :   -85.8076277 Eh     change       -0.6295031E-06 Eh
 * total energy  :   -85.8076282 Eh     change       -0.5260933E-06 Eh
 * total energy  :   -85.8076285 Eh     change       -0.3365104E-06 Eh
 * total energy  :   -85.8076288 Eh     change       -0.2351361E-06 Eh
 * total energy  :   -85.8076289 Eh     change       -0.1026421E-06 Eh
 * total energy  :   -85.8076290 Eh     change       -0.1118446E-06 Eh
 * total energy  :   -85.8076290 Eh     change       -0.5190351E-07 Eh
   *** GEOMETRY OPTIMIZATION CONVERGED AFTER 58 ITERATIONS ***

 final structure:
================
53
 xtb: 6.7.1 (edcfbbe)
C           -7.53559801767586       -2.52826036949491        0.17850475347134
O           -6.20558714513537       -2.98474751932890        0.24501319807222
C           -5.19721658581031       -2.08326411577750        0.18139722996182
C           -3.90254248523766       -2.63295326470264        0.26653473763814
C           -2.77693200196006       -1.84723482098278        0.20610057872617
C           -2.94363424891824       -0.47295620960875        0.04551178378746
C           -4.24204720507507        0.09472907271165       -0.00041997672061
C           -5.37059828762499       -0.70691552704385        0.05973757756778
C           -4.05983189730647        1.51789554654935       -0.09474203682727
C           -4.93452586642296        2.58904282382773       -0.18747622595014
C           -4.40912963917996        3.86495005794476       -0.30325556328646
C           -3.03344725413802        4.07351847303301       -0.34818845364302
C           -2.14057863417608        3.01938922078062       -0.25741503677327
C           -2.66056813322125        1.74220144658998       -0.10470235831113
N           -2.00215996219324        0.52744037897676       -0.01649642438139
C           -0.62654915114815        0.35122308138741       -0.00831973072489
C           -0.02436179502895       -0.65015754850136       -0.79713954267489
C            1.32783310826351       -0.82102375878301       -0.79406266686591
C            2.18424723896215       -0.00838531350013        0.00464515802701
C            3.59025795657561       -0.18559518663164        0.00821073778807
C            4.50965654950861        0.89793154886401        0.25754960006854
C            4.09974934899685        2.23141145612826        0.38934412727847
N            3.84156122641644        3.35148531352232        0.47056858407648
C            5.88241291257171        0.67037455151445        0.24514670926886
C            6.86538613445828        1.77402577876397        0.47333726890870
N            6.38584127078731       -0.53776613542473        0.01570976501153
C            5.59959460233579       -1.58358733925971       -0.21631317884980
C            6.27925441151350       -2.89679242565490       -0.43979688026667
C            4.21340897577690       -1.46353856002426       -0.23671440033322
C            3.48654918417997       -2.65384790235499       -0.37273941518209
N            2.95975762710853       -3.67523785879263       -0.45656545102066
C            1.55232608405486        0.99270110901618        0.79853098924637
C            0.20065306726267        1.16827898240592        0.78889378832075
H           -8.15646790408209       -3.42027343352649        0.24115767957078
H           -7.77324306164947       -1.86281245313710        1.01435948908527
H           -7.73583626895709       -2.01350125373590       -0.76638784573097
H           -3.82342942930683       -3.70077324103381        0.38916866567621
H           -1.79632029646226       -2.28607922522769        0.29820925817304
H           -6.34911148874417       -0.25680081812593        0.01902182432883
H           -6.00199811375145        2.42974311498099       -0.17618859348300
H           -5.07463693462637        4.71186947276576       -0.37416292433360
H           -2.65336872206054        5.07697243609509       -0.46282308904284
H           -1.07737064868118        3.18958766634757       -0.32038515318434
H           -0.64285319734465       -1.23649572574866       -1.46046968798648
H            1.76416539075734       -1.54741311037947       -1.46032759353568
H            6.74997411213322        2.54820554193272       -0.28436846099722
H            6.70036880047358        2.23759213466347        1.44507218197183
H            7.87458949027164        1.37411569921793        0.42991875529620
H            7.35593851501385       -2.75915780635662       -0.39380359777081
H            5.97375260448213       -3.61646656692419        0.31885409448555
H            6.00708751903244       -3.30740285987127       -1.41123611129045
H            2.15133666510220        1.58564672310116        1.47054325426218
H           -0.25573206716533        1.89145615074770        1.44838275661230

 projected vibrational frequencies (cm⁻¹)
eigval :       -0.00    -0.00    -0.00     0.00     0.00     0.00
eigval :       16.16    20.89    25.83    37.00    52.35    53.43
eigval :       63.68    69.40    73.10    86.83    94.66   112.69
eigval :      128.64   147.81   155.45   163.32   167.68   174.97
eigval :      195.61   210.01   233.82   242.27   255.84   260.01
eigval :      270.24   280.36   309.18   334.84   363.30   381.43
eigval :      388.55   392.24   392.63   400.66   410.84   424.94
eigval :      448.49   453.76   456.56   459.42   474.73   484.67
eigval :      496.55   515.71   545.86   570.05   580.11   584.72
eigval :      590.49   606.33   617.97   622.36   635.67   642.30
eigval :      662.29   674.17   683.84   703.46   727.91   772.49
eigval :      800.00   813.89   827.88   844.95   855.55   864.04
eigval :      871.25   880.40   899.57   902.28   911.86   914.54
eigval :      920.33   923.81   927.35   972.48   990.35  1005.16
eigval :     1014.63  1018.51  1022.12  1058.04  1069.25  1090.58
eigval :     1104.51  1115.53  1117.42  1131.19  1144.86  1153.50
eigval :     1173.02  1177.19  1196.42  1212.93  1213.88  1231.41
eigval :     1241.81  1253.00  1261.74  1266.04  1279.22  1317.95
eigval :     1326.49  1338.78  1344.29  1354.99  1362.11  1386.90
eigval :     1393.22  1395.53  1397.53  1399.72  1411.76  1419.58
eigval :     1427.22  1448.95  1455.80  1461.74  1462.81  1463.66
eigval :     1465.57  1468.06  1469.22  1475.92  1483.54  1491.17
eigval :     1543.21  1549.04  1566.42  1569.11  1587.55  2287.65
eigval :     2307.67  2937.78  2950.44  3007.12  3007.62  3021.98
eigval :     3022.19  3032.39  3057.07  3057.72  3082.46  3084.23
eigval :     3085.69  3092.80  3099.80  3105.05  3107.34  3111.63
eigval :     3113.09  3113.96  3120.94

   temp. (K)  partition function   enthalpy   heat capacity  entropy
                                   cal/mol     cal/K/mol   cal/K/mol   J/K/mol
 298.15  VIB  0.506E+13            16835.332    102.249    105.271
         ROT  0.308E+08              888.752      2.981     37.245
         INT  0.156E+21            17724.084    105.230    142.516
         TR   0.858E+28             1481.254      4.968     44.035
         TOT                       19205.3378   110.1977   186.5515   780.5316

       T/K    H(0)-H(T)+PV         H(T)/Eh          T*S/Eh         G(T)/Eh
   ------------------------------------------------------------------------
    298.15    0.306057E-01    0.424996E+00    0.886367E-01    0.336360E+00
   ------------------------------------------------------------------------

         :::::::::::::::::::::::::::::::::::::::::::::::::::::
         ::                  THERMODYNAMIC                  ::
         :::::::::::::::::::::::::::::::::::::::::::::::::::::
         :: total free energy         -85.471269304190 Eh   ::
         ::.................................................::
         :: total energy              -85.807629033664 Eh   ::
         :: zero point energy           0.394390729893 Eh   ::
         :: G(RRHO) w/o ZPVE           -0.058031000418 Eh   ::
         :: G(RRHO) contrib.            0.336359729475 Eh   ::
         :::::::::::::::::::::::::::::::::::::::::::::::::::::

           -------------------------------------------------
          | TOTAL ENERGY              -85.807629033664 Eh   |
          | TOTAL ENTHALPY            -85.382632649809 Eh   |
          | TOTAL FREE ENERGY         -85.471269304190 Eh   |
          | GRADIENT NORM               0.000036570349 Eh/α |
           -------------------------------------------------

 * finished run on 2025/07/18 at 00:14:42.613
