   * xtb version 6.7.1 (edcfbbe) compiled by 'albert@albert-system' on 2024-07-22

   ID    Z sym.   atoms
    1    6 C      1, 3-14, 16-22, 24, 25, 27-30, 32, 33
    2    8 O      2
    3    7 N      15, 23, 26, 31
    4    1 H      34-53

          program call               : xtb data2507/gas/Me-MOC/Me-MOC_gas_S0_crest.xyz --gfn 2 --ohess vtight --parallel 40 --molden --ceasefiles --namespace data2507/gas/Me-MOC/Me-MOC_gas_S0_finalOpt
          :  Hamiltonian                  GFN2-xTB          :
 * total energy  :   -85.8929225 Eh     change       -0.1848932E-08 Eh
 * total energy  :   -85.8929223 Eh     change        0.1562468E-06 Eh
 * total energy  :   -85.8929226 Eh     change       -0.2675546E-06 Eh
 * total energy  :   -85.8929231 Eh     change       -0.4964957E-06 Eh
 * total energy  :   -85.8929232 Eh     change       -0.1523376E-06 Eh
 * total energy  :   -85.8929231 Eh     change        0.9741078E-07 Eh
 * total energy  :   -85.8929237 Eh     change       -0.5484604E-06 Eh
 * total energy  :   -85.8929239 Eh     change       -0.2744054E-06 Eh
 * total energy  :   -85.8929242 Eh     change       -0.2141842E-06 Eh
 * total energy  :   -85.8929243 Eh     change       -0.1831390E-06 Eh
 * total energy  :   -85.8929245 Eh     change       -0.1233434E-06 Eh
 * total energy  :   -85.8929246 Eh     change       -0.1053408E-06 Eh
 * total energy  :   -85.8929247 Eh     change       -0.1110774E-06 Eh
 * total energy  :   -85.8929248 Eh     change       -0.1094228E-06 Eh
 * total energy  :   -85.8929249 Eh     change       -0.9075970E-07 Eh
   *** GEOMETRY OPTIMIZATION CONVERGED AFTER 15 ITERATIONS ***

 final structure:
================
53
 xtb: 6.7.1 (edcfbbe)
C           -7.51978468828559       -2.52290714555555        0.02165139468745
O           -6.19874860157932       -3.00104185374065        0.04423200631101
C           -5.18004488641489       -2.09025564199005        0.03356229171983
C           -3.89099258543944       -2.64494438928963        0.06604816653622
C           -2.76018760600740       -1.85885746334364        0.05181995826932
C           -2.92458367840746       -0.48144877232830       -0.00767967163587
C           -4.21378015930876        0.08765276789034       -0.00908204589804
C           -5.34893424947560       -0.71574334115365        0.00634977288719
C           -4.03404552705466        1.51258190775078       -0.01121562903207
C           -4.91631686655828        2.58479396063879       -0.03608707972451
C           -4.40163979080419        3.86531415295478       -0.06171199990817
C           -3.02589332077291        4.08269638392911       -0.08213772546562
C           -2.12805220982641        3.03249066613410       -0.05806905071285
C           -2.63913844805142        1.74361313155960       -0.00115689278792
N           -1.97639328085884        0.53017313335941        0.00037866811224
C           -0.59473253344871        0.35197318087640        0.00268251919618
C            0.00110585962140       -0.54885309944240       -0.87962646248081
C            1.36707096529741       -0.73063181025677       -0.87044677297476
C            2.17316174024908       -0.00391019362095        0.00486066931341
C            3.62575173033651       -0.18992777730441        0.00462311113400
C            4.50353563466830        0.90388705896634       -0.00951439750594
C            4.02504513570421        2.22971029460823       -0.07562501625731
N            3.68554958500311        3.32303618460461       -0.14982720603052
C            5.89177822721507        0.67679785428168       -0.01089679668538
C            6.85869460499560        1.81189118529084       -0.03128742537360
N            6.39545890170705       -0.54485787146308        0.00111757217394
C            5.60002517812314       -1.60005796555447        0.01512158913649
C            6.24930819206541       -2.94236640414001        0.03264910092154
C            4.19941090384299       -1.46968619167295        0.01748633575406
C            3.40222911468328       -2.63203565385367        0.08608318275651
N            2.79850809548364       -3.60445639319628        0.16307926470098
C            1.57582070246087        0.90246192386405        0.87981435712137
C            0.20818360582448        1.07184313151730        0.88706567346805
H           -8.15457774353909       -3.40764456918949        0.02930672360102
H           -7.74227727881429       -1.91168537234955        0.90286879096243
H           -7.72234688152982       -1.94102589074491       -0.88389586901738
H           -3.81125138074460       -3.71933721598856        0.10812484775666
H           -1.78148051169911       -2.31035990676340        0.10084557767081
H           -6.32407715558602       -0.25652537172552        0.00391879882389
H           -5.98254263011310        2.41540680204110       -0.04122902665419
H           -5.07048374647840        4.71284654202002       -0.07821668119518
H           -2.65127137794523        5.09468144992591       -0.12233587875526
H           -1.06501985961539        3.21534825351091       -0.09802840407609
H           -0.61146876297611       -1.08824376575550       -1.58519692437522
H            1.81747048198222       -1.41554642312113       -1.57364305957026
H            6.70152153663104        2.42702926622962       -0.91660416480328
H            6.71397333638714        2.44959683588860        0.84003219196054
H            7.87273832691610        1.42318315212385       -0.03310348116603
H            7.32861470959677       -2.82213368420585        0.03669003950835
H            5.94014357679997       -3.50107189362531        0.91530917149612
H            5.95009171116499       -3.51985942167448       -0.84133561840438
H            2.18375211880505        1.45091993288814        1.58415766680833
H           -0.24885264112966        1.74780319299558        1.59297786570251

          :  Hamiltonian                  GFN2-xTB          :
         :: gradient norm              0.000063001765 Eh/a0 ::
         :: HOMO-LUMO gap              1.757220685901 eV    ::
         :: SCC energy               -87.441747255682 Eh    ::
         :: -> dispersion             -0.068476986059 Eh    ::
         :: repulsion energy           1.548822381823 Eh    ::

    * Orbital Energies and Occupations

         #    Occupation            Energy/Eh            Energy/eV
      -------------------------------------------------------------
         1        2.0000           -0.7114617             -19.3599
       ...           ...                  ...                  ...
        67        2.0000           -0.4398620             -11.9693
        68        2.0000           -0.4355495             -11.8519
        69        2.0000           -0.4290926             -11.6762
        70        2.0000           -0.4264168             -11.6034
        71        2.0000           -0.4245272             -11.5520
        72        2.0000           -0.4229975             -11.5103
        73        2.0000           -0.4203464             -11.4382
        74        2.0000           -0.4174060             -11.3582
        75        2.0000           -0.4144431             -11.2776
        76        2.0000           -0.3966158             -10.7925
        77        2.0000           -0.3942819             -10.7290
        78        2.0000           -0.3778612             -10.2821
        79        2.0000           -0.3583148              -9.7502 (HOMO)
        80                         -0.2937380              -7.9930 (LUMO)
        81                         -0.2935954              -7.9891
        82                         -0.2477351              -6.7412
        83                         -0.2444091              -6.6507
        84                         -0.2358712              -6.4184
        85                         -0.2202276              -5.9927
        86                         -0.2196045              -5.9757
        87                         -0.2179950              -5.9319
        88                         -0.2143249              -5.8321
        89                         -0.1901161              -5.1733
        90                         -0.1852167              -5.0400
       ...                                ...                  ...
       152                          1.1581615              31.5152
      -------------------------------------------------------------
                  HL-Gap            0.0645767 Eh            1.7572 eV

     #   Z          covCN         q      C6AA      α(0)
     1   6 C        3.644     0.040    20.242     6.467
     2   8 O        1.705    -0.274    18.539     5.813
     3   6 C        2.867     0.135    25.052     8.205
     4   6 C        2.925    -0.056    29.383     8.889
     5   6 C        2.909    -0.049    29.222     8.864
     6   6 C        3.073     0.036    27.122     8.539
     7   6 C        3.068    -0.017    28.354     8.731
     8   6 C        2.911    -0.071    29.775     8.948
     9   6 C        3.069    -0.016    28.329     8.727
    10   6 C        2.913    -0.033    28.813     8.802
    11   6 C        2.920    -0.040    28.998     8.831
    12   6 C        2.924    -0.033    28.812     8.803
    13   6 C        2.910    -0.050    29.249     8.868
    14   6 C        3.071     0.046    26.901     8.504
    15   7 N        2.802    -0.039    21.992     6.965
    16   6 C        2.913     0.071    26.416     8.428
    17   6 C        2.921    -0.041    29.020     8.834
    18   6 C        2.923    -0.026    28.655     8.779
    19   6 C        2.977     0.001    27.994     8.679
    20   6 C        2.988     0.036    27.186     8.553
    21   6 C        2.973    -0.015    28.380     8.738
    22   6 C        1.910     0.113    28.313     8.593
    23   7 N        0.911    -0.239    26.234     7.408
    24   6 C        2.948     0.116    25.449     8.274
    25   6 C        3.760    -0.118    22.802     6.807
    26   7 N        1.848    -0.241    27.144     7.722
    27   6 C        2.948     0.116    25.448     8.274
    28   6 C        3.760    -0.118    22.803     6.808
    29   6 C        2.973    -0.015    28.378     8.738
    30   6 C        1.910     0.113    28.316     8.594
    31   7 N        0.911    -0.238    26.220     7.406
    32   6 C        2.923    -0.026    28.657     8.779
    33   6 C        2.921    -0.041    29.014     8.833
    34   1 H        0.925     0.060     2.200     2.320
    35   1 H        0.924     0.038     2.474     2.460
    36   1 H        0.924     0.038     2.474     2.460
    37   1 H        0.926     0.051     2.302     2.373
    38   1 H        0.926     0.039     2.459     2.452
    39   1 H        0.926     0.037     2.489     2.467
    40   1 H        0.926     0.031     2.575     2.509
    41   1 H        0.926     0.030     2.591     2.517
    42   1 H        0.926     0.033     2.551     2.498
    43   1 H        0.926     0.032     2.562     2.503
    44   1 H        0.926     0.051     2.311     2.377
    45   1 H        0.926     0.041     2.441     2.443
    46   1 H        0.925     0.065     2.143     2.289
    47   1 H        0.925     0.064     2.153     2.294
    48   1 H        0.925     0.072     2.068     2.249
    49   1 H        0.925     0.072     2.068     2.249
    50   1 H        0.925     0.065     2.143     2.289
    51   1 H        0.925     0.064     2.151     2.293
    52   1 H        0.926     0.040     2.442     2.444
    53   1 H        0.926     0.050     2.316     2.380

molecular dipole:
                 x           y           z       tot (Debye)
 q only:        0.348       0.064      -0.009
   full:        0.326       0.156      -0.013       0.919

 projected vibrational frequencies (cm⁻¹)
eigval :       -0.00    -0.00    -0.00    -0.00     0.00     0.00
eigval :       17.38    20.16    27.92    44.78    60.30    62.06
eigval :       67.69    69.99    72.49    83.98    94.73   106.06
eigval :      122.39   135.59   147.64   150.50   169.23   175.12
eigval :      198.49   216.78   231.19   237.85   255.23   264.56
eigval :      269.56   281.18   330.71   341.94   364.86   389.25
eigval :      391.54   394.55   399.20   410.76   420.72   430.96
eigval :      470.98   474.15   477.63   486.46   496.87   509.35
eigval :      515.42   534.52   571.58   585.73   586.85   600.37
eigval :      612.85   617.85   620.63   631.24   663.34   670.99
eigval :      685.86   696.72   705.86   717.67   733.39   775.73
eigval :      808.14   818.92   852.44   858.92   868.69   870.80
eigval :      877.47   881.09   903.21   906.42   919.91   923.64
eigval :      927.65   934.88   942.50   989.44  1009.72  1021.11
eigval :     1023.02  1023.93  1035.85  1066.01  1073.80  1109.39
eigval :     1119.15  1123.75  1140.16  1147.34  1156.70  1158.51
eigval :     1178.56  1182.36  1191.79  1207.46  1239.69  1250.66
eigval :     1268.24  1270.86  1272.62  1282.43  1314.71  1319.54
eigval :     1348.16  1354.63  1360.51  1377.31  1390.65  1394.90
eigval :     1398.84  1402.71  1415.63  1417.60  1423.79  1433.27
eigval :     1451.82  1456.15  1457.05  1460.77  1472.85  1476.34
eigval :     1484.95  1491.17  1498.56  1513.51  1534.49  1555.07
eigval :     1572.48  1584.85  1591.68  1602.07  1616.69  2361.23
eigval :     2364.94  2924.01  2939.22  3007.90  3008.40  3022.50
eigval :     3022.52  3025.93  3065.57  3066.22  3078.50  3083.45
eigval :     3085.23  3086.75  3090.79  3093.44  3097.86  3103.90
eigval :     3104.76  3109.30  3114.11

   temp. (K)  partition function   enthalpy   heat capacity  entropy
                                   cal/mol     cal/K/mol   cal/K/mol   J/K/mol
 298.15  VIB  0.278E+13            16579.914    101.029    104.191
         ROT  0.303E+08              888.752      2.981     37.214
         INT  0.841E+20            17468.666    104.010    141.405
         TR   0.858E+28             1481.254      4.968     44.035
         TOT                       18949.9198   108.9783   185.4401   775.8814

       T/K    H(0)-H(T)+PV         H(T)/Eh          T*S/Eh         G(T)/Eh
   ------------------------------------------------------------------------
    298.15    0.301986E-01    0.428345E+00    0.881086E-01    0.340236E+00
   ------------------------------------------------------------------------

         :::::::::::::::::::::::::::::::::::::::::::::::::::::
         ::                  THERMODYNAMIC                  ::
         :::::::::::::::::::::::::::::::::::::::::::::::::::::
         :: total free energy         -85.552688744064 Eh   ::
         ::.................................................::
         :: total energy              -85.892924873848 Eh   ::
         :: zero point energy           0.398146093250 Eh   ::
         :: G(RRHO) w/o ZPVE           -0.057909963466 Eh   ::
         :: G(RRHO) contrib.            0.340236129784 Eh   ::
         :::::::::::::::::::::::::::::::::::::::::::::::::::::

           -------------------------------------------------
          | TOTAL ENERGY              -85.892924873848 Eh   |
          | TOTAL ENTHALPY            -85.464580161203 Eh   |
          | TOTAL FREE ENERGY         -85.552688744064 Eh   |
          | GRADIENT NORM               0.000063028302 Eh/α |
          | HOMO-LUMO GAP               1.757222624286 eV   |
           -------------------------------------------------

 * finished run on 2025/07/18 at 00:14:36.444
