   * xtb version 6.7.1 (edcfbbe) compiled by 'albert@albert-system' on 2024-07-22

   ID    Z sym.   atoms
    1    6 C      1, 3-14, 16-22, 24, 25, 27-30, 32, 33
    2    8 O      2
    3    7 N      15, 23, 26, 31
    4    1 H      34-53

          program call               : xtb data2507/gas/Me-MOC/Me-MOC.xyz --gfn 2 --ohess vtight --parallel 40 --molden --ceasefiles --namespace data2507/gas/Me-MOC/Me-MOC_gas_S0_preOpt
          :  Hamiltonian                  GFN2-xTB          :
 * total energy  :   -85.8756138 Eh     change       -0.2553605E-08 Eh
 * total energy  :   -85.8871680 Eh     change       -0.1155420E-01 Eh
 * total energy  :   -85.8890909 Eh     change       -0.1922910E-02 Eh
 * total energy  :   -85.8889234 Eh     change        0.1674755E-03 Eh
 * total energy  :   -85.8894139 Eh     change       -0.4905385E-03 Eh
 * total energy  :   -85.8894884 Eh     change       -0.7446760E-04 Eh
 * total energy  :   -85.8894926 Eh     change       -0.4201707E-05 Eh
 * total energy  :   -85.8895637 Eh     change       -0.7111809E-04 Eh
 * total energy  :   -85.8895849 Eh     change       -0.2120983E-04 Eh
 * total energy  :   -85.8896158 Eh     change       -0.3083057E-04 Eh
 * total energy  :   -85.8929225 Eh     change       -0.2358519E-06 Eh
 * total energy  :   -85.8929228 Eh     change       -0.3418589E-06 Eh
 * total energy  :   -85.8929232 Eh     change       -0.3679896E-06 Eh
 * total energy  :   -85.8929235 Eh     change       -0.2885519E-06 Eh
 * total energy  :   -85.8929237 Eh     change       -0.2447806E-06 Eh
 * total energy  :   -85.8929239 Eh     change       -0.1933154E-06 Eh
 * total energy  :   -85.8929241 Eh     change       -0.2103106E-06 Eh
 * total energy  :   -85.8929244 Eh     change       -0.2505824E-06 Eh
 * total energy  :   -85.8929244 Eh     change       -0.4327021E-08 Eh
   *** GEOMETRY OPTIMIZATION CONVERGED AFTER 68 ITERATIONS ***

 final structure:
================
53
 xtb: 6.7.1 (edcfbbe)
C           -7.38962530570977       -2.58397190642102        0.01861085829615
O           -6.06490829736590       -3.05165541858599        0.04479842222485
C           -5.05333729406192       -2.13293549932130        0.03617212638898
C           -3.76000410982304       -2.67757183430154        0.06878697462851
C           -2.63533280184575       -1.88271353453711        0.05530514001518
C           -2.81036987869392       -0.50657257892357       -0.00345382558412
C           -4.10397261695926        0.05244157213842       -0.00371814462077
C           -5.23287753603303       -0.75974374920846        0.01073919721123
C           -3.93537328725118        1.47872191405653       -0.00443321644319
C           -4.82611455690271        2.54395814042359       -0.02707350791477
C           -4.32161415109945        3.82852963334570       -0.05180991780430
C           -2.94765208159624        4.05674046784000       -0.07378927227863
C           -2.04153131742210        3.01361824358440       -0.05188292158663
C           -2.54230699056973        1.72066625998833        0.00452373536239
N           -1.87005056427309        0.51241490068942        0.00457956553780
C           -0.48703207974550        0.34504617464545        0.00429444862667
C            0.11425128433224       -0.55150396432128       -0.87872376264909
C            1.48161796078811       -0.72268813944560       -0.87207957884656
C            2.28372008411207        0.01071828332176        0.00129142985750
C            3.73771283457776       -0.16421756621295       -0.00019416241665
C            4.60696722341481        0.93639330771052       -0.01555921799230
C            4.11792253946645        2.25819248277714       -0.08473437550995
N            3.76927038414950        3.34846189835121       -0.16161356669313
C            5.99693789765445        0.72021477973920       -0.01519673399844
C            6.95503183196287        1.86277143985835       -0.03558185273265
N            6.51014079540542       -0.49745293994685       -0.00121120328772
C            5.72296498763401       -1.55882090229794        0.01305366630076
C            6.38287941351786       -2.89590824941246        0.03360237824362
C            4.32135878778225       -1.43944166205637        0.01427982359477
C            3.53312868335947       -2.60785043478469        0.08350812609015
N            2.93622009909167       -3.58451275555246        0.15994453530269
C            1.68092086037136        0.91298116316452        0.87676832101591
C            0.31202456276272        1.07167586572355        0.88665265865466
H           -7.59380465956904       -2.00238599624673       -0.88676419217014
H           -8.01738447967824       -3.47374321373362        0.02287447774699
H           -7.61991407805054       -1.97584708596526        0.89996735571813
H           -3.67189314156313       -3.75134110769490        0.11009347626895
H           -1.65318178846053       -2.32668634082184        0.10419114902683
H           -6.21156301127131       -0.30811711664718        0.00885286050510
H           -5.89097690358013        2.36616730124979       -0.03112656979615
H           -4.99715564036365        4.67076822389349       -0.06652857309658
H           -2.58104081499252        5.07167407393101       -0.11354556681009
H           -0.98005632060803        3.20499713474670       -0.09310714575617
H           -0.49537857159681       -1.09609839850577       -1.58284238852198
H            1.93589978554191       -1.40461866411315       -1.57567246723534
H            6.80207626205156        2.50213893746781        0.83310262238220
H            7.97206717636793        1.48194999806295       -0.03249168393227
H            6.79643849542702        2.47379343752623       -0.92350287549177
H            7.46119684933795       -2.76718401060312        0.02568216002969
H            6.08782131989079       -3.44951737636060        0.92434027171783
H            6.07873036582640       -3.48309612388391       -0.83210933738812
H            2.28588022677908        1.46673460753292        1.57953283180989
H           -0.14873343252695        1.74442732813674        1.59319844800730

          :  Hamiltonian                  GFN2-xTB          :
         :: gradient norm              0.000095914704 Eh/a0 ::
         :: HOMO-LUMO gap              1.757401460028 eV    ::
         :: SCC energy               -87.441698834343 Eh    ::
         :: -> dispersion             -0.068477008707 Eh    ::
         :: repulsion energy           1.548774461204 Eh    ::

    * Orbital Energies and Occupations

         #    Occupation            Energy/Eh            Energy/eV
      -------------------------------------------------------------
         1        2.0000           -0.7114653             -19.3600
       ...           ...                  ...                  ...
        67        2.0000           -0.4398550             -11.9691
        68        2.0000           -0.4355544             -11.8520
        69        2.0000           -0.4290927             -11.6762
        70        2.0000           -0.4263940             -11.6028
        71        2.0000           -0.4245213             -11.5518
        72        2.0000           -0.4230000             -11.5104
        73        2.0000           -0.4203429             -11.4381
        74        2.0000           -0.4174004             -11.3580
        75        2.0000           -0.4144267             -11.2771
        76        2.0000           -0.3966162             -10.7925
        77        2.0000           -0.3942755             -10.7288
        78        2.0000           -0.3778618             -10.2821
        79        2.0000           -0.3583188              -9.7504 (HOMO)
        80                         -0.2937354              -7.9929 (LUMO)
        81                         -0.2935798              -7.9887
        82                         -0.2477424              -6.7414
        83                         -0.2443822              -6.6500
        84                         -0.2358635              -6.4182
        85                         -0.2202260              -5.9927
        86                         -0.2196105              -5.9759
        87                         -0.2179996              -5.9321
        88                         -0.2143069              -5.8316
        89                         -0.1901139              -5.1733
        90                         -0.1852173              -5.0400
       ...                                ...                  ...
       152                          1.1581866              31.5159
      -------------------------------------------------------------
                  HL-Gap            0.0645834 Eh            1.7574 eV

     #   Z          covCN         q      C6AA      α(0)
     1   6 C        3.644     0.040    20.242     6.467
     2   8 O        1.705    -0.274    18.539     5.813
     3   6 C        2.867     0.135    25.052     8.205
     4   6 C        2.925    -0.056    29.383     8.889
     5   6 C        2.909    -0.049    29.222     8.864
     6   6 C        3.073     0.036    27.123     8.539
     7   6 C        3.068    -0.017    28.354     8.731
     8   6 C        2.911    -0.071    29.775     8.948
     9   6 C        3.069    -0.016    28.329     8.727
    10   6 C        2.913    -0.033    28.813     8.802
    11   6 C        2.920    -0.040    28.998     8.831
    12   6 C        2.924    -0.033    28.812     8.803
    13   6 C        2.910    -0.050    29.249     8.868
    14   6 C        3.071     0.046    26.901     8.504
    15   7 N        2.802    -0.039    21.992     6.965
    16   6 C        2.913     0.071    26.416     8.428
    17   6 C        2.921    -0.041    29.020     8.834
    18   6 C        2.923    -0.026    28.655     8.779
    19   6 C        2.977     0.001    27.994     8.679
    20   6 C        2.988     0.036    27.186     8.553
    21   6 C        2.973    -0.015    28.380     8.738
    22   6 C        1.910     0.113    28.313     8.593
    23   7 N        0.911    -0.239    26.235     7.408
    24   6 C        2.948     0.116    25.449     8.274
    25   6 C        3.760    -0.118    22.802     6.807
    26   7 N        1.848    -0.241    27.145     7.722
    27   6 C        2.948     0.116    25.448     8.274
    28   6 C        3.760    -0.118    22.803     6.808
    29   6 C        2.973    -0.015    28.378     8.738
    30   6 C        1.910     0.113    28.316     8.594
    31   7 N        0.911    -0.238    26.220     7.406
    32   6 C        2.923    -0.026    28.657     8.779
    33   6 C        2.921    -0.041    29.014     8.833
    34   1 H        0.924     0.038     2.473     2.459
    35   1 H        0.925     0.060     2.200     2.320
    36   1 H        0.924     0.038     2.474     2.460
    37   1 H        0.926     0.051     2.302     2.373
    38   1 H        0.926     0.039     2.459     2.452
    39   1 H        0.926     0.037     2.489     2.467
    40   1 H        0.926     0.031     2.575     2.509
    41   1 H        0.926     0.030     2.590     2.517
    42   1 H        0.926     0.033     2.551     2.498
    43   1 H        0.926     0.032     2.562     2.503
    44   1 H        0.926     0.051     2.311     2.377
    45   1 H        0.926     0.041     2.440     2.443
    46   1 H        0.925     0.064     2.153     2.295
    47   1 H        0.925     0.072     2.068     2.249
    48   1 H        0.925     0.065     2.143     2.289
    49   1 H        0.925     0.072     2.068     2.249
    50   1 H        0.925     0.065     2.141     2.288
    51   1 H        0.925     0.064     2.153     2.294
    52   1 H        0.926     0.040     2.443     2.444
    53   1 H        0.926     0.050     2.316     2.380

molecular dipole:
                 x           y           z       tot (Debye)
 q only:        0.348       0.066      -0.007
   full:        0.325       0.158      -0.009       0.918

 projected vibrational frequencies (cm⁻¹)
eigval :       -0.00    -0.00     0.00     0.00     0.00     0.00
eigval :       17.39    20.18    27.93    44.80    60.35    62.14
eigval :       67.77    70.06    72.50    83.99    94.74   106.08
eigval :      122.43   135.58   147.74   150.46   169.22   175.15
eigval :      198.49   216.80   231.23   237.84   255.19   264.53
eigval :      269.53   281.20   330.70   341.93   364.84   389.27
eigval :      391.55   394.57   399.23   410.71   420.74   430.97
eigval :      471.07   474.17   477.68   486.47   496.88   509.38
eigval :      515.41   534.55   571.58   585.73   586.84   600.37
eigval :      612.85   617.85   620.62   631.24   663.34   671.00
eigval :      685.84   696.73   705.87   717.66   733.38   775.73
eigval :      808.15   818.93   852.44   858.91   868.68   870.79
eigval :      877.48   881.07   903.21   906.44   919.92   923.62
eigval :      927.70   934.94   942.49   989.45  1009.72  1021.10
eigval :     1023.02  1023.91  1035.88  1065.99  1073.84  1109.41
eigval :     1119.17  1123.74  1140.17  1147.38  1156.71  1158.50
eigval :     1178.56  1182.37  1191.79  1207.50  1239.68  1250.65
eigval :     1268.24  1270.84  1272.60  1282.42  1314.67  1319.51
eigval :     1348.15  1354.62  1360.49  1377.27  1390.65  1394.90
eigval :     1398.83  1402.71  1415.61  1417.57  1423.77  1433.23
eigval :     1451.80  1456.16  1457.06  1460.75  1472.85  1476.33
eigval :     1484.93  1491.17  1498.54  1513.51  1534.45  1555.03
eigval :     1572.46  1584.82  1591.67  1602.06  1616.67  2361.18
eigval :     2364.90  2924.02  2939.22  3007.88  3008.38  3022.48
eigval :     3022.49  3025.87  3065.49  3066.13  3078.49  3083.46
eigval :     3085.23  3086.76  3090.82  3093.46  3097.87  3103.96
eigval :     3104.80  3109.27  3114.11

   temp. (K)  partition function   enthalpy   heat capacity  entropy
                                   cal/mol     cal/K/mol   cal/K/mol   J/K/mol
 298.15  VIB  0.276E+13            16579.236    101.033    104.183
         ROT  0.303E+08              888.752      2.981     37.214
         INT  0.835E+20            17467.989    104.014    141.397
         TR   0.858E+28             1481.254      4.968     44.035
         TOT                       18949.2428   108.9818   185.4320   775.8473

       T/K    H(0)-H(T)+PV         H(T)/Eh          T*S/Eh         G(T)/Eh
   ------------------------------------------------------------------------
    298.15    0.301975E-01    0.428344E+00    0.881047E-01    0.340239E+00
   ------------------------------------------------------------------------

         :::::::::::::::::::::::::::::::::::::::::::::::::::::
         ::                  THERMODYNAMIC                  ::
         :::::::::::::::::::::::::::::::::::::::::::::::::::::
         :: total free energy         -85.552685391468 Eh   ::
         ::.................................................::
         :: total energy              -85.892924373137 Eh   ::
         :: zero point energy           0.398146151813 Eh   ::
         :: G(RRHO) w/o ZPVE           -0.057907170144 Eh   ::
         :: G(RRHO) contrib.            0.340238981669 Eh   ::
         :::::::::::::::::::::::::::::::::::::::::::::::::::::

           -------------------------------------------------
          | TOTAL ENERGY              -85.892924373137 Eh   |
          | TOTAL ENTHALPY            -85.464580680816 Eh   |
          | TOTAL FREE ENERGY         -85.552685391468 Eh   |
          | GRADIENT NORM               0.000095829005 Eh/α |
          | HOMO-LUMO GAP               1.757402952414 eV   |
           -------------------------------------------------

 * finished run on 2025/07/18 at 00:13:15.049
