   * xtb version 6.7.1 (edcfbbe) compiled by 'albert@albert-system' on 2024-07-22

   ID    Z sym.   atoms
    1    6 C      1, 3-14, 16-22, 24, 25, 27-30, 32, 33
    2    8 O      2
    3    7 N      15, 23, 26, 31
    4    1 H      34-53

          program call               : xtb data2507/gas/Me-MOC/Me-MOC_gas_T1_crest.xyz --gfn 2 --spinpol --tblite --uhf 2 --ohess vtight --parallel 40 --molden --ceasefiles --namespace data2507/gas/Me-MOC/Me-MOC_gas_T1_finalOpt
 * total energy  :   -85.8075929 Eh     change        0.4113204E-08 Eh
 * total energy  :   -85.8076154 Eh     change       -0.2249754E-04 Eh
 * total energy  :   -85.8076176 Eh     change       -0.2248028E-05 Eh
 * total energy  :   -85.8076194 Eh     change       -0.1820839E-05 Eh
 * total energy  :   -85.8076244 Eh     change       -0.4929365E-05 Eh
 * total energy  :   -85.8076249 Eh     change       -0.5056355E-06 Eh
 * total energy  :   -85.8076253 Eh     change       -0.3790433E-06 Eh
 * total energy  :   -85.8076255 Eh     change       -0.2471388E-06 Eh
 * total energy  :   -85.8076261 Eh     change       -0.6064557E-06 Eh
 * total energy  :   -85.8076264 Eh     change       -0.2657317E-06 Eh
 * total energy  :   -85.8076267 Eh     change       -0.2943102E-06 Eh
 * total energy  :   -85.8076269 Eh     change       -0.2244797E-06 Eh
 * total energy  :   -85.8076271 Eh     change       -0.2218166E-06 Eh
 * total energy  :   -85.8076277 Eh     change       -0.5551780E-06 Eh
 * total energy  :   -85.8076282 Eh     change       -0.5308155E-06 Eh
 * total energy  :   -85.8076286 Eh     change       -0.3550997E-06 Eh
 * total energy  :   -85.8076287 Eh     change       -0.1844564E-06 Eh
 * total energy  :   -85.8076288 Eh     change       -0.7460177E-07 Eh
   *** GEOMETRY OPTIMIZATION CONVERGED AFTER 18 ITERATIONS ***

 final structure:
================
53
 xtb: 6.7.1 (edcfbbe)
C           -7.53956057567032       -2.52652380449538        0.25642603533369
O           -6.20948285233935       -2.98054813684745        0.33698279168176
C           -5.20122887005235       -2.08124817282952        0.24634099910951
C           -3.90647827436970       -2.62799058321674        0.34780324284958
C           -2.78094524910328       -1.84436389993606        0.26336602464405
C           -2.94775812971466       -0.47560398626927        0.06115345696204
C           -4.24627716838933        0.09034213925859       -0.00136548308542
C           -5.37475070445465       -0.70919459932077        0.08342718093258
C           -4.06428483042690        1.50995588558531       -0.13928435073285
C           -4.93912563049529        2.57775409655296       -0.26395542746724
C           -4.41391084776500        3.84949226634832       -0.41954989301280
C           -3.03828906523672        4.05657667485705       -0.47260605286106
C           -2.14528895672880        3.00575751771223       -0.35026357130489
C           -2.66505080784088        1.73392201579744       -0.15736457276413
N           -2.00642387156343        0.52251020879311       -0.03210149099412
C           -0.63073116523096        0.34742790474464       -0.01848026958133
C           -0.02772651187340       -0.67809321127709       -0.77501600854960
C            1.32468853240262       -0.84722822972046       -0.76700980911048
C            2.18041242571863       -0.00781010811455        0.00417299390940
C            3.58683216869698       -0.18207808446268        0.01156481874947
C            4.50419040703888        0.91141031969567        0.22141490677303
C            4.09088494023735        2.24754291504870        0.30793215551940
N            3.82926206289049        3.36890340773987        0.35093265349945
C            5.87739780226840        0.68659967700221        0.21346191077650
C            6.85845902393347        1.79981138703505        0.39953203812128
N            6.38296652378365       -0.52781349700384        0.02545935938966
C            5.59858538253151       -1.58282124445555       -0.16812760414236
C            6.28068705640481       -2.90160647433671       -0.34675923023320
C            4.21213105081922       -1.46642154340064       -0.19020648620869
C            3.48685861101176       -2.66180868431462       -0.28333844132726
N            2.96081527870400       -3.68591636104600       -0.33055403662871
C            1.54776410882147        1.01721064800688        0.76619406947968
C            0.19583013231006        1.19038084293506        0.75204861009225
H           -8.16025191379007       -3.41649413138001        0.34465956725067
H           -7.77785069074519       -1.83708798277158        1.07241824062257
H           -7.73939177520398       -2.03954251247364       -0.70315731635969
H           -3.82724894619354       -3.69162080453224        0.50256203470463
H           -1.80030672662902       -2.28019250522566        0.36852643910404
H           -6.35331569522522       -0.26057415804390        0.02955682351273
H           -6.00658054932600        2.41889813291035       -0.24653462361383
H           -5.07952533687936        4.69383693539700       -0.51567400739511
H           -2.65837310500009        5.05598226985935       -0.61878200886923
H           -1.08216678916586        3.17389888444802       -0.41986323643091
H           -0.64575448123984       -1.28611196277478       -1.41896334842128
H            1.76170833732074       -1.59435525515360       -1.40949805794275
H            7.86827355025650        1.39991634690915        0.37376795472144
H            6.74353768849174        2.54277775658059       -0.38891815192585
H            6.69095469391432        2.30181501522727        1.35150247636301
H            7.35701769654097       -2.76112462789807       -0.30110911568232
H            5.97292205863270       -3.59725805943049        0.43305103176292
H            6.01299942134645       -3.34314689968111       -1.30582840162202
H            2.14654502768953        1.63211371216787        1.41842455048552
H           -0.26120293501307        1.93336126779976        1.38867661691608

 projected vibrational frequencies (cm⁻¹)
eigval :       -0.00    -0.00    -0.00     0.00     0.00     0.00
eigval :       16.00    21.16    25.70    37.05    51.88    52.92
eigval :       63.54    69.20    73.15    86.66    94.50   112.36
eigval :      129.17   147.84   155.28   164.08   167.53   174.62
eigval :      195.56   210.02   233.80   241.96   255.89   259.94
eigval :      270.30   280.31   309.21   334.76   363.51   381.16
eigval :      388.46   392.14   392.77   400.68   410.71   424.89
eigval :      448.30   453.74   456.53   459.57   474.66   484.61
eigval :      496.59   515.72   545.87   569.94   580.32   584.68
eigval :      590.41   606.29   617.81   622.32   637.09   642.19
eigval :      662.19   674.13   683.46   703.50   727.92   772.40
eigval :      800.01   813.80   828.15   844.89   855.81   862.67
eigval :      871.17   880.57   899.52   902.26   911.77   914.34
eigval :      920.28   923.91   927.57   971.91   991.31  1003.22
eigval :     1013.68  1018.61  1022.21  1057.97  1069.62  1090.78
eigval :     1105.38  1115.85  1117.43  1131.28  1144.82  1153.35
eigval :     1172.83  1177.17  1196.32  1212.12  1215.29  1230.77
eigval :     1241.38  1252.62  1262.04  1265.81  1278.61  1318.09
eigval :     1326.57  1339.07  1345.04  1354.78  1362.57  1387.00
eigval :     1393.45  1395.45  1397.28  1399.58  1411.42  1419.77
eigval :     1426.49  1448.68  1455.75  1461.83  1462.90  1465.33
eigval :     1465.55  1468.09  1469.13  1475.81  1482.97  1489.63
eigval :     1543.12  1548.60  1565.90  1569.11  1587.73  2287.83
eigval :     2307.88  2937.63  2949.95  3007.03  3007.53  3021.52
eigval :     3021.72  3032.11  3056.70  3057.37  3082.01  3083.44
eigval :     3085.17  3092.24  3099.07  3104.55  3106.76  3111.02
eigval :     3112.39  3113.49  3120.31

   temp. (K)  partition function   enthalpy   heat capacity  entropy
                                   cal/mol     cal/K/mol   cal/K/mol   J/K/mol
 298.15  VIB  0.518E+13            16837.785    102.231    105.290
         ROT  0.308E+08              888.752      2.981     37.245
         INT  0.159E+21            17726.537    105.212    142.535
         TR   0.858E+28             1481.254      4.968     44.035
         TOT                       19207.7914   110.1804   186.5707   780.6116

       T/K    H(0)-H(T)+PV         H(T)/Eh          T*S/Eh         G(T)/Eh
   ------------------------------------------------------------------------
    298.15    0.306096E-01    0.424966E+00    0.886457E-01    0.336320E+00
   ------------------------------------------------------------------------

         :::::::::::::::::::::::::::::::::::::::::::::::::::::
         ::                  THERMODYNAMIC                  ::
         :::::::::::::::::::::::::::::::::::::::::::::::::::::
         :: total free energy         -85.471308612557 Eh   ::
         ::.................................................::
         :: total energy              -85.807628803076 Eh   ::
         :: zero point energy           0.394356367831 Eh   ::
         :: G(RRHO) w/o ZPVE           -0.058036177312 Eh   ::
         :: G(RRHO) contrib.            0.336320190519 Eh   ::
         :::::::::::::::::::::::::::::::::::::::::::::::::::::

           -------------------------------------------------
          | TOTAL ENERGY              -85.807628803076 Eh   |
          | TOTAL ENTHALPY            -85.382662871322 Eh   |
          | TOTAL FREE ENERGY         -85.471308612557 Eh   |
          | GRADIENT NORM               0.000075304269 Eh/α |
           -------------------------------------------------

 * finished run on 2025/07/18 at 00:16:40.112
