   * xtb version 6.7.1 (edcfbbe) compiled by 'albert@albert-system' on 2024-07-22

   ID    Z sym.   atoms
    1    6 C      1-10, 12-23, 25-30
    2    7 N      11
    3    5 B      24
    4    8 O      31
    5    1 H      32-55

          program call               : xtb data2507/toluene/B-O-dpa/B-O-dpa.xyz --gfn 2 --gbsa toluene --ohess vtight --parallel 40 --molden --ceasefiles --namespace data2507/toluene/B-O-dpa/B-O-dpa_toluene_S0_preOpt
      * Solvation model:               GBSA
        Solvent                        toluene
        Solvent mass                       9.2140E+01 g/mol
          :  Hamiltonian                  GFN2-xTB          :
 * total energy  :   -80.4333063 Eh     change       -0.8693348E-09 Eh
 * total energy  :   -80.4715871 Eh     change       -0.3828083E-01 Eh
 * total energy  :   -80.4857734 Eh     change       -0.1418633E-01 Eh
 * total energy  :   -80.4917255 Eh     change       -0.5952036E-02 Eh
 * total energy  :   -80.4950391 Eh     change       -0.3313615E-02 Eh
 * total energy  :   -80.4966342 Eh     change       -0.1595092E-02 Eh
 * total energy  :   -80.4973447 Eh     change       -0.7104611E-03 Eh
 * total energy  :   -80.4977771 Eh     change       -0.4324045E-03 Eh
 * total energy  :   -80.4981866 Eh     change       -0.4095817E-03 Eh
 * total energy  :   -80.4985805 Eh     change       -0.3938608E-03 Eh
 * total energy  :   -80.5010388 Eh     change       -0.8635137E-06 Eh
 * total energy  :   -80.5010397 Eh     change       -0.9000023E-06 Eh
 * total energy  :   -80.5010405 Eh     change       -0.7461227E-06 Eh
 * total energy  :   -80.5010410 Eh     change       -0.4826883E-06 Eh
 * total energy  :   -80.5010413 Eh     change       -0.3233401E-06 Eh
 * total energy  :   -80.5010413 Eh     change        0.9367469E-08 Eh
 * total energy  :   -80.5010414 Eh     change       -0.1312731E-06 Eh
 * total energy  :   -80.5010414 Eh     change        0.7512327E-08 Eh
 * total energy  :   -80.5010415 Eh     change       -0.9184524E-07 Eh
   *** GEOMETRY OPTIMIZATION CONVERGED AFTER 84 ITERATIONS ***

 final structure:
================
55
 xtb: 6.7.1 (edcfbbe)
C            3.76361164675087       -1.72442848527313        1.41095064322965
C            3.04235475228219       -2.29603172399682        0.18113955436965
C            3.77744602365644       -1.86731278143262       -1.09767919783050
C            3.08810734565345       -3.82419724432235        0.27020431666611
C            1.62107780373240       -1.75348253571385        0.14006106138053
C            0.50472621158783       -2.58070780154349        0.16255847884502
C           -0.76850458937496       -2.02930021965914        0.10868180237945
C           -0.98264961280588       -0.64633851143246        0.05047117163059
C            0.15606634921682        0.18322929616707        0.04337971618128
C            1.43148021566787       -0.37885216018729        0.07512256816852
N           -0.01327860438359        1.55068678434120       -0.00290522963492
C            1.16425820329102        2.35387860076419       -0.10949886121095
C            1.65211890247844        2.69445130800548       -1.36429600017985
C            2.80027708443478        3.46078911579729       -1.47070514324816
C            3.46303127387203        3.88312310753228       -0.32990013361248
C            2.97724996774627        3.53987570744113        0.92169625259541
C            1.82903037765191        2.77562638461569        1.03575216891316
C           -1.23967314460493        2.18245342082589        0.09654635580501
C           -1.26583396727974        3.58479915544580        0.15742106631256
C           -2.44981843374713        4.26520361344696        0.31673496661111
C           -3.64515521112960        3.56512191736505        0.43469527238680
C           -3.63040252629319        2.19183141447825        0.34892072753430
C           -2.45457240316224        1.45531727943693        0.14911710316484
B           -2.39030928912847       -0.07831196914878        0.00306935710219
C           -3.49274973916364       -1.15651785758874       -0.18369559626784
C           -4.84571596644499       -0.93696152755177       -0.47598713371416
C           -5.75624404075242       -1.96482101856502       -0.59281043341918
C           -5.34196067893896       -3.28032253446247       -0.42008821755060
C           -4.01518894452082       -3.54801969878381       -0.16996260200639
C           -3.09406862770869       -2.50160887918933       -0.07212953567781
O           -1.80808311365416       -2.90767756972962        0.12605179141676
H            4.77239810253116       -2.12736831904798        1.47227447441111
H            3.22802414662277       -1.99376066529805        2.31919947512837
H            3.83241387338867       -0.64114821308910        1.36338388764017
H            3.83341502118609       -0.78509634729020       -1.17883174147585
H            4.79113937549640       -2.26253674843067       -1.09585049309132
H            3.25927470551341       -2.24931805488557       -1.97513470689015
H            4.12471046325791       -4.15406115728474        0.30189937574819
H            2.61621838616932       -4.28142336394524       -0.59640793368163
H            2.59463725460031       -4.17779521957358        1.17261200855312
H            0.58409913482896       -3.65307453332681        0.21228282959408
H            2.28966682606210        0.27251958840308        0.05838162822034
H            1.12777102892060        2.35708586958754       -2.24630487584343
H            3.17790698811818        3.72666435332425       -2.44679883325419
H            4.35893947610526        4.47962643407421       -0.41577398410860
H            3.49349943419806        3.86662771198682        1.81213425952235
H            1.44059932962804        2.50095778784841        2.00559915393940
H           -0.34413094361356        4.14288599518037        0.09099492752235
H           -2.44391168949432        5.34494779986780        0.36475655919576
H           -4.57318474873971        4.09609297350045        0.59013119719726
H           -4.55894677605154        1.65440338022402        0.45969588697678
H           -5.18263338409533        0.07524430519640       -0.63566014753862
H           -6.79099382584139       -1.75094235413766       -0.81859243391859
H           -6.05128644948213       -4.09135209580544       -0.49774840432814
H           -3.65625299422419       -4.56067571416523       -0.05915439985880

          :  Hamiltonian                  GFN2-xTB          :
         :: gradient norm              0.000046855060 Eh/a0 ::
         :: HOMO-LUMO gap              2.409217316463 eV    ::
         :: SCC energy               -81.901887913074 Eh    ::
         :: -> dispersion             -0.070788527622 Eh    ::
         :: -> Gsolv                  -0.031692888058 Eh    ::
         :: repulsion energy           1.400846406492 Eh    ::

    * Orbital Energies and Occupations

         #    Occupation            Energy/Eh            Energy/eV
      -------------------------------------------------------------
         1        2.0000           -0.7220415             -19.6477
       ...           ...                  ...                  ...
        63        2.0000           -0.4240351             -11.5386
        64        2.0000           -0.4208043             -11.4507
        65        2.0000           -0.4188668             -11.3979
        66        2.0000           -0.4164186             -11.3313
        67        2.0000           -0.4104287             -11.1683
        68        2.0000           -0.4082107             -11.1080
        69        2.0000           -0.4038751             -10.9900
        70        2.0000           -0.3963255             -10.7846
        71        2.0000           -0.3915468             -10.6545
        72        2.0000           -0.3856872             -10.4951
        73        2.0000           -0.3817635             -10.3883
        74        2.0000           -0.3766999             -10.2505
        75        2.0000           -0.3506788              -9.5425 (HOMO)
        76                         -0.2621416              -7.1332 (LUMO)
        77                         -0.2358100              -6.4167
        78                         -0.2347552              -6.3880
        79                         -0.2243660              -6.1053
        80                         -0.2201037              -5.9893
        81                         -0.2166970              -5.8966
        82                         -0.2042217              -5.5572
        83                         -0.1846136              -5.0236
        84                         -0.1438527              -3.9144
        85                         -0.1056354              -2.8745
        86                         -0.0910746              -2.4783
       ...                                ...                  ...
       148                          0.7162787              19.4909
      -------------------------------------------------------------
                  HL-Gap            0.0885372 Eh            2.4092 eV

     #   Z          covCN         q      C6AA      α(0)
     1   6 C        3.761    -0.106    22.565     6.772
     2   6 C        3.903     0.025    20.091     6.371
     3   6 C        3.761    -0.106    22.563     6.771
     4   6 C        3.761    -0.108    22.604     6.778
     5   6 C        2.974     0.012    27.738     8.639
     6   6 C        2.918    -0.080    30.011     8.984
     7   6 C        2.871     0.134    25.077     8.209
     8   6 C        2.894    -0.117    30.962     9.123
     9   6 C        2.927     0.059    26.683     8.471
    10   6 C        2.925    -0.076    29.900     8.967
    11   7 N        2.755    -0.051    22.232     7.003
    12   6 C        2.933     0.068    26.484     8.440
    13   6 C        2.921    -0.037    28.927     8.820
    14   6 C        2.920    -0.027    28.679     8.782
    15   6 C        2.919    -0.030    28.746     8.792
    16   6 C        2.920    -0.028    28.689     8.783
    17   6 C        2.921    -0.037    28.921     8.819
    18   6 C        2.924     0.061    26.638     8.464
    19   6 C        2.920    -0.057    29.405     8.892
    20   6 C        2.919    -0.030    28.739     8.791
    21   6 C        2.914    -0.044    29.103     8.846
    22   6 C        2.923    -0.034    28.843     8.807
    23   6 C        2.886    -0.085    30.133     9.000
    24   5 B        2.723     0.198    18.407     7.189
    25   6 C        2.882    -0.092    30.297     9.024
    26   6 C        2.925    -0.035    28.881     8.813
    27   6 C        2.915    -0.043    29.067     8.841
    28   6 C        2.919    -0.030    28.753     8.793
    29   6 C        2.916    -0.057    29.406     8.892
    30   6 C        2.875     0.135    25.041     8.203
    31   8 O        1.711    -0.250    18.147     5.752
    32   1 H        0.925     0.041     2.439     2.442
    33   1 H        0.925     0.034     2.536     2.490
    34   1 H        0.925     0.037     2.483     2.464
    35   1 H        0.925     0.037     2.486     2.466
    36   1 H        0.925     0.041     2.437     2.441
    37   1 H        0.925     0.033     2.537     2.491
    38   1 H        0.925     0.039     2.464     2.455
    39   1 H        0.925     0.036     2.500     2.472
    40   1 H        0.925     0.036     2.498     2.472
    41   1 H        0.926     0.042     2.421     2.433
    42   1 H        0.926     0.030     2.583     2.513
    43   1 H        0.926     0.042     2.416     2.431
    44   1 H        0.926     0.044     2.396     2.420
    45   1 H        0.926     0.043     2.404     2.425
    46   1 H        0.926     0.044     2.398     2.421
    47   1 H        0.926     0.043     2.411     2.428
    48   1 H        0.926     0.024     2.672     2.556
    49   1 H        0.926     0.025     2.654     2.547
    50   1 H        0.926     0.022     2.702     2.570
    51   1 H        0.926     0.032     2.552     2.498
    52   1 H        0.926     0.038     2.473     2.459
    53   1 H        0.926     0.030     2.585     2.514
    54   1 H        0.926     0.034     2.532     2.488
    55   1 H        0.926     0.037     2.489     2.467

molecular dipole:
                 x           y           z       tot (Debye)
 q only:        1.222       0.842      -0.106
   full:        1.225       0.831      -0.094       3.771

 projected vibrational frequencies (cm⁻¹)
eigval :       -0.00    -0.00    -0.00     0.00     0.00     0.00
eigval :       19.51    29.99    35.95    45.15    56.09    60.50
eigval :       70.43   109.75   117.97   125.64   164.33   176.83
eigval :      191.51   203.97   217.55   220.01   237.08   246.96
eigval :      251.46   263.49   278.94   308.36   314.57   329.12
eigval :      352.86   370.73   373.63   382.33   400.79   405.77
eigval :      425.61   434.45   455.46   486.69   490.81   492.18
eigval :      499.66   534.32   556.48   563.68   574.83   580.65
eigval :      590.34   597.84   631.99   633.59   650.85   666.69
eigval :      680.94   684.78   689.48   714.42   752.12   766.81
eigval :      775.72   782.96   816.06   830.00   859.03   860.64
eigval :      864.88   873.79   875.36   895.63   901.35   903.59
eigval :      909.68   912.80   921.12   923.28   925.05   927.92
eigval :      933.08   958.98   961.60   963.80   967.53   990.94
eigval :     1034.53  1036.43  1076.51  1078.74  1082.28  1089.59
eigval :     1107.92  1112.60  1133.27  1140.07  1169.33  1178.48
eigval :     1182.20  1185.35  1186.62  1204.79  1211.64  1225.43
eigval :     1227.41  1234.09  1240.32  1255.20  1266.49  1272.46
eigval :     1272.58  1296.95  1304.60  1306.60  1322.35  1332.40
eigval :     1344.69  1350.43  1398.24  1402.58  1407.40  1416.94
eigval :     1426.17  1428.69  1430.51  1445.65  1447.18  1464.54
eigval :     1474.36  1487.68  1491.06  1498.04  1501.38  1509.65
eigval :     1516.88  1537.31  1548.04  1554.10  1581.80  1582.64
eigval :     1591.60  1592.79  1596.74  3020.50  3022.06  3025.05
eigval :     3026.54  3028.68  3032.18  3036.64  3043.18  3047.33
eigval :     3064.51  3069.19  3074.93  3076.96  3078.86  3080.59
eigval :     3087.00  3087.72  3091.20  3093.22  3098.29  3098.96
eigval :     3104.52  3110.36  3126.73

   temp. (K)  partition function   enthalpy   heat capacity  entropy
                                   cal/mol     cal/K/mol   cal/K/mol   J/K/mol
 298.15  VIB  0.989E+10            14558.556     95.605     87.723
         ROT  0.192E+08              888.752      2.981     36.310
         INT  0.190E+18            15447.308     98.586    124.033
         TR   0.778E+28             1481.254      4.968     43.840
         TOT                       16928.5620   103.5539   167.8733   702.3818

       T/K    H(0)-H(T)+PV         H(T)/Eh          T*S/Eh         G(T)/Eh
   ------------------------------------------------------------------------
    298.15    0.269774E-01    0.463179E+00    0.797620E-01    0.383417E+00
   ------------------------------------------------------------------------

         :::::::::::::::::::::::::::::::::::::::::::::::::::::
         ::                  THERMODYNAMIC                  ::
         :::::::::::::::::::::::::::::::::::::::::::::::::::::
         :: total free energy         -80.117624710250 Eh   ::
         ::.................................................::
         :: total energy              -80.501041501773 Eh   ::
         :: zero point energy           0.436201422717 Eh   ::
         :: G(RRHO) w/o ZPVE           -0.052784631193 Eh   ::
         :: G(RRHO) contrib.            0.383416791524 Eh   ::
         :::::::::::::::::::::::::::::::::::::::::::::::::::::

           -------------------------------------------------
          | TOTAL ENERGY              -80.501041501773 Eh   |
          | TOTAL ENTHALPY            -80.037862698288 Eh   |
          | TOTAL FREE ENERGY         -80.117624710250 Eh   |
          | GRADIENT NORM               0.000046855739 Eh/α |
          | HOMO-LUMO GAP               2.409218622066 eV   |
           -------------------------------------------------

 * finished run on 2025/09/08 at 23:16:35.251
