   * xtb version 6.7.1 (edcfbbe) compiled by 'albert@albert-system' on 2024-07-22

   ID    Z sym.   atoms
    1    6 C      1-10, 12-23, 25-30
    2    7 N      11
    3    5 B      24
    4    8 O      31
    5    1 H      32-55

          program call               : xtb data2507/toluene/B-O-dpa/B-O-dpa_toluene_T1_crest.xyz --gfn 2 --uhf 2 --gbsa toluene --ohess vtight --parallel 40 --molden --ceasefiles --namespace data2507/toluene/B-O-dpa/B-O-dpa_toluene_T1_finalOpt
      * Solvation model:               GBSA
        Solvent                        toluene
        Solvent mass                       9.2140E+01 g/mol
          :  Hamiltonian                  GFN2-xTB          :
 * total energy  :   -80.4051711 Eh     change       -0.3023274E-08 Eh
 * total energy  :   -80.4052185 Eh     change       -0.4740850E-04 Eh
 * total energy  :   -80.4052424 Eh     change       -0.2386856E-04 Eh
 * total energy  :   -80.4052534 Eh     change       -0.1101257E-04 Eh
 * total energy  :   -80.4052729 Eh     change       -0.1948386E-04 Eh
 * total energy  :   -80.4052973 Eh     change       -0.2440177E-04 Eh
 * total energy  :   -80.4053176 Eh     change       -0.2024247E-04 Eh
 * total energy  :   -80.4053278 Eh     change       -0.1029614E-04 Eh
 * total energy  :   -80.4053347 Eh     change       -0.6858114E-05 Eh
 * total energy  :   -80.4053432 Eh     change       -0.8543125E-05 Eh
 * total energy  :   -80.4053745 Eh     change       -0.1306551E-05 Eh
 * total energy  :   -80.4053750 Eh     change       -0.5023712E-06 Eh
 * total energy  :   -80.4053750 Eh     change        0.6585253E-08 Eh
 * total energy  :   -80.4053755 Eh     change       -0.5382464E-06 Eh
 * total energy  :   -80.4053757 Eh     change       -0.1945230E-06 Eh
 * total energy  :   -80.4053763 Eh     change       -0.5308232E-06 Eh
 * total energy  :   -80.4053764 Eh     change       -0.1481511E-06 Eh
 * total energy  :   -80.4053765 Eh     change       -0.1183203E-06 Eh
 * total energy  :   -80.4053766 Eh     change       -0.7687903E-07 Eh
   *** GEOMETRY OPTIMIZATION CONVERGED AFTER 26 ITERATIONS ***

 final structure:
================
55
 xtb: 6.7.1 (edcfbbe)
C            3.05301276127158       -3.54920505052864        1.10045854245915
C            2.19718804817477       -3.62729413965842       -0.17342235428757
C            3.08421535425899       -3.39879290008720       -1.40712834875947
C            1.60137315708784       -5.03482548118953       -0.26603818452983
C            1.12726114061526       -2.54948649225679       -0.12080522696593
C           -0.23857625519006       -2.82700131868469       -0.13590881452580
C           -1.17389947526626       -1.79105768574884       -0.08973047880772
C           -0.80818922489768       -0.44378372572462       -0.03740365981872
C            0.57499051821123       -0.17229372334400       -0.00280056608895
C            1.51229040739507       -1.20813850666073       -0.05048876502628
N            0.99200860294370        1.14635314757118        0.07165608908499
C            2.39702613022777        1.38102235687551        0.12966045095910
C            3.09439697388510        1.72811559113694       -1.02253802160157
C            4.46102268012266        1.93324093501270       -0.96172860603654
C            5.13461471545520        1.79571902743124        0.24222622466026
C            4.43802411453983        1.45041362121251        1.38945641391623
C            3.07135232132802        1.24007443904082        1.33796667068275
C            0.14702515287801        2.24047974521825        0.01679360191129
C            0.71002495938225        3.51914701726612        0.09120262197073
C           -0.07339290893438        4.65363263298133       -0.06841676902552
C           -1.43107708312456        4.50926521221765       -0.32832769018022
C           -2.00329521345446        3.25101936731640       -0.35829686980317
C           -1.26994172485076        2.07432150481838       -0.12511586772175
B           -1.85669707866488        0.65927300496584       -0.03471078782154
C           -3.29782837402817        0.13813649011275        0.08547311999915
C           -4.46539634519593        0.89646415479734        0.30616489672906
C           -5.72283685806329        0.33234039723369        0.35322464998352
C           -5.88740463491234       -1.04041662765386        0.20394433292236
C           -4.76572503603496       -1.83865899218081        0.03788868407988
C           -3.49959455826131       -1.26626976358718       -0.00144325213723
O           -2.48186498803142       -2.17268242560397       -0.12307351424917
H            3.80401892595210       -4.33623670313541        1.09419231622026
H            2.42768565593876       -3.67574556507218        1.98201989225195
H            3.56327295378463       -2.59292545565224        1.17716750826890
H            2.48223507198622       -3.42701975102934       -2.31319536520034
H            3.58820757986872       -2.43713616291686       -1.36194778892140
H            3.84156522347040       -4.17711304489473       -1.47144288597874
H            2.40536420024534       -5.76682160090365       -0.30809466058028
H            0.99869183730739       -5.14558167414255       -1.16458164881791
H            0.98854144546530       -5.25867929400934        0.60412396948885
H           -0.61675841770144       -3.83373723105936       -0.19805513180825
H            2.56236145886434       -0.96770858885582       -0.02419923687112
H            2.55910611530420        1.83158403511163       -1.95478077722396
H            5.00109187994105        2.19877284326303       -1.85801666507398
H            6.20103562758196        1.95689141263303        0.28579313993841
H            4.95895496570658        1.34387795897730        2.32910524950234
H            2.51879242351982        0.96765569194416        2.22499845539285
H            1.76768895421951        3.63813238898921        0.26895095581723
H            0.37732268309709        5.63217611339893       -0.00513519437666
H           -2.04525427025042        5.38485732836173       -0.48797831881304
H           -3.05697597435005        3.16318428632124       -0.56899445604718
H           -4.36827173884425        1.96118128657076        0.44872541981727
H           -6.58956662576665        0.96141148944521        0.50474411312375
H           -6.87035661782705       -1.48585698347989        0.23327861802511
H           -4.85147844868077       -2.91200081956571       -0.04972982950586

          :  Hamiltonian                  GFN2-xTB          :
         :: gradient norm              0.000061380144 Eh/a0 ::
         :: HOMO-LUMO gap              0.427900310333 eV    ::
         :: SCC energy               -81.789782125424 Eh    ::
         :: -> dispersion             -0.070654591996 Eh    ::
         :: -> Gsolv                  -0.033019805629 Eh    ::
         :: repulsion energy           1.384405527200 Eh    ::

    * Orbital Energies and Occupations

         #    Occupation            Energy/Eh            Energy/eV
      -------------------------------------------------------------
         1        2.0000           -0.7208888             -19.6164
       ...           ...                  ...                  ...
        64        2.0000           -0.4209701             -11.4552
        65        2.0000           -0.4190935             -11.4041
        66        2.0000           -0.4164996             -11.3335
        67        2.0000           -0.4146782             -11.2840
        68        2.0000           -0.4060655             -11.0496
        69        2.0000           -0.4021400             -10.9428
        70        2.0000           -0.3919319             -10.6650
        71        2.0000           -0.3884916             -10.5714
        72        2.0000           -0.3801807             -10.3452
        73        2.0000           -0.3767484             -10.2518
        74        1.9997           -0.3731476             -10.1539
        75        1.0003           -0.3578409              -9.7373
        76        0.9997           -0.2565830              -6.9820 (HOMO)
        77        0.0002           -0.2408579              -6.5541 (LUMO)
        78        0.0000           -0.2387482              -6.4967
        79                         -0.2293439              -6.2408
        80                         -0.2205458              -6.0014
        81                         -0.2121288              -5.7723
        82                         -0.2024358              -5.5086
        83                         -0.1894952              -5.1564
        84                         -0.1384040              -3.7662
        85                         -0.1100777              -2.9954
        86                         -0.0958240              -2.6075
        87                         -0.0830680              -2.2604
       ...                                ...                  ...
       148                          0.7229624              19.6728
      -------------------------------------------------------------
                  HL-Gap            0.0157251 Eh            0.4279 eV

     #   Z          covCN         q      C6AA      α(0)
     1   6 C        3.761    -0.108    22.601     6.777
     2   6 C        3.902     0.027    20.070     6.368
     3   6 C        3.761    -0.108    22.603     6.777
     4   6 C        3.761    -0.109    22.633     6.782
     5   6 C        2.969    -0.003    28.107     8.696
     6   6 C        2.917    -0.052    29.289     8.875
     7   6 C        2.869     0.129    25.172     8.224
     8   6 C        2.891    -0.109    30.756     9.092
     9   6 C        2.927     0.051    26.852     8.498
    10   6 C        2.923    -0.051    29.263     8.871
    11   7 N        2.755    -0.008    21.416     6.873
    12   6 C        2.934     0.062    26.604     8.459
    13   6 C        2.920    -0.035    28.873     8.812
    14   6 C        2.920    -0.026    28.647     8.777
    15   6 C        2.919    -0.029    28.728     8.789
    16   6 C        2.920    -0.026    28.648     8.777
    17   6 C        2.920    -0.036    28.900     8.816
    18   6 C        2.922     0.059    26.673     8.469
    19   6 C        2.918    -0.055    29.370     8.887
    20   6 C        2.914    -0.047    29.165     8.856
    21   6 C        2.912    -0.025    28.636     8.775
    22   6 C        2.919    -0.050    29.245     8.868
    23   6 C        2.883    -0.067    29.676     8.931
    24   5 B        2.723     0.141    19.261     7.354
    25   6 C        2.880    -0.083    30.067     8.989
    26   6 C        2.922    -0.053    29.305     8.877
    27   6 C        2.913    -0.037    28.929     8.820
    28   6 C        2.917    -0.045    29.127     8.850
    29   6 C        2.914    -0.064    29.580     8.918
    30   6 C        2.871     0.132    25.109     8.214
    31   8 O        1.711    -0.246    18.073     5.740
    32   1 H        0.925     0.042     2.420     2.433
    33   1 H        0.925     0.034     2.525     2.485
    34   1 H        0.925     0.038     2.477     2.461
    35   1 H        0.925     0.034     2.526     2.486
    36   1 H        0.925     0.038     2.482     2.464
    37   1 H        0.925     0.042     2.421     2.433
    38   1 H        0.925     0.041     2.442     2.444
    39   1 H        0.925     0.037     2.492     2.469
    40   1 H        0.925     0.037     2.490     2.468
    41   1 H        0.926     0.055     2.264     2.353
    42   1 H        0.926     0.045     2.389     2.417
    43   1 H        0.926     0.045     2.377     2.411
    44   1 H        0.926     0.048     2.347     2.396
    45   1 H        0.926     0.046     2.364     2.404
    46   1 H        0.926     0.048     2.343     2.394
    47   1 H        0.926     0.046     2.366     2.405
    48   1 H        0.926     0.026     2.648     2.545
    49   1 H        0.926     0.022     2.708     2.574
    50   1 H        0.925     0.024     2.677     2.559
    51   1 H        0.926     0.027     2.626     2.534
    52   1 H        0.926     0.026     2.639     2.540
    53   1 H        0.925     0.021     2.718     2.578
    54   1 H        0.926     0.022     2.707     2.573
    55   1 H        0.926     0.027     2.626     2.534

molecular dipole:
                 x           y           z       tot (Debye)
 q only:        2.712       0.056       0.049
   full:        2.690       0.044       0.044       6.838

 projected vibrational frequencies (cm⁻¹)
eigval :       -0.00    -0.00     0.00     0.00     0.00     0.00
eigval :       17.57    21.28    37.15    44.19    57.71    59.95
eigval :       72.18   106.41   113.25   123.81   157.85   175.90
eigval :      185.80   201.09   216.80   219.75   233.77   247.16
eigval :      248.63   257.08   275.00   298.26   315.46   318.79
eigval :      350.81   357.49   371.86   373.96   397.47   401.32
eigval :      421.75   425.75   450.07   470.70   482.35   485.47
eigval :      493.00   507.24   526.95   556.74   564.14   568.99
eigval :      582.27   587.10   597.95   623.86   639.87   651.67
eigval :      659.93   674.03   677.87   695.22   734.65   746.70
eigval :      749.07   777.50   801.19   804.53   823.38   839.06
eigval :      852.36   854.55   862.17   872.22   875.52   884.22
eigval :      892.46   898.54   899.05   904.11   908.81   926.73
eigval :      929.16   956.90   957.73   963.25   964.28   984.26
eigval :     1033.82  1035.44  1058.09  1067.87  1076.49  1078.35
eigval :     1095.29  1114.72  1117.55  1122.21  1158.76  1168.49
eigval :     1177.49  1178.07  1183.83  1185.27  1199.62  1202.18
eigval :     1218.05  1223.09  1225.51  1232.04  1245.99  1249.76
eigval :     1256.01  1272.43  1276.06  1302.27  1305.56  1307.46
eigval :     1330.92  1345.86  1354.62  1383.41  1395.78  1402.26
eigval :     1402.43  1408.04  1416.13  1426.19  1428.03  1452.13
eigval :     1461.36  1476.28  1487.36  1487.64  1490.63  1495.69
eigval :     1500.42  1501.99  1508.62  1509.59  1514.81  1517.33
eigval :     1555.26  1561.41  1574.36  3022.61  3023.05  3025.76
eigval :     3027.42  3029.80  3032.69  3037.87  3043.49  3047.11
eigval :     3057.09  3061.09  3072.58  3081.49  3082.21  3083.57
eigval :     3084.72  3090.10  3094.09  3095.63  3096.79  3101.00
eigval :     3105.56  3113.01  3118.59

   temp. (K)  partition function   enthalpy   heat capacity  entropy
                                   cal/mol     cal/K/mol   cal/K/mol   J/K/mol
 298.15  VIB  0.205E+11            14842.074     97.332     89.582
         ROT  0.193E+08              888.752      2.981     36.315
         INT  0.394E+18            15730.826    100.313    125.898
         TR   0.778E+28             1481.254      4.968     43.840
         TOT                       17212.0800   105.2813   169.7378   710.1831

       T/K    H(0)-H(T)+PV         H(T)/Eh          T*S/Eh         G(T)/Eh
   ------------------------------------------------------------------------
    298.15    0.274292E-01    0.459476E+00    0.806479E-01    0.378828E+00
   ------------------------------------------------------------------------

         :::::::::::::::::::::::::::::::::::::::::::::::::::::
         ::                  THERMODYNAMIC                  ::
         :::::::::::::::::::::::::::::::::::::::::::::::::::::
         :: total free energy         -80.026548378320 Eh   ::
         ::.................................................::
         :: total energy              -80.405376599167 Eh   ::
         :: zero point energy           0.432046947888 Eh   ::
         :: G(RRHO) w/o ZPVE           -0.053218727042 Eh   ::
         :: G(RRHO) contrib.            0.378828220847 Eh   ::
         :::::::::::::::::::::::::::::::::::::::::::::::::::::

           -------------------------------------------------
          | TOTAL ENERGY              -80.405376599167 Eh   |
          | TOTAL ENTHALPY            -79.945900455802 Eh   |
          | TOTAL FREE ENERGY         -80.026548378320 Eh   |
          | GRADIENT NORM               0.000062218181 Eh/α |
          | HOMO-LUMO GAP               0.427901452230 eV   |
           -------------------------------------------------

 * finished run on 2025/09/08 at 23:19:39.929
