   * xtb version 6.7.1 (edcfbbe) compiled by 'albert@albert-system' on 2024-07-22

   ID    Z sym.   atoms
    1    6 C      1-10, 12-23, 25-30
    2    7 N      11
    3    5 B      24
    4    8 O      31
    5    1 H      32-55

          program call               : xtb data2507/toluene/B-O-dpa/B-O-dpa_toluene_S0_crest.xyz --gfn 2 --gbsa toluene --ohess vtight --parallel 40 --molden --ceasefiles --namespace data2507/toluene/B-O-dpa/B-O-dpa_toluene_S0_finalOpt
      * Solvation model:               GBSA
        Solvent                        toluene
        Solvent mass                       9.2140E+01 g/mol
          :  Hamiltonian                  GFN2-xTB          :
 * total energy  :   -80.5009920 Eh     change       -0.2125063E-08 Eh
 * total energy  :   -80.5010223 Eh     change       -0.3029965E-04 Eh
 * total energy  :   -80.5010312 Eh     change       -0.8980581E-05 Eh
 * total energy  :   -80.5010323 Eh     change       -0.1050011E-05 Eh
 * total energy  :   -80.5010332 Eh     change       -0.9120226E-06 Eh
 * total energy  :   -80.5010342 Eh     change       -0.9488397E-06 Eh
 * total energy  :   -80.5010349 Eh     change       -0.7108700E-06 Eh
 * total energy  :   -80.5010351 Eh     change       -0.2685855E-06 Eh
 * total energy  :   -80.5010353 Eh     change       -0.1456227E-06 Eh
 * total energy  :   -80.5010355 Eh     change       -0.1694097E-06 Eh
 * total energy  :   -80.5010356 Eh     change       -0.1844398E-06 Eh
 * total energy  :   -80.5010358 Eh     change       -0.1330994E-06 Eh
 * total energy  :   -80.5010359 Eh     change       -0.8493414E-07 Eh
   *** GEOMETRY OPTIMIZATION CONVERGED AFTER 13 ITERATIONS ***

 final structure:
================
55
 xtb: 6.7.1 (edcfbbe)
C            3.06606681521448       -3.43620367508577        1.34771364348020
C            2.16857558020275       -3.63226424569530        0.11667985887856
C            3.01185323471804       -3.52818092056612       -1.16300506063467
C            1.57128144234910       -5.04091177419679        0.18133133706891
C            1.10468619077957       -2.54418570122425        0.10032072194206
C           -0.25495242044190       -2.82749485879456        0.14540559755484
C           -1.18037409793170       -1.79260931753623        0.11683034463476
C           -0.79642223702176       -0.44674942306695        0.05985225820927
C            0.58486793465234       -0.17108251677351        0.02812268326920
C            1.50751928362996       -1.21615583047252        0.03861723818428
N            1.00387084251662        1.14153410633587       -0.01937142337003
C            2.40876435983297        1.37572224284682       -0.13914398488109
C            2.98692304603621        1.46372826129512       -1.39868880465596
C            4.35110258055664        1.66915511547960       -1.51574800491462
C            5.13725470176471        1.78498640404571       -0.38093801856438
C            4.55907353163391        1.69763157101178        0.87541571081098
C            3.19609781473187        1.49241218852399        1.00005548173685
C            0.15776910096644        2.22908168107604        0.09816285837429
C            0.72319658538587        3.51338049059068        0.14219018218721
C           -0.06250915305860        4.62754285934200        0.31918218707593
C           -1.43767168396671        4.49300768219593        0.47285479393786
C           -2.00192741688464        3.24002988685702        0.40131741193531
C           -1.24855381115336        2.07822327840552        0.18277851058159
B           -1.83692799869423        0.65960491456314        0.04365480347331
C           -3.29434276925463        0.14406731484695       -0.11011685411524
C           -4.43832101856255        0.91253129318224       -0.36535182622855
C           -5.69855737281973        0.36180365367362       -0.45284089900070
C           -5.86915776623699       -1.00774616990693       -0.28807351797442
C           -4.77044387100436       -1.80878521258025       -0.07476352835754
C           -3.49345677905474       -1.24526307774002       -0.00551981288546
O           -2.49165219307053       -2.15469236891516        0.15886510876412
H            3.81778176891645       -4.22162633675816        1.39031544862898
H            2.47000106484996       -3.47821116642292        2.25727840335892
H            3.57642567364906       -2.47743774346721        1.31791858338649
H            2.37736584314824       -3.63505337275990       -2.04072743949001
H            3.52229683426486       -2.57094528755542       -1.22555473621428
H            3.76164001222174       -4.31640185139154       -1.18061947182253
H            2.37478486367035       -5.77484342176214        0.18942574093941
H            0.94293944528607       -5.23970547246657       -0.68380733887926
H            0.98387583528289       -5.17547928894496        1.08665428309026
H           -0.63165178158358       -3.83472414098976        0.19490982537420
H            2.55935676894216       -0.98458261388689        0.00718744973764
H            2.36367368995531        1.36884887522026       -2.27574849913985
H            4.80018298567805        1.73679791794262       -2.49545519953272
H            6.20108352099939        1.94380650877795       -0.47521193351662
H            5.17032564638543        1.78729666971539        1.76112808205878
H            2.73351713513947        1.41929677829700        1.97350362162445
H            1.79198615597610        3.63357917523445        0.04799918234483
H            0.39640868319468        5.60547025294410        0.35315178741990
H           -2.05350532652921        5.36421060567845        0.64345262629072
H           -3.06725510443069        3.14196916355434        0.53762897306446
H           -4.32504753812617        1.97421394767196       -0.51839981486729
H           -6.55409759154450        0.99160841643252       -0.64989418475200
H           -6.85482610013315       -1.44629743287322       -0.34294624979539
H           -4.86574487292796       -2.87964442590784        0.02899095287421

          :  Hamiltonian                  GFN2-xTB          :
         :: gradient norm              0.000036043294 Eh/a0 ::
         :: HOMO-LUMO gap              2.408591879849 eV    ::
         :: SCC energy               -81.901866479561 Eh    ::
         :: -> dispersion             -0.070803435884 Eh    ::
         :: -> Gsolv                  -0.031676844326 Eh    ::
         :: repulsion energy           1.400830623208 Eh    ::

    * Orbital Energies and Occupations

         #    Occupation            Energy/Eh            Energy/eV
      -------------------------------------------------------------
         1        2.0000           -0.7220755             -19.6487
       ...           ...                  ...                  ...
        63        2.0000           -0.4240561             -11.5392
        64        2.0000           -0.4208412             -11.4517
        65        2.0000           -0.4188287             -11.3969
        66        2.0000           -0.4164552             -11.3323
        67        2.0000           -0.4104028             -11.1676
        68        2.0000           -0.4082068             -11.1079
        69        2.0000           -0.4038847             -10.9903
        70        2.0000           -0.3963124             -10.7842
        71        2.0000           -0.3915522             -10.6547
        72        2.0000           -0.3857052             -10.4956
        73        2.0000           -0.3817795             -10.3887
        74        2.0000           -0.3766605             -10.2495
        75        2.0000           -0.3506636              -9.5420 (HOMO)
        76                         -0.2621495              -7.1335 (LUMO)
        77                         -0.2358117              -6.4168
        78                         -0.2347623              -6.3882
        79                         -0.2243830              -6.1058
        80                         -0.2201205              -5.9898
        81                         -0.2166937              -5.8965
        82                         -0.2041902              -5.5563
        83                         -0.1845413              -5.0216
        84                         -0.1438174              -3.9135
        85                         -0.1056444              -2.8747
        86                         -0.0910962              -2.4789
       ...                                ...                  ...
       148                          0.7162487              19.4901
      -------------------------------------------------------------
                  HL-Gap            0.0885140 Eh            2.4086 eV

     #   Z          covCN         q      C6AA      α(0)
     1   6 C        3.761    -0.106    22.564     6.771
     2   6 C        3.903     0.025    20.091     6.371
     3   6 C        3.761    -0.106    22.565     6.772
     4   6 C        3.761    -0.108    22.604     6.778
     5   6 C        2.974     0.012    27.738     8.639
     6   6 C        2.918    -0.080    30.011     8.983
     7   6 C        2.871     0.134    25.077     8.209
     8   6 C        2.894    -0.117    30.962     9.123
     9   6 C        2.927     0.059    26.683     8.471
    10   6 C        2.925    -0.076    29.901     8.967
    11   7 N        2.755    -0.051    22.230     7.003
    12   6 C        2.933     0.068    26.484     8.440
    13   6 C        2.921    -0.037    28.927     8.820
    14   6 C        2.920    -0.027    28.679     8.782
    15   6 C        2.919    -0.030    28.746     8.792
    16   6 C        2.920    -0.027    28.688     8.783
    17   6 C        2.921    -0.037    28.921     8.819
    18   6 C        2.924     0.061    26.638     8.464
    19   6 C        2.920    -0.057    29.406     8.893
    20   6 C        2.919    -0.030    28.738     8.791
    21   6 C        2.914    -0.044    29.103     8.846
    22   6 C        2.923    -0.034    28.843     8.807
    23   6 C        2.886    -0.085    30.134     9.000
    24   5 B        2.723     0.198    18.408     7.190
    25   6 C        2.882    -0.092    30.297     9.024
    26   6 C        2.925    -0.035    28.881     8.813
    27   6 C        2.915    -0.043    29.068     8.841
    28   6 C        2.920    -0.030    28.753     8.793
    29   6 C        2.916    -0.057    29.406     8.892
    30   6 C        2.875     0.135    25.041     8.203
    31   8 O        1.711    -0.250    18.145     5.751
    32   1 H        0.925     0.041     2.438     2.442
    33   1 H        0.925     0.034     2.536     2.490
    34   1 H        0.925     0.037     2.484     2.465
    35   1 H        0.925     0.034     2.537     2.491
    36   1 H        0.925     0.037     2.486     2.465
    37   1 H        0.925     0.041     2.437     2.441
    38   1 H        0.925     0.039     2.465     2.455
    39   1 H        0.925     0.036     2.500     2.472
    40   1 H        0.925     0.036     2.498     2.472
    41   1 H        0.926     0.042     2.421     2.433
    42   1 H        0.926     0.030     2.583     2.513
    43   1 H        0.926     0.043     2.414     2.430
    44   1 H        0.926     0.044     2.395     2.420
    45   1 H        0.926     0.043     2.404     2.425
    46   1 H        0.926     0.044     2.398     2.422
    47   1 H        0.926     0.043     2.413     2.429
    48   1 H        0.926     0.024     2.672     2.556
    49   1 H        0.926     0.025     2.654     2.548
    50   1 H        0.926     0.022     2.702     2.571
    51   1 H        0.926     0.032     2.552     2.498
    52   1 H        0.926     0.038     2.473     2.459
    53   1 H        0.926     0.030     2.585     2.514
    54   1 H        0.926     0.034     2.532     2.488
    55   1 H        0.926     0.037     2.489     2.467

molecular dipole:
                 x           y           z       tot (Debye)
 q only:        1.460       0.249      -0.125
   full:        1.460       0.239      -0.114       3.770

 projected vibrational frequencies (cm⁻¹)
eigval :       -0.00    -0.00     0.00     0.00     0.00     0.00
eigval :       18.90    33.39    38.53    44.96    58.75    61.17
eigval :       70.68   109.68   117.04   125.64   164.03   181.71
eigval :      191.71   202.17   218.91   222.57   238.00   248.57
eigval :      252.11   263.42   278.93   308.19   317.29   328.36
eigval :      353.01   371.57   376.47   382.56   401.87   406.52
eigval :      425.60   434.21   454.77   487.03   491.48   492.71
eigval :      499.05   534.10   555.96   563.39   574.41   579.60
eigval :      590.09   597.08   631.87   633.75   650.86   667.22
eigval :      681.88   684.96   691.09   716.31   752.34   767.81
eigval :      775.91   783.03   815.88   829.75   859.14   859.87
eigval :      865.85   874.92   876.36   895.44   902.05   903.63
eigval :      910.34   914.19   921.15   923.81   925.64   928.97
eigval :      933.12   959.15   959.83   964.06   967.69   990.64
eigval :     1033.94  1035.27  1076.20  1078.49  1081.82  1089.16
eigval :     1108.21  1111.06  1132.98  1140.04  1167.87  1175.02
eigval :     1181.84  1184.20  1186.59  1204.30  1211.06  1225.62
eigval :     1227.15  1234.20  1240.60  1256.09  1266.40  1271.51
eigval :     1272.06  1296.65  1304.67  1306.56  1322.46  1332.44
eigval :     1344.62  1350.47  1397.88  1402.55  1406.93  1416.50
eigval :     1425.90  1428.82  1430.18  1445.48  1447.16  1464.44
eigval :     1474.56  1487.85  1491.87  1498.29  1501.45  1509.56
eigval :     1516.76  1537.23  1547.86  1553.59  1581.63  1582.46
eigval :     1591.59  1592.81  1596.75  3020.32  3021.64  3024.85
eigval :     3026.27  3028.52  3031.91  3036.44  3043.27  3046.87
eigval :     3064.90  3069.12  3075.05  3077.06  3077.55  3079.44
eigval :     3086.35  3088.14  3090.11  3091.34  3097.67  3099.19
eigval :     3105.30  3113.04  3125.43

   temp. (K)  partition function   enthalpy   heat capacity  entropy
                                   cal/mol     cal/K/mol   cal/K/mol   J/K/mol
 298.15  VIB  0.801E+10            14533.128     95.718     87.566
         ROT  0.192E+08              888.752      2.981     36.309
         INT  0.154E+18            15421.880     98.699    123.876
         TR   0.778E+28             1481.254      4.968     43.840
         TOT                       16903.1341   103.6675   167.7156   701.7222

       T/K    H(0)-H(T)+PV         H(T)/Eh          T*S/Eh         G(T)/Eh
   ------------------------------------------------------------------------
    298.15    0.269369E-01    0.463170E+00    0.796871E-01    0.383483E+00
   ------------------------------------------------------------------------

         :::::::::::::::::::::::::::::::::::::::::::::::::::::
         ::                  THERMODYNAMIC                  ::
         :::::::::::::::::::::::::::::::::::::::::::::::::::::
         :: total free energy         -80.117553137669 Eh   ::
         ::.................................................::
         :: total energy              -80.501035860444 Eh   ::
         :: zero point energy           0.436232967103 Eh   ::
         :: G(RRHO) w/o ZPVE           -0.052750244328 Eh   ::
         :: G(RRHO) contrib.            0.383482722775 Eh   ::
         :::::::::::::::::::::::::::::::::::::::::::::::::::::

           -------------------------------------------------
          | TOTAL ENERGY              -80.501035860444 Eh   |
          | TOTAL ENTHALPY            -80.037866034470 Eh   |
          | TOTAL FREE ENERGY         -80.117553137669 Eh   |
          | GRADIENT NORM               0.000036057246 Eh/α |
          | HOMO-LUMO GAP               2.408589508723 eV   |
           -------------------------------------------------

 * finished run on 2025/09/08 at 23:17:59.258
