   * xtb version 6.7.1 (edcfbbe) compiled by 'albert@albert-system' on 2024-07-22

   ID    Z sym.   atoms
    1    6 C      1-10, 12-23, 25-30
    2    7 N      11
    3    5 B      24
    4    8 O      31
    5    1 H      32-55

          program call               : xtb data2507/toluene/B-O-dpa/B-O-dpa_toluene_S0_finalOpt.xtbopt.xyz --gfn 2 --uhf 2 --gbsa toluene --ohess vtight --parallel 40 --molden --ceasefiles --namespace data2507/toluene/B-O-dpa/B-O-dpa_toluene_T1_preOpt
      * Solvation model:               GBSA
        Solvent                        toluene
        Solvent mass                       9.2140E+01 g/mol
          :  Hamiltonian                  GFN2-xTB          :
 * total energy  :   -80.4038144 Eh     change       -0.2927621E-08 Eh
 * total energy  :   -80.4049474 Eh     change       -0.1132926E-02 Eh
 * total energy  :   -80.4052182 Eh     change       -0.2707922E-03 Eh
 * total energy  :   -80.4052389 Eh     change       -0.2073562E-04 Eh
 * total energy  :   -80.4052495 Eh     change       -0.1064074E-04 Eh
 * total energy  :   -80.4052550 Eh     change       -0.5510943E-05 Eh
 * total energy  :   -80.4052665 Eh     change       -0.1148659E-04 Eh
 * total energy  :   -80.4052726 Eh     change       -0.6072229E-05 Eh
 * total energy  :   -80.4052790 Eh     change       -0.6409744E-05 Eh
 * total energy  :   -80.4052841 Eh     change       -0.5077887E-05 Eh
 * total energy  :   -80.4053573 Eh     change       -0.1588085E-05 Eh
 * total energy  :   -80.4053583 Eh     change       -0.1044139E-05 Eh
 * total energy  :   -80.4053591 Eh     change       -0.7819421E-06 Eh
 * total energy  :   -80.4053598 Eh     change       -0.6807934E-06 Eh
 * total energy  :   -80.4053605 Eh     change       -0.7160045E-06 Eh
 * total energy  :   -80.4053611 Eh     change       -0.6352513E-06 Eh
 * total energy  :   -80.4053615 Eh     change       -0.3875360E-06 Eh
 * total energy  :   -80.4053618 Eh     change       -0.2455383E-06 Eh
 * total energy  :   -80.4053618 Eh     change       -0.3895792E-08 Eh
   *** GEOMETRY OPTIMIZATION CONVERGED AFTER 44 ITERATIONS ***

 final structure:
================
55
 xtb: 6.7.1 (edcfbbe)
C            3.06961569240242       -3.44854802942165        1.30962882999281
C            2.18221922059102       -3.63825553800372        0.06963374515127
C            3.03859440058941       -3.52625372306102       -1.20134728103494
C            1.58138009833186       -5.04573878930787        0.12082954227516
C            1.11620380306396       -2.55553871944177        0.04891130728104
C           -0.25067642894948       -2.82792860333576        0.06312277352530
C           -1.18199750769346       -1.78747129651126        0.04704960625794
C           -0.81108414595429       -0.44076482422039        0.02713251970911
C            0.57305497115204       -0.17399302965071       -0.00492014858295
C            1.50640465225757       -1.21433013790455        0.01201278999607
N            0.99500493429048        1.14437539143163       -0.04752494831763
C            2.40104604997573        1.37417179922917       -0.10469124240332
C            3.06797055639403        1.27244989745989       -1.32085373267902
C            4.43570529043104        1.47596929663165       -1.37220341980037
C            5.14025302124934        1.77619228000937       -0.21722109569538
C            4.47380029202024        1.87508190121796        0.99442242458647
C            3.10622794861464        1.67601716830045        1.05529597930165
C            0.15480369685194        2.24023734773758        0.03609577488184
C            0.72351177562298        3.51782731933573       -0.00535391803363
C           -0.05510627088983        4.65134542772010        0.18222074106593
C           -1.41369857191273        4.50647282848679        0.43683854953403
C           -1.99125290900846        3.25025942809647        0.43602788261797
C           -1.26274435646646        2.07650278061775        0.17466058075550
B           -1.85512798281918        0.66623024007836        0.05156800096028
C           -3.29834429956539        0.15361640007799       -0.07925505968854
C           -4.46304395375031        0.92140887761220       -0.28177427735311
C           -5.72281892348246        0.36355916882350       -0.33993324496791
C           -5.89281254200796       -1.01159604269003       -0.22165711511027
C           -4.77418318453963       -1.81784068587555       -0.07442958111647
C           -3.50572997455035       -1.25156656088817       -0.02364801851146
O           -2.49144935091739       -2.16461553911831        0.07550861896998
H            3.82331826972824       -4.23187629346786        1.35252824900879
H            2.46695636541858       -3.49914911441819        2.21429262306620
H            3.57794496803989       -2.48825193539609        1.29134898940904
H            2.41274169580424       -3.62321820124513       -2.08629826238205
H            3.55381747700295       -2.57079650845037       -1.24949802850185
H            3.78565996599324       -4.31687694353311       -1.21865494396185
H            2.38263945243315       -5.78170804520656        0.13849716411323
H            0.96567647592524       -5.24038562338583       -0.75430487161930
H            0.98040327696712       -5.18183562736454        1.01700698604256
H           -0.63269602991943       -3.83442806244285        0.10118583734371
H            2.55735119746685       -0.97741886750423       -0.01206200114690
H            2.50891940361754        1.03503853184844       -2.21381276657688
H            4.95116110915584        1.39943967968338       -2.31774104796862
H            6.20748739677768        1.93197650715301       -0.26063741872842
H            5.02008710070160        2.10569866061133        1.89660177774827
H            2.57636691881272        1.74943851691006        1.99346646364799
H            1.78201535096960        3.63649512444874       -0.17829056803149
H            0.40000461159918        5.62917120161433        0.14418502030517
H           -2.02433875966382        5.38053802426316        0.61715491647761
H           -3.04546494700933        3.16189868707753        0.64381208725281
H           -4.36173329342307        1.98864035285626       -0.40060122841783
H           -6.58714513418389        0.99931746411496       -0.47652924610239
H           -6.87755115644232       -1.45232556739993       -0.25998807192013
H           -4.86427701514121       -2.89250023753689       -0.01088326636309

          :  Hamiltonian                  GFN2-xTB          :
         :: gradient norm              0.000043866318 Eh/a0 ::
         :: HOMO-LUMO gap              0.424835620937 eV    ::
         :: SCC energy               -81.789840506674 Eh    ::
         :: -> dispersion             -0.070654112194 Eh    ::
         :: -> Gsolv                  -0.033026203451 Eh    ::
         :: repulsion energy           1.384478737438 Eh    ::

    * Orbital Energies and Occupations

         #    Occupation            Energy/Eh            Energy/eV
      -------------------------------------------------------------
         1        2.0000           -0.7208437             -19.6152
       ...           ...                  ...                  ...
        64        2.0000           -0.4210334             -11.4569
        65        2.0000           -0.4191194             -11.4048
        66        2.0000           -0.4164785             -11.3330
        67        2.0000           -0.4147498             -11.2859
        68        2.0000           -0.4060555             -11.0493
        69        2.0000           -0.4021146             -10.9421
        70        2.0000           -0.3919146             -10.6645
        71        2.0000           -0.3884610             -10.5706
        72        2.0000           -0.3801406             -10.3442
        73        2.0000           -0.3767310             -10.2514
        74        1.9997           -0.3731469             -10.1538
        75        1.0003           -0.3578350              -9.7372
        76        0.9997           -0.2565306              -6.9806 (HOMO)
        77        0.0003           -0.2409182              -6.5557 (LUMO)
        78        0.0000           -0.2388477              -6.4994
        79                         -0.2293125              -6.2399
        80                         -0.2205189              -6.0006
        81                         -0.2121074              -5.7717
        82                         -0.2024193              -5.5081
        83                         -0.1894874              -5.1562
        84                         -0.1383779              -3.7655
        85                         -0.1101544              -2.9975
        86                         -0.0957803              -2.6063
        87                         -0.0830323              -2.2594
       ...                                ...                  ...
       148                          0.7230164              19.6743
      -------------------------------------------------------------
                  HL-Gap            0.0156124 Eh            0.4248 eV

     #   Z          covCN         q      C6AA      α(0)
     1   6 C        3.761    -0.108    22.602     6.777
     2   6 C        3.902     0.027    20.070     6.368
     3   6 C        3.761    -0.108    22.602     6.777
     4   6 C        3.761    -0.109    22.633     6.782
     5   6 C        2.969    -0.003    28.108     8.696
     6   6 C        2.917    -0.052    29.288     8.875
     7   6 C        2.869     0.129    25.174     8.225
     8   6 C        2.891    -0.109    30.757     9.093
     9   6 C        2.927     0.051    26.852     8.498
    10   6 C        2.923    -0.051    29.263     8.871
    11   7 N        2.755    -0.008    21.418     6.873
    12   6 C        2.934     0.062    26.601     8.459
    13   6 C        2.921    -0.036    28.898     8.815
    14   6 C        2.920    -0.026    28.647     8.777
    15   6 C        2.919    -0.029    28.725     8.789
    16   6 C        2.920    -0.026    28.646     8.777
    17   6 C        2.920    -0.035    28.873     8.812
    18   6 C        2.922     0.059    26.672     8.469
    19   6 C        2.918    -0.055    29.372     8.887
    20   6 C        2.914    -0.047    29.165     8.856
    21   6 C        2.912    -0.025    28.636     8.775
    22   6 C        2.919    -0.050    29.246     8.868
    23   6 C        2.882    -0.067    29.676     8.931
    24   5 B        2.723     0.141    19.262     7.354
    25   6 C        2.880    -0.083    30.067     8.989
    26   6 C        2.922    -0.053    29.306     8.878
    27   6 C        2.913    -0.037    28.929     8.820
    28   6 C        2.917    -0.045    29.128     8.850
    29   6 C        2.914    -0.064    29.581     8.919
    30   6 C        2.871     0.132    25.109     8.214
    31   8 O        1.711    -0.246    18.075     5.740
    32   1 H        0.925     0.042     2.421     2.433
    33   1 H        0.925     0.034     2.527     2.486
    34   1 H        0.925     0.038     2.482     2.464
    35   1 H        0.925     0.034     2.525     2.485
    36   1 H        0.925     0.038     2.477     2.461
    37   1 H        0.925     0.042     2.420     2.433
    38   1 H        0.925     0.041     2.442     2.444
    39   1 H        0.925     0.037     2.490     2.468
    40   1 H        0.925     0.037     2.492     2.469
    41   1 H        0.926     0.055     2.264     2.353
    42   1 H        0.926     0.044     2.390     2.417
    43   1 H        0.926     0.046     2.365     2.405
    44   1 H        0.926     0.048     2.341     2.393
    45   1 H        0.926     0.047     2.363     2.404
    46   1 H        0.926     0.048     2.345     2.395
    47   1 H        0.926     0.046     2.376     2.410
    48   1 H        0.926     0.026     2.649     2.545
    49   1 H        0.926     0.022     2.709     2.574
    50   1 H        0.925     0.024     2.678     2.559
    51   1 H        0.926     0.027     2.627     2.535
    52   1 H        0.926     0.026     2.640     2.541
    53   1 H        0.925     0.021     2.718     2.578
    54   1 H        0.926     0.022     2.707     2.573
    55   1 H        0.926     0.027     2.627     2.535

molecular dipole:
                 x           y           z       tot (Debye)
 q only:        2.721       0.047      -0.056
   full:        2.699       0.036      -0.052       6.861

 projected vibrational frequencies (cm⁻¹)
eigval :       -0.00    -0.00     0.00     0.00     0.00     0.00
eigval :       16.38    28.90    35.57    43.44    58.57    62.09
eigval :       71.71   107.06   111.77   123.38   157.96   176.28
eigval :      185.47   198.98   215.97   220.17   233.13   247.52
eigval :      248.66   256.49   274.69   297.74   314.39   316.87
eigval :      350.61   356.44   371.49   374.74   396.62   400.37
eigval :      421.46   425.44   449.61   470.75   483.26   485.58
eigval :      492.98   507.77   526.70   556.96   562.98   568.91
eigval :      582.41   586.56   597.56   623.86   640.00   650.58
eigval :      660.53   673.21   678.53   694.58   734.18   747.09
eigval :      749.07   778.05   801.30   803.90   822.95   839.18
eigval :      851.91   854.24   861.24   874.47   875.03   884.01
eigval :      892.56   899.23   899.69   904.27   908.80   929.24
eigval :      931.42   955.97   956.45   962.69   964.18   984.37
eigval :     1033.23  1033.88  1057.98  1068.06  1075.51  1078.50
eigval :     1095.43  1111.81  1117.58  1122.01  1159.06  1168.70
eigval :     1177.49  1177.72  1182.63  1184.12  1199.72  1202.00
eigval :     1217.95  1222.66  1225.66  1232.19  1246.13  1249.79
eigval :     1256.03  1270.53  1276.17  1302.14  1305.57  1307.44
eigval :     1330.82  1345.86  1354.60  1383.30  1395.79  1402.18
eigval :     1402.40  1408.08  1416.03  1425.83  1428.07  1451.99
eigval :     1461.22  1476.31  1487.36  1487.69  1490.43  1495.37
eigval :     1500.13  1502.14  1508.66  1509.08  1514.56  1516.16
eigval :     1555.53  1562.61  1575.17  3022.18  3022.79  3025.28
eigval :     3027.22  3029.44  3032.17  3037.24  3042.90  3046.85
eigval :     3057.13  3060.65  3073.18  3081.42  3082.19  3083.46
eigval :     3084.99  3090.04  3094.01  3095.48  3096.78  3101.03
eigval :     3105.46  3111.94  3118.35

   temp. (K)  partition function   enthalpy   heat capacity  entropy
                                   cal/mol     cal/K/mol   cal/K/mol   J/K/mol
 298.15  VIB  0.171E+11            14843.402     97.417     89.518
         ROT  0.193E+08              888.752      2.981     36.315
         INT  0.330E+18            15732.154    100.398    125.833
         TR   0.778E+28             1481.254      4.968     43.840
         TOT                       17213.4083   105.3661   169.6731   709.9122

       T/K    H(0)-H(T)+PV         H(T)/Eh          T*S/Eh         G(T)/Eh
   ------------------------------------------------------------------------
    298.15    0.274313E-01    0.459432E+00    0.806172E-01    0.378815E+00
   ------------------------------------------------------------------------

         :::::::::::::::::::::::::::::::::::::::::::::::::::::
         ::                  THERMODYNAMIC                  ::
         :::::::::::::::::::::::::::::::::::::::::::::::::::::
         :: total free energy         -80.026546991202 Eh   ::
         ::.................................................::
         :: total energy              -80.405361768742 Eh   ::
         :: zero point energy           0.432000623130 Eh   ::
         :: G(RRHO) w/o ZPVE           -0.053185845590 Eh   ::
         :: G(RRHO) contrib.            0.378814777540 Eh   ::
         :::::::::::::::::::::::::::::::::::::::::::::::::::::

           -------------------------------------------------
          | TOTAL ENERGY              -80.405361768742 Eh   |
          | TOTAL ENTHALPY            -79.945929833358 Eh   |
          | TOTAL FREE ENERGY         -80.026546991202 Eh   |
          | GRADIENT NORM               0.000043806136 Eh/α |
          | HOMO-LUMO GAP               0.424835668966 eV   |
           -------------------------------------------------

 * finished run on 2025/09/08 at 23:18:02.586
