   * xtb version 6.7.1 (edcfbbe) compiled by 'albert@albert-system' on 2024-07-22

   ID    Z sym.   atoms
    1    6 C      1-20, 22-25, 27-31, 33, 34, 36-56
    2    7 N      21, 32, 35
    3    8 O      26
    4    1 H      57-111

          program call               : xtb data2507/toluene/2BPy-mDTC/2BPy-mDTC_toluene_T1_crest.xyz --gfn 2 --uhf 2 --gbsa toluene --ohess vtight --parallel 40 --molden --ceasefiles --namespace data2507/toluene/2BPy-mDTC/2BPy-mDTC_toluene_T1_finalOpt
      * Solvation model:               GBSA
        Solvent                        toluene
        Solvent mass                       9.2140E+01 g/mol
          :  Hamiltonian                  GFN2-xTB          :
 * total energy  :  -152.3613079 Eh     change       -0.4906184E-08 Eh
 * total energy  :  -152.3615086 Eh     change       -0.2006779E-03 Eh
 * total energy  :  -152.3615970 Eh     change       -0.8840776E-04 Eh
 * total energy  :  -152.3616182 Eh     change       -0.2120269E-04 Eh
 * total energy  :  -152.3616345 Eh     change       -0.1630756E-04 Eh
 * total energy  :  -152.3616623 Eh     change       -0.2781909E-04 Eh
 * total energy  :  -152.3616726 Eh     change       -0.1024280E-04 Eh
 * total energy  :  -152.3616948 Eh     change       -0.2225184E-04 Eh
 * total energy  :  -152.3616701 Eh     change        0.2475459E-04 Eh
 * total energy  :  -152.3616964 Eh     change       -0.2634481E-04 Eh
 * total energy  :  -152.3618795 Eh     change       -0.2560995E-06 Eh
 * total energy  :  -152.3618797 Eh     change       -0.1981826E-06 Eh
 * total energy  :  -152.3618799 Eh     change       -0.2324287E-06 Eh
 * total energy  :  -152.3618801 Eh     change       -0.1791314E-06 Eh
 * total energy  :  -152.3618803 Eh     change       -0.2029556E-06 Eh
 * total energy  :  -152.3618804 Eh     change       -0.1756305E-06 Eh
 * total energy  :  -152.3618806 Eh     change       -0.1656145E-06 Eh
 * total energy  :  -152.3618808 Eh     change       -0.1470079E-06 Eh
 * total energy  :  -152.3618809 Eh     change       -0.9195821E-07 Eh
   *** GEOMETRY OPTIMIZATION CONVERGED AFTER 59 ITERATIONS ***

 final structure:
================
111
 xtb: 6.7.1 (edcfbbe)
C            8.69340073597602        0.44917279962396       -1.70491637048289
C            7.55978334466871        1.26307210460732       -2.33676541397039
C            7.92821854911171        2.75125963193268       -2.23650198120358
C            7.44383040654924        0.85429216025557       -3.81321165790838
C            6.22141818133089        1.03539436917178       -1.65023773887435
C            5.09228347023945        1.71949581676890       -2.12110186480139
C            3.83992302578908        1.57958151385644       -1.55750930363645
C            3.70829985481992        0.72816431716011       -0.46942038637617
C            4.82468965952024        0.00976752858690        0.01107337847792
C            6.07054854911964        0.16724931570362       -0.57581783001283
C            4.34608462091929       -0.80504811251617        1.09893563609823
C            4.96954073306563       -1.69616046776054        1.95813673834849
C            4.23045082203915       -2.32949706029974        2.95003897245650
C            4.84901643253650       -3.32134882901779        3.92361059934961
C            4.68553580263620       -2.78876418044165        5.35541793596732
C            4.13277219447322       -4.67363420385578        3.78645455505037
C            6.34235830345544       -3.54617451452430        3.66698596377582
C            2.86572751271618       -2.03038666819850        3.06067588168763
C            2.21942394484870       -1.14823392620923        2.21796396418551
C            2.96313512121226       -0.54311428533366        1.21429861130900
N            2.58809564421964        0.37708338355269        0.25672734218576
C            1.30212338159999        0.90095049976783        0.07704660895358
C            1.13040062106893        2.27326096184545        0.00455210659887
C           -0.14680939967967        2.83330558011959       -0.16131827815434
C           -0.23525422759187        4.29166510284161       -0.21993915312868
O            0.82627601232674        4.98248179039821       -0.26312216374272
C           -1.52203289619326        4.95224915539412       -0.20241185991776
C           -1.54468989770764        6.36819945256636       -0.28109523053796
C           -2.74307131090623        7.02713996767149       -0.24454482003102
C           -3.93200240405478        6.29439724301496       -0.12706717981905
C           -3.82783226923321        4.91689558090316       -0.05094673347809
N           -2.67616394991822        4.28293038985818       -0.08668808325294
C           -1.23782240202100        1.96769144689981       -0.28575730470230
C           -1.06782953036096        0.59350673815795       -0.16970175667042
N           -2.18017304973813       -0.24546010477664       -0.28160859679042
C           -3.38384760693497       -0.06542965217817        0.36923097216695
C           -3.75772918934060        0.88249460569666        1.31163515309797
C           -5.03851634098031        0.81412450876078        1.82258827589191
C           -5.96090246140975       -0.16952098050767        1.44043319708594
C           -7.35395299222662       -0.14993284047553        2.05138743550433
C           -8.24698024614510       -1.27597101383531        1.52121140743140
C           -8.02777130209488        1.19002092757601        1.71759474243152
C           -7.23869423588424       -0.30839995072234        3.57511467604726
C           -5.56235117240910       -1.13114622314985        0.51911159263637
C           -4.28312857495304       -1.08488901286945       -0.01202073675072
C           -3.57750555950585       -1.91721831732358       -0.95387488739753
C           -3.93853304955832       -3.04637820258934       -1.67165443329067
C           -3.02625296349940       -3.63106378066753       -2.54206295297455
C           -3.35046254568481       -4.87765852844709       -3.35132016296040
C           -3.23969286059841       -4.55020558360979       -4.84823446526068
C           -4.76348265183214       -5.40436435490786       -3.08242064806892
C           -2.35085586940878       -5.98578400945085       -2.98577812043433
C           -1.76360234882090       -3.04006478696910       -2.68225028012030
C           -1.37838405339807       -1.91524392183865       -1.98003304626278
C           -2.28748700859226       -1.35922873236987       -1.09099772750690
C            0.20189111943064        0.04663511977086        0.00934018849428
H            8.83235139857627        0.71753893018370       -0.66012912860570
H            8.49817917519866       -0.61814541947822       -1.77910881957130
H            9.62302804740274        0.65715378354566       -2.23088192155372
H            7.18897475886863        3.37907353267006       -2.72627792061584
H            7.99276470467706        3.05378452788502       -1.19298004405236
H            8.89231068718862        2.92981236089516       -2.70815422847493
H            8.39995366806880        0.99091583078698       -4.31399384319634
H            6.69965927704981        1.45079344393800       -4.33353863437702
H            7.15813513795589       -0.19286137607659       -3.89235860984576
H            5.19031445737291        2.38808699531350       -2.96236938159230
H            2.99398861336797        2.12021933810840       -1.95457694113745
H            6.90229089215939       -0.39428365053670       -0.18557231697534
H            6.02464977474543       -1.87594230816302        1.84109026191156
H            3.63825695528204       -2.67814068447383        5.62246466139911
H            5.14648817644511       -3.47445491945581        6.06330807528246
H            5.16643103487741       -1.81724983593791        5.45264895207566
H            4.22766897317614       -5.04781987081699        2.76894006226990
H            3.07554153650409       -4.59005916664293        4.02188629456726
H            4.57572971749172       -5.40030791083692        4.46425250148998
H            6.72743368796090       -4.26806910782354        4.38446897136904
H            6.90423095810613       -2.62278877329498        3.78772125848166
H            6.51288746274052       -3.94231750757746        2.66849597874820
H            2.28305387685815       -2.49895805482861        3.83851197989897
H            1.17126784430846       -0.92812358036277        2.35138276424318
H            1.97202519292399        2.94199577376624        0.10267018437534
H           -0.59376551849680        6.87301740775248       -0.36753405247693
H           -2.77420991087401        8.10577569346843       -0.30632767135521
H           -4.89368896799100        6.77937846977376       -0.09607177418146
H           -4.70455284601932        4.28794347143294        0.04108060215556
H           -2.21516463746171        2.37168091345249       -0.49617715480664
H           -3.07401731070309        1.65121275199167        1.63757504804538
H           -5.32724253310847        1.55684288621232        2.55009577568655
H           -9.22891794440791       -1.20624071498780        1.98496927810779
H           -8.37862344679550       -1.19708519436184        0.44445392240537
H           -7.83215947452881       -2.25200147000685        1.76211301286094
H           -8.08637554508982        1.32355781110808        0.63901096799052
H           -7.47663866709849        2.02798133803580        2.13532011908024
H           -9.03709901374570        1.21154702916718        2.12325448338427
H           -6.74439713016199       -1.24660862286152        3.81965814911974
H           -6.66735545137430        0.50287127768368        4.01768874939120
H           -8.22906193028430       -0.31217449050712        4.02557373805562
H           -6.22637306007439       -1.91884256994263        0.20613582783124
H           -4.92909182940455       -3.44789111280524       -1.54206612434034
H           -3.92791427969495       -3.74885482687993       -5.11035947763301
H           -2.23437267609371       -4.23571217017434       -5.11430669332414
H           -3.48957587309398       -5.42749126621751       -5.44126838644557
H           -5.51547352976160       -4.66847234925452       -3.35790959276872
H           -4.88897632851363       -5.67173895666101       -2.03568341446493
H           -4.93545548613377       -6.29771220444697       -3.67951703528207
H           -1.33057092201645       -5.69485205151690       -3.21955161970063
H           -2.58095358602980       -6.89320069360243       -3.54009297413441
H           -2.40725983474076       -6.20759266010362       -1.92179127020681
H           -1.05157626521087       -3.47017671679195       -3.36933828049911
H           -0.40342482575350       -1.47912482186205       -2.13483567180012
H            0.33123914425302       -1.02029565540882        0.09195738311922

          :  Hamiltonian                  GFN2-xTB          :
         :: gradient norm              0.000063098501 Eh/a0 ::
         :: HOMO-LUMO gap              1.179059545476 eV    ::
         :: SCC energy              -154.946782971245 Eh    ::
         :: -> dispersion             -0.139150326562 Eh    ::
         :: -> Gsolv                  -0.070022278061 Eh    ::
         :: repulsion energy           2.584902082827 Eh    ::

    * Orbital Energies and Occupations

         #    Occupation            Energy/Eh            Energy/eV
      -------------------------------------------------------------
         1        2.0000           -0.6838605             -18.6088
       ...           ...                  ...                  ...
       131        2.0000           -0.4121628             -11.2155
       132        2.0000           -0.4108869             -11.1808
       133        2.0000           -0.4105848             -11.1726
       134        2.0000           -0.4086941             -11.1211
       135        2.0000           -0.4034991             -10.9798
       136        2.0000           -0.4027288             -10.9588
       137        2.0000           -0.3862830             -10.5113
       138        2.0000           -0.3814038             -10.3785
       139        2.0000           -0.3804431             -10.3524
       140        1.9944           -0.3678067             -10.0085
       141        1.9262           -0.3652909              -9.9401
       142        1.0794           -0.3605606              -9.8114
       143        1.0000           -0.2929354              -7.9712 (HOMO)
       144                         -0.2496057              -6.7921 (LUMO)
       145                         -0.2482636              -6.7556
       146                         -0.2439237              -6.6375
       147                         -0.2368704              -6.4456
       148                         -0.2361089              -6.4249
       149                         -0.2261925              -6.1550
       150                         -0.2252743              -6.1300
       151                         -0.2026629              -5.5147
       152                         -0.1924753              -5.2375
       153                         -0.1910888              -5.1998
       154                         -0.1902482              -5.1769
       ...                                ...                  ...
       279                          0.7349849              20.0000
      -------------------------------------------------------------
                  HL-Gap            0.0433297 Eh            1.1791 eV

     #   Z          covCN         q      C6AA      α(0)
     1   6 C        3.761    -0.109    22.634     6.782
     2   6 C        3.902     0.026    20.078     6.369
     3   6 C        3.761    -0.106    22.562     6.771
     4   6 C        3.761    -0.106    22.574     6.773
     5   6 C        2.972     0.007    27.864     8.659
     6   6 C        2.930    -0.037    28.921     8.820
     7   6 C        2.908    -0.046    29.130     8.850
     8   6 C        3.077     0.045    26.908     8.505
     9   6 C        3.064    -0.016    28.339     8.729
    10   6 C        2.917    -0.041    29.020     8.834
    11   6 C        3.065    -0.015    28.321     8.727
    12   6 C        2.917    -0.041    29.007     8.832
    13   6 C        2.972     0.007    27.858     8.658
    14   6 C        3.902     0.026    20.076     6.369
    15   6 C        3.761    -0.106    22.574     6.773
    16   6 C        3.761    -0.107    22.583     6.774
    17   6 C        3.761    -0.109    22.631     6.782
    18   6 C        2.930    -0.038    28.938     8.822
    19   6 C        2.908    -0.048    29.187     8.859
    20   6 C        3.076     0.044    26.925     8.507
    21   7 N        2.804    -0.025    21.722     6.922
    22   6 C        2.909     0.063    26.596     8.456
    23   6 C        2.930    -0.041    29.015     8.834
    24   6 C        2.967    -0.007    28.201     8.711
    25   6 C        2.835     0.164    24.466     8.106
    26   8 O        0.858    -0.524    24.314     6.611
    27   6 C        2.937     0.062    26.616     8.461
    28   6 C        2.920    -0.034    28.839     8.806
    29   6 C        2.922    -0.020    28.496     8.754
    30   6 C        2.914    -0.056    29.395     8.890
    31   6 C        2.886     0.060    26.662     8.465
    32   7 N        1.841    -0.228    26.840     7.678
    33   6 C        2.923    -0.058    29.450     8.899
    34   6 C        2.910     0.065    26.551     8.449
    35   7 N        2.804    -0.020    21.636     6.908
    36   6 C        3.078     0.044    26.933     8.508
    37   6 C        2.908    -0.045    29.125     8.849
    38   6 C        2.930    -0.037    28.919     8.819
    39   6 C        2.972     0.008    27.842     8.655
    40   6 C        3.902     0.026    20.075     6.369
    41   6 C        3.761    -0.109    22.638     6.783
    42   6 C        3.761    -0.106    22.570     6.772
    43   6 C        3.761    -0.106    22.577     6.774
    44   6 C        2.917    -0.040    29.004     8.831
    45   6 C        3.064    -0.015    28.311     8.725
    46   6 C        3.065    -0.014    28.308     8.725
    47   6 C        2.917    -0.040    28.998     8.830
    48   6 C        2.972     0.008    27.846     8.656
    49   6 C        3.902     0.026    20.075     6.369
    50   6 C        3.761    -0.106    22.576     6.773
    51   6 C        3.761    -0.109    22.634     6.782
    52   6 C        3.761    -0.107    22.582     6.774
    53   6 C        2.930    -0.037    28.929     8.821
    54   6 C        2.908    -0.047    29.170     8.856
    55   6 C        3.075     0.043    26.949     8.511
    56   6 C        2.922    -0.071    29.781     8.949
    57   1 H        0.925     0.038     2.476     2.461
    58   1 H        0.925     0.039     2.462     2.454
    59   1 H        0.925     0.040     2.455     2.450
    60   1 H        0.925     0.036     2.504     2.475
    61   1 H        0.925     0.033     2.539     2.492
    62   1 H        0.925     0.041     2.437     2.441
    63   1 H        0.925     0.041     2.434     2.440
    64   1 H        0.925     0.037     2.494     2.469
    65   1 H        0.925     0.035     2.515     2.480
    66   1 H        0.926     0.037     2.494     2.470
    67   1 H        0.926     0.031     2.575     2.509
    68   1 H        0.926     0.050     2.317     2.380
    69   1 H        0.926     0.049     2.327     2.386
    70   1 H        0.925     0.038     2.482     2.464
    71   1 H        0.925     0.041     2.437     2.441
    72   1 H        0.925     0.033     2.538     2.491
    73   1 H        0.925     0.035     2.516     2.481
    74   1 H        0.925     0.038     2.473     2.459
    75   1 H        0.925     0.041     2.438     2.442
    76   1 H        0.925     0.039     2.460     2.453
    77   1 H        0.925     0.037     2.484     2.465
    78   1 H        0.925     0.038     2.472     2.459
    79   1 H        0.926     0.040     2.450     2.448
    80   1 H        0.926     0.035     2.516     2.480
    81   1 H        0.926     0.051     2.311     2.377
    82   1 H        0.926     0.042     2.417     2.431
    83   1 H        0.926     0.041     2.429     2.437
    84   1 H        0.926     0.041     2.433     2.439
    85   1 H        0.925     0.041     2.437     2.441
    86   1 H        0.926     0.078     2.005     2.214
    87   1 H        0.926     0.036     2.501     2.473
    88   1 H        0.926     0.038     2.475     2.460
    89   1 H        0.925     0.039     2.458     2.452
    90   1 H        0.925     0.038     2.471     2.458
    91   1 H        0.925     0.039     2.464     2.455
    92   1 H        0.925     0.034     2.531     2.488
    93   1 H        0.925     0.037     2.495     2.470
    94   1 H        0.925     0.041     2.438     2.442
    95   1 H        0.925     0.035     2.516     2.481
    96   1 H        0.925     0.037     2.489     2.467
    97   1 H        0.925     0.041     2.436     2.441
    98   1 H        0.926     0.051     2.309     2.376
    99   1 H        0.926     0.050     2.316     2.380
   100   1 H        0.925     0.034     2.532     2.488
   101   1 H        0.925     0.037     2.483     2.464
   102   1 H        0.925     0.041     2.439     2.442
   103   1 H        0.925     0.038     2.478     2.462
   104   1 H        0.925     0.038     2.469     2.457
   105   1 H        0.925     0.039     2.461     2.453
   106   1 H        0.925     0.038     2.477     2.461
   107   1 H        0.925     0.041     2.439     2.442
   108   1 H        0.925     0.035     2.518     2.481
   109   1 H        0.926     0.040     2.451     2.448
   110   1 H        0.926     0.035     2.513     2.479
   111   1 H        0.926     0.055     2.261     2.351

molecular dipole:
                 x           y           z       tot (Debye)
 q only:       -0.684      -4.361       0.209
   full:       -0.808      -3.751       0.180       9.763

 projected vibrational frequencies (cm⁻¹)
eigval :       -0.00    -0.00     0.00     0.00     0.00     0.00
eigval :        9.78    10.32    12.34    16.88    23.74    26.32
eigval :       31.72    31.91    34.22    35.78    43.32    57.26
eigval :       60.73    62.28    65.73    68.29    82.07    85.23
eigval :       92.96   106.45   122.13   138.47   149.22   154.75
eigval :      158.91   161.59   166.84   177.19   182.85   184.04
eigval :      187.97   200.70   200.80   202.72   217.07   220.04
eigval :      224.22   227.40   230.07   232.74   236.02   241.45
eigval :      253.73   257.35   259.32   277.35   282.70   289.45
eigval :      298.38   316.19   316.48   317.92   322.35   323.89
eigval :      333.63   337.61   341.05   347.08   351.58   356.74
eigval :      357.47   364.97   369.45   375.88   382.92   385.56
eigval :      394.60   397.97   401.99   405.16   406.55   423.58
eigval :      439.68   441.13   441.49   443.61   461.06   461.92
eigval :      463.84   464.38   465.06   470.36   501.26   510.98
eigval :      515.62   534.76   542.04   569.60   575.13   581.27
eigval :      585.71   586.20   594.22   597.65   609.52   625.48
eigval :      631.12   636.18   641.71   642.86   653.25   667.98
eigval :      671.02   691.23   691.58   700.59   708.27   709.65
eigval :      716.09   719.31   744.86   764.96   781.82   807.96
eigval :      820.58   822.95   825.94   829.97   831.53   832.05
eigval :      848.83   850.08   864.34   869.20   869.66   871.24
eigval :      872.15   874.22   879.66   890.60   892.99   907.93
eigval :      915.86   916.83   919.65   921.09   923.02   925.34
eigval :      930.05   931.44   954.27   958.44   958.53   958.79
eigval :      959.10   960.74   961.04   962.38   962.43   962.58
eigval :      962.92   964.36   964.71   984.96  1026.88  1028.79
eigval :     1032.23  1032.68  1033.55  1034.00  1034.07  1034.78
eigval :     1036.97  1038.38  1042.24  1047.01  1072.38  1108.46
eigval :     1110.29  1114.29  1125.25  1127.09  1128.18  1135.10
eigval :     1146.58  1156.16  1163.42  1164.80  1187.51  1202.72
eigval :     1214.46  1216.97  1223.08  1223.23  1223.32  1223.39
eigval :     1226.26  1228.30  1228.58  1229.17  1229.55  1229.81
eigval :     1231.87  1241.13  1242.86  1251.01  1258.39  1278.90
eigval :     1280.24  1290.91  1291.05  1293.47  1300.92  1323.94
eigval :     1332.32  1334.39  1336.04  1341.47  1347.49  1347.54
eigval :     1365.48  1376.59  1398.37  1398.71  1400.70  1401.01
eigval :     1401.44  1401.59  1402.89  1403.09  1404.56  1406.67
eigval :     1407.03  1415.34  1422.98  1425.45  1425.72  1426.78
eigval :     1426.82  1437.71  1443.48  1460.72  1461.80  1462.00
eigval :     1472.84  1474.89  1475.64  1487.62  1488.21  1488.47
eigval :     1489.35  1489.95  1490.97  1491.78  1492.67  1496.60
eigval :     1497.10  1497.71  1498.02  1500.85  1501.13  1501.96
eigval :     1502.86  1510.21  1510.70  1510.78  1511.44  1511.82
eigval :     1515.63  1515.99  1516.69  1516.84  1519.07  1559.07
eigval :     1559.53  1563.62  1571.91  1574.45  1577.86  1578.17
eigval :     1593.72  1604.34  3020.87  3021.24  3021.37  3021.64
eigval :     3021.88  3021.97  3022.37  3022.78  3025.03  3025.10
eigval :     3025.16  3026.01  3026.50  3026.64  3026.77  3026.89
eigval :     3028.56  3028.74  3028.86  3029.39  3032.12  3032.46
eigval :     3032.49  3032.95  3036.74  3037.06  3037.32  3037.36
eigval :     3043.49  3044.26  3045.50  3045.90  3046.18  3047.75
eigval :     3048.73  3049.05  3049.46  3064.53  3082.68  3083.79
eigval :     3084.84  3086.33  3086.49  3091.05  3095.45  3097.08
eigval :     3097.32  3098.48  3099.26  3105.93  3110.06  3121.27
eigval :     3121.84  3123.90  3124.41

   temp. (K)  partition function   enthalpy   heat capacity  entropy
                                   cal/mol     cal/K/mol   cal/K/mol   J/K/mol
 298.15  VIB  0.110E+26            32281.856    197.585    200.205
         ROT  0.160E+09              888.752      2.981     40.521
         INT  0.177E+34            33170.608    200.566    240.726
         TR   0.194E+29             1481.254      4.968     45.655
         TOT                       34651.8618   205.5337   286.3813  1198.2195

       T/K    H(0)-H(T)+PV         H(T)/Eh          T*S/Eh         G(T)/Eh
   ------------------------------------------------------------------------
    298.15    0.552213E-01    0.972846E+00    0.136069E+00    0.836777E+00
   ------------------------------------------------------------------------

         :::::::::::::::::::::::::::::::::::::::::::::::::::::
         ::                  THERMODYNAMIC                  ::
         :::::::::::::::::::::::::::::::::::::::::::::::::::::
         :: total free energy        -151.525103462652 Eh   ::
         ::.................................................::
         :: total energy             -152.361880891847 Eh   ::
         :: zero point energy           0.917625185241 Eh   ::
         :: G(RRHO) w/o ZPVE           -0.080847756046 Eh   ::
         :: G(RRHO) contrib.            0.836777429195 Eh   ::
         :::::::::::::::::::::::::::::::::::::::::::::::::::::

           -------------------------------------------------
          | TOTAL ENERGY             -152.361880891847 Eh   |
          | TOTAL ENTHALPY           -151.389034449870 Eh   |
          | TOTAL FREE ENERGY        -151.525103462652 Eh   |
          | GRADIENT NORM               0.000062997479 Eh/α |
          | HOMO-LUMO GAP               1.179060386769 eV   |
           -------------------------------------------------

 * finished run on 2025/09/08 at 03:49:38.716
