   * xtb version 6.7.1 (edcfbbe) compiled by 'albert@albert-system' on 2024-07-22

   ID    Z sym.   atoms
    1    6 C      1-20, 22-25, 27-31, 33, 34, 36-56
    2    7 N      21, 32, 35
    3    8 O      26
    4    1 H      57-111

          program call               : xtb data2507/toluene/2BPy-mDTC/2BPy-mDTC_toluene_S0_crest.xyz --gfn 2 --gbsa toluene --ohess vtight --parallel 40 --molden --ceasefiles --namespace data2507/toluene/2BPy-mDTC/2BPy-mDTC_toluene_S0_finalOpt
      * Solvation model:               GBSA
        Solvent                        toluene
        Solvent mass                       9.2140E+01 g/mol
          :  Hamiltonian                  GFN2-xTB          :
 * total energy  :  -152.4249299 Eh     change       -0.3007926E-08 Eh
 * total energy  :  -152.4250146 Eh     change       -0.8469221E-04 Eh
 * total energy  :  -152.4250486 Eh     change       -0.3399668E-04 Eh
 * total energy  :  -152.4250605 Eh     change       -0.1189046E-04 Eh
 * total energy  :  -152.4250732 Eh     change       -0.1277575E-04 Eh
 * total energy  :  -152.4250841 Eh     change       -0.1089958E-04 Eh
 * total energy  :  -152.4250924 Eh     change       -0.8229056E-05 Eh
 * total energy  :  -152.4250975 Eh     change       -0.5148137E-05 Eh
 * total energy  :  -152.4251006 Eh     change       -0.3128379E-05 Eh
 * total energy  :  -152.4251042 Eh     change       -0.3590565E-05 Eh
 * total energy  :  -152.4251748 Eh     change       -0.1815679E-06 Eh
 * total energy  :  -152.4251750 Eh     change       -0.2080218E-06 Eh
 * total energy  :  -152.4251753 Eh     change       -0.2690044E-06 Eh
 * total energy  :  -152.4251757 Eh     change       -0.3804592E-06 Eh
 * total energy  :  -152.4251762 Eh     change       -0.4981527E-06 Eh
 * total energy  :  -152.4251767 Eh     change       -0.5150459E-06 Eh
 * total energy  :  -152.4251771 Eh     change       -0.4557205E-06 Eh
 * total energy  :  -152.4251775 Eh     change       -0.3327204E-06 Eh
 * total energy  :  -152.4251775 Eh     change       -0.2350021E-08 Eh
   *** GEOMETRY OPTIMIZATION CONVERGED AFTER 68 ITERATIONS ***

 final structure:
================
111
 xtb: 6.7.1 (edcfbbe)
C            8.74558325387469        0.36308302366787       -1.51457919063593
C            7.65754187293175        1.22577049889791       -2.16174431847655
C            8.06751017120343        2.69868582099557       -2.01343274884308
C            7.57875271226258        0.85477985088946       -3.65028603584345
C            6.29078753251928        1.02100897699859       -1.52225719156402
C            5.19813107084460        1.74999456963973       -2.01121534351455
C            3.92424478859374        1.63507127842444       -1.49161540375853
C            3.73000696573218        0.76260607366288       -0.43211533948060
C            4.80632553382347       -0.00201169944180        0.06274536099658
C            6.07793497712241        0.13375111426238       -0.47973812859565
C            4.27170989279432       -0.83405376948529        1.10673844927853
C            4.84840556247484       -1.76498623553138        1.96142527458087
C            4.06724092432041       -2.40785529666043        2.90801328728206
C            4.62922388603037       -3.44556359821597        3.87037627207403
C            4.42690219359817       -2.95907828604817        5.31321239758410
C            3.89140075239860       -4.77663531914300        3.66157404046398
C            6.12597645241227       -3.69458623125701        3.65934048087900
C            2.70733196757298       -2.07809327450644        2.98532262233323
C            2.10832956239356       -1.15662659189277        2.14969182758478
C            2.89442805358433       -0.54252267382068        1.18709621420545
N            2.57333498385523        0.42614091040444        0.25101654089919
C            1.30694464347135        0.96891117813028        0.02825772341370
C            1.14077595182330        2.34553682384507       -0.07487611727077
C           -0.12358726718564        2.88602688521007       -0.29943401198001
C           -0.23109915927775        4.35635088540305       -0.41112898125169
O            0.70292164113909        5.04075545054697       -0.79881380476740
C           -1.51711553857562        4.99642270488389       -0.01183834373835
C           -1.80385839285608        6.28339785217220       -0.46729181753405
C           -2.98627811007787        6.88335298908784       -0.06755823889592
C           -3.83295186425346        6.18328675522974        0.77760545715956
C           -3.45263816485142        4.90940959877027        1.18222702697171
N           -2.33169962248591        4.32787476748763        0.80232544998142
C           -1.22406294744118        2.04741050591022       -0.43998931346124
C           -1.06374825324396        0.66915909008978       -0.32140225171851
N           -2.17121183154165       -0.17175713260575       -0.43934583867973
C           -3.38877572207985        0.00928951046778        0.19588777101554
C           -3.79062826516950        0.98255662704839        1.09767678725150
C           -5.07092111079217        0.89901827217526        1.60740814835151
C           -5.96761479449400       -0.12131787233844        1.26138512073331
C           -7.36230271829826       -0.11343122635821        1.87299328686355
C           -8.22532709267617       -1.28157871234691        1.38592092277242
C           -8.07283033354906        1.19366360637481        1.49006460475653
C           -7.24485311105355       -0.21321192203114        3.40128894973850
C           -5.54232842686004       -1.10240087781235        0.38058263837719
C           -4.25862478309110       -1.04543106628012       -0.14792119571780
C           -3.52973944782332       -1.90169810973181       -1.04448490916305
C           -3.86666659121080       -3.06740434941897       -1.72060386019927
C           -2.94098391310158       -3.67182087301487       -2.55573061267010
C           -3.23822027946180       -4.95398479077642       -3.32156969342336
C           -3.12612148794214       -4.67905441502015       -4.82866864654025
C           -4.64360332886701       -5.49508730199480       -3.04069884181767
C           -2.22382427852784       -6.03281360124432       -2.91315369158287
C           -1.68588758900165       -3.06719865133801       -2.70783879310285
C           -1.32446407813020       -1.90902274756066       -2.04887678469303
C           -2.24877276513516       -1.33048521310793       -1.19292831623169
C            0.19911136558893        0.13269616912382       -0.08669022636376
H            8.85668958064187        0.60078615091487       -0.45898646962732
H            8.52066712477596       -0.69571204358729       -1.62145602449212
H            9.69841175937357        0.55487652645274       -2.00434590735164
H            7.36346843379248        3.35937002981904       -2.51197536111547
H            8.10546687945148        2.97411933942721       -0.96108331718496
H            9.05194431112861        2.85963105364492       -2.44848231347162
H            8.55409631293548        0.97306953658370       -4.11812585388997
H            6.86929470562757        1.48492121900630       -4.17967119688868
H            7.26425305003432       -0.18111232163386       -3.76295818965916
H            5.34328264373730        2.43453659054838       -2.83313219721422
H            3.10948510202368        2.20755859348967       -1.90961618119615
H            6.87713253931318       -0.46471556114488       -0.07566954317129
H            5.90321535250895       -1.96309087197037        1.87079919683490
H            3.37318992809979       -2.83335211052223        5.54651715694385
H            4.84691298830312       -3.67854485138295        6.01328462571370
H            4.92476654081298       -2.00238510747225        5.46027681234461
H            4.01491390500861       -5.11760318656817        2.63534255794271
H            2.82801511933806       -4.67689667295930        3.86110456021813
H            4.29324597683143       -5.53663891770838        4.32871964502541
H            6.47087729172488       -4.44733085054628        4.36575193895923
H            6.70144361958480       -2.78723770677074        3.82868697171714
H            6.32376579636877       -4.06155427638643        2.65465130374733
H            2.08859716410770       -2.55510947720694        3.73009502187692
H            1.06115513207719       -0.91803070949261        2.26109080615589
H            1.98231197089223        3.01088741826932        0.04250240341579
H           -1.10182254626049        6.77879229896675       -1.12026621166328
H           -3.23840089365091        7.87751581005108       -0.40561900399403
H           -4.76235562298347        6.61120589050864        1.11855848463539
H           -4.07502153834547        4.32354172382813        1.84552952814453
H           -2.19545499996867        2.45186695927881       -0.66853466083200
H           -3.12797618306823        1.77986376907154        1.39781366771656
H           -5.38261252559938        1.65738937309378        2.30927352675523
H           -9.20971288032576       -1.22130276261691        1.84633668747992
H           -8.35653678700972       -1.24740977419621        0.30663541528545
H           -7.78422999533445       -2.23654571704454        1.66258251285560
H           -8.13537684472750        1.28387781053562        0.40715078809382
H           -7.54316207895698        2.06127726488690        1.87370947884279
H           -9.08230089916198        1.20455791440869        1.89641295191641
H           -8.23474443719563       -0.22634838994733        3.85325194623261
H           -6.72616236463925       -1.12879086951566        3.67923579062725
H           -6.69381031883503        0.62751701765534        3.81384885780405
H           -6.18230101434852       -1.91998027459213        0.09386812852304
H           -4.85355696655194       -3.47617207973465       -1.58240551467041
H           -3.82612381599280       -3.89865516654883       -5.12149652856683
H           -2.12474371386333       -4.35648196217222       -5.10057695565458
H           -3.35802030368245       -5.58060463270394       -5.39226411698496
H           -5.40645337370046       -4.78297718322564       -3.34746287689514
H           -4.77065616823949       -5.72319577525232       -1.98475799029547
H           -4.79691264683918       -6.41373582564980       -3.60383855433220
H           -1.20673010429950       -5.73241153996418       -3.14949616737633
H           -2.43429927322240       -6.96248300246280       -3.43811186554675
H           -2.28362994208633       -6.21949699159014       -1.84251548855167
H           -0.95994791447524       -3.51401286844684       -3.37008082948149
H           -0.35288112105960       -1.46759594893649       -2.21411393441362
H            0.32163108412014       -0.93556055931626        0.00133583928792

          :  Hamiltonian                  GFN2-xTB          :
         :: gradient norm              0.000037180888 Eh/a0 ::
         :: HOMO-LUMO gap              1.318398609805 eV    ::
         :: SCC energy              -155.020222485315 Eh    ::
         :: -> dispersion             -0.139825771996 Eh    ::
         :: -> Gsolv                  -0.060902127685 Eh    ::
         :: repulsion energy           2.595045006686 Eh    ::

    * Orbital Energies and Occupations

         #    Occupation            Energy/Eh            Energy/eV
      -------------------------------------------------------------
         1        2.0000           -0.7213865             -19.6299
       ...           ...                  ...                  ...
       130        2.0000           -0.4133378             -11.2475
       131        2.0000           -0.4119509             -11.2098
       132        2.0000           -0.4075575             -11.0902
       133        2.0000           -0.4070295             -11.0758
       134        2.0000           -0.4051218             -11.0239
       135        2.0000           -0.4047874             -11.0148
       136        2.0000           -0.3949247             -10.7464
       137        2.0000           -0.3949117             -10.7461
       138        2.0000           -0.3844678             -10.4619
       139        2.0000           -0.3720113             -10.1229
       140        2.0000           -0.3719219             -10.1205
       141        2.0000           -0.3578946              -9.7388
       142        2.0000           -0.3574778              -9.7275 (HOMO)
       143                         -0.3090275              -8.4091 (LUMO)
       144                         -0.2641637              -7.1883
       145                         -0.2515266              -6.8444
       146                         -0.2474768              -6.7342
       147                         -0.2391087              -6.5065
       148                         -0.2356954              -6.4136
       149                         -0.2160871              -5.8800
       150                         -0.2160777              -5.8798
       151                         -0.2069824              -5.6323
       152                         -0.1853331              -5.0432
       153                         -0.1848598              -5.0303
       ...                                ...                  ...
       279                          0.7429668              20.2172
      -------------------------------------------------------------
                  HL-Gap            0.0484502 Eh            1.3184 eV

     #   Z          covCN         q      C6AA      α(0)
     1   6 C        3.761    -0.107    22.589     6.775
     2   6 C        3.902     0.025    20.101     6.373
     3   6 C        3.761    -0.104    22.542     6.768
     4   6 C        3.761    -0.105    22.546     6.769
     5   6 C        2.972    -0.002    28.070     8.691
     6   6 C        2.931    -0.040    28.989     8.830
     7   6 C        2.908    -0.054    29.341     8.882
     8   6 C        3.074     0.043    26.967     8.514
     9   6 C        3.066    -0.020    28.438     8.745
    10   6 C        2.918    -0.045    29.122     8.849
    11   6 C        3.066    -0.020    28.432     8.744
    12   6 C        2.918    -0.045    29.114     8.848
    13   6 C        2.972    -0.002    28.066     8.690
    14   6 C        3.902     0.025    20.100     6.373
    15   6 C        3.761    -0.105    22.548     6.769
    16   6 C        3.761    -0.105    22.551     6.769
    17   6 C        3.761    -0.107    22.587     6.775
    18   6 C        2.931    -0.040    28.995     8.831
    19   6 C        2.908    -0.055    29.362     8.885
    20   6 C        3.074     0.042    26.973     8.515
    21   7 N        2.802    -0.047    22.140     6.988
    22   6 C        2.908     0.071    26.405     8.426
    23   6 C        2.928    -0.039    28.969     8.827
    24   6 C        2.970    -0.006    28.168     8.706
    25   6 C        2.831     0.226    23.263     7.904
    26   8 O        0.858    -0.405    21.781     6.257
    27   6 C        2.960     0.071    26.411     8.429
    28   6 C        2.919    -0.027    28.667     8.780
    29   6 C        2.926    -0.007    28.198     8.708
    30   6 C        2.915    -0.031    28.768     8.795
    31   6 C        2.907     0.064    26.573     8.453
    32   7 N        1.839    -0.230    26.890     7.685
    33   6 C        2.923    -0.042    29.047     8.838
    34   6 C        2.910     0.072    26.390     8.424
    35   7 N        2.802    -0.046    22.119     6.985
    36   6 C        3.076     0.042    26.985     8.517
    37   6 C        2.908    -0.057    29.426     8.895
    38   6 C        2.932    -0.040    28.995     8.831
    39   6 C        2.972    -0.002    28.080     8.692
    40   6 C        3.902     0.025    20.101     6.373
    41   6 C        3.761    -0.107    22.584     6.775
    42   6 C        3.761    -0.105    22.547     6.769
    43   6 C        3.761    -0.105    22.547     6.769
    44   6 C        2.918    -0.045    29.124     8.850
    45   6 C        3.065    -0.020    28.438     8.745
    46   6 C        3.066    -0.020    28.433     8.744
    47   6 C        2.918    -0.045    29.116     8.848
    48   6 C        2.972    -0.002    28.071     8.691
    49   6 C        3.902     0.025    20.101     6.373
    50   6 C        3.761    -0.105    22.544     6.769
    51   6 C        3.761    -0.107    22.586     6.775
    52   6 C        3.761    -0.105    22.548     6.769
    53   6 C        2.931    -0.040    28.996     8.831
    54   6 C        2.908    -0.055    29.364     8.885
    55   6 C        3.073     0.042    26.986     8.517
    56   6 C        2.926    -0.054    29.350     8.884
    57   1 H        0.925     0.036     2.504     2.475
    58   1 H        0.925     0.036     2.500     2.473
    59   1 H        0.925     0.037     2.492     2.469
    60   1 H        0.925     0.035     2.518     2.481
    61   1 H        0.925     0.032     2.559     2.501
    62   1 H        0.925     0.038     2.478     2.462
    63   1 H        0.925     0.038     2.476     2.461
    64   1 H        0.925     0.035     2.516     2.480
    65   1 H        0.925     0.032     2.551     2.498
    66   1 H        0.926     0.030     2.590     2.517
    67   1 H        0.926     0.025     2.662     2.552
    68   1 H        0.926     0.040     2.448     2.447
    69   1 H        0.926     0.040     2.454     2.449
    70   1 H        0.925     0.036     2.507     2.476
    71   1 H        0.925     0.038     2.478     2.462
    72   1 H        0.925     0.032     2.559     2.502
    73   1 H        0.925     0.033     2.551     2.498
    74   1 H        0.925     0.036     2.504     2.474
    75   1 H        0.925     0.038     2.479     2.462
    76   1 H        0.925     0.037     2.495     2.470
    77   1 H        0.925     0.036     2.510     2.477
    78   1 H        0.925     0.036     2.505     2.475
    79   1 H        0.926     0.031     2.566     2.505
    80   1 H        0.926     0.027     2.636     2.539
    81   1 H        0.926     0.058     2.226     2.333
    82   1 H        0.926     0.058     2.227     2.334
    83   1 H        0.926     0.058     2.223     2.332
    84   1 H        0.926     0.060     2.203     2.321
    85   1 H        0.925     0.052     2.289     2.366
    86   1 H        0.926     0.060     2.203     2.321
    87   1 H        0.926     0.038     2.478     2.462
    88   1 H        0.926     0.030     2.592     2.518
    89   1 H        0.925     0.036     2.500     2.472
    90   1 H        0.925     0.035     2.510     2.478
    91   1 H        0.925     0.036     2.508     2.476
    92   1 H        0.925     0.032     2.559     2.502
    93   1 H        0.925     0.035     2.510     2.477
    94   1 H        0.925     0.038     2.482     2.464
    95   1 H        0.925     0.037     2.483     2.464
    96   1 H        0.925     0.032     2.554     2.499
    97   1 H        0.925     0.036     2.508     2.476
    98   1 H        0.926     0.039     2.464     2.455
    99   1 H        0.926     0.040     2.454     2.450
   100   1 H        0.925     0.032     2.560     2.502
   101   1 H        0.925     0.035     2.514     2.479
   102   1 H        0.925     0.038     2.480     2.463
   103   1 H        0.925     0.036     2.508     2.477
   104   1 H        0.925     0.036     2.502     2.474
   105   1 H        0.925     0.036     2.496     2.471
   106   1 H        0.925     0.036     2.509     2.477
   107   1 H        0.925     0.038     2.482     2.464
   108   1 H        0.925     0.033     2.550     2.497
   109   1 H        0.926     0.030     2.581     2.512
   110   1 H        0.926     0.025     2.660     2.551
   111   1 H        0.926     0.062     2.171     2.304

molecular dipole:
                 x           y           z       tot (Debye)
 q only:       -1.245      -0.621       0.378
   full:       -1.433      -0.089       0.271       3.714

 projected vibrational frequencies (cm⁻¹)
eigval :       -0.00    -0.00     0.00     0.00     0.00     0.00
eigval :        8.99    11.01    12.91    14.24    24.91    27.61
eigval :       30.80    32.62    35.50    37.62    39.35    44.68
eigval :       61.20    63.49    65.60    68.27    80.13    84.80
eigval :       88.10   106.10   111.19   128.16   144.08   155.19
eigval :      159.49   162.03   171.11   176.07   181.03   184.85
eigval :      191.45   200.87   202.52   202.66   217.10   219.43
eigval :      224.29   227.32   229.58   234.23   237.21   246.02
eigval :      247.47   258.63   259.88   273.49   282.61   287.03
eigval :      293.41   310.44   314.90   315.57   318.20   321.14
eigval :      333.06   336.82   340.66   347.89   349.56   355.63
eigval :      359.21   360.09   366.95   370.02   377.36   381.99
eigval :      397.11   399.89   403.26   410.67   411.75   429.91
eigval :      440.20   441.48   442.64   444.03   459.87   461.18
eigval :      462.27   463.39   465.51   466.21   492.54   512.24
eigval :      519.18   540.19   551.55   575.32   577.89   583.79
eigval :      585.04   589.39   597.59   601.37   624.43   639.96
eigval :      640.98   641.44   652.25   665.21   669.24   684.41
eigval :      687.54   688.52   702.90   707.39   709.15   718.56
eigval :      719.06   721.65   766.28   784.07   786.54   817.40
eigval :      821.76   823.19   825.83   830.69   832.51   842.88
eigval :      868.93   869.87   871.30   872.74   873.28   880.13
eigval :      885.80   895.30   898.60   901.24   914.54   918.02
eigval :      918.56   921.08   923.06   924.06   926.49   932.13
eigval :      933.14   934.45   958.48   958.65   958.89   959.92
eigval :      960.72   961.30   961.64   962.14   962.30   962.74
eigval :      963.26   963.53   990.89   999.89  1028.35  1030.90
eigval :     1032.98  1033.85  1034.23  1034.85  1035.23  1035.56
eigval :     1037.60  1040.20  1043.85  1053.66  1088.63  1113.90
eigval :     1115.78  1118.34  1128.93  1130.06  1140.03  1144.29
eigval :     1156.42  1166.53  1175.98  1177.30  1192.18  1214.75
eigval :     1225.35  1225.42  1225.45  1225.84  1227.63  1229.02
eigval :     1229.59  1230.60  1232.41  1235.50  1235.66  1237.45
eigval :     1238.91  1248.36  1253.66  1255.86  1269.18  1282.95
eigval :     1283.88  1295.06  1295.93  1306.44  1307.27  1308.54
eigval :     1324.64  1341.77  1344.35  1345.01  1354.88  1358.03
eigval :     1390.91  1395.54  1399.08  1399.80  1400.85  1401.36
eigval :     1402.24  1402.91  1403.00  1403.17  1410.16  1411.02
eigval :     1425.92  1426.53  1426.99  1427.14  1430.67  1432.53
eigval :     1432.70  1452.46  1460.55  1480.79  1481.11  1482.81
eigval :     1483.04  1489.14  1489.17  1489.32  1490.28  1491.54
eigval :     1491.82  1492.22  1492.55  1498.52  1498.65  1499.07
eigval :     1499.25  1502.46  1502.56  1502.69  1503.49  1510.25
eigval :     1511.08  1511.17  1511.85  1516.82  1517.39  1517.70
eigval :     1518.34  1556.98  1558.23  1561.82  1563.60  1569.52
eigval :     1571.01  1580.63  1581.15  1603.02  1603.33  1614.55
eigval :     1615.03  1658.73  3017.81  3018.18  3018.30  3018.52
eigval :     3018.89  3019.17  3019.25  3019.72  3022.39  3022.47
eigval :     3022.65  3023.15  3023.99  3024.08  3024.31  3024.51
eigval :     3026.07  3026.18  3026.41  3026.80  3029.76  3030.08
eigval :     3030.45  3030.56  3034.47  3034.84  3034.89  3035.34
eigval :     3043.42  3044.05  3044.07  3044.18  3046.64  3046.75
eigval :     3047.22  3047.51  3062.58  3075.78  3076.06  3077.64
eigval :     3081.63  3083.56  3089.79  3090.32  3091.24  3096.51
eigval :     3098.54  3102.21  3102.65  3108.08  3115.77  3115.84
eigval :     3118.31  3118.63  3126.07

   temp. (K)  partition function   enthalpy   heat capacity  entropy
                                   cal/mol     cal/K/mol   cal/K/mol   J/K/mol
 298.15  VIB  0.168E+26            32232.116    196.202    200.378
         ROT  0.158E+09              888.752      2.981     40.501
         INT  0.266E+34            33120.869    199.183    240.879
         TR   0.194E+29             1481.254      4.968     45.655
         TOT                       34602.1227   204.1514   286.5339  1198.8580

       T/K    H(0)-H(T)+PV         H(T)/Eh          T*S/Eh         G(T)/Eh
   ------------------------------------------------------------------------
    298.15    0.551420E-01    0.975858E+00    0.136142E+00    0.839717E+00
   ------------------------------------------------------------------------

         :::::::::::::::::::::::::::::::::::::::::::::::::::::
         ::                  THERMODYNAMIC                  ::
         :::::::::::::::::::::::::::::::::::::::::::::::::::::
         :: total free energy        -151.585460699216 Eh   ::
         ::.................................................::
         :: total energy             -152.425177477779 Eh   ::
         :: zero point energy           0.920716305082 Eh   ::
         :: G(RRHO) w/o ZPVE           -0.080999526519 Eh   ::
         :: G(RRHO) contrib.            0.839716778563 Eh   ::
         :::::::::::::::::::::::::::::::::::::::::::::::::::::

           -------------------------------------------------
          | TOTAL ENERGY             -152.425177477779 Eh   |
          | TOTAL ENTHALPY           -151.449319180182 Eh   |
          | TOTAL FREE ENERGY        -151.585460699216 Eh   |
          | GRADIENT NORM               0.000037168224 Eh/α |
          | HOMO-LUMO GAP               1.318398331984 eV   |
           -------------------------------------------------

 * finished run on 2025/09/08 at 03:24:08.159
