   * xtb version 6.7.1 (edcfbbe) compiled by 'albert@albert-system' on 2024-07-22

   ID    Z sym.   atoms
    1    6 C      1-20, 22-25, 27-31, 33, 34, 36-56
    2    7 N      21, 32, 35
    3    8 O      26
    4    1 H      57-111

          program call               : xtb data2507/toluene/2BPy-mDTC/2BPy-mDTC_toluene_S0_finalOpt.xtbopt.xyz --gfn 2 --uhf 2 --gbsa toluene --ohess vtight --parallel 40 --molden --ceasefiles --namespace data2507/toluene/2BPy-mDTC/2BPy-mDTC_toluene_T1_preOpt
      * Solvation model:               GBSA
        Solvent                        toluene
        Solvent mass                       9.2140E+01 g/mol
          :  Hamiltonian                  GFN2-xTB          :
 * total energy  :  -152.3539241 Eh     change       -0.3682885E-09 Eh
 * total energy  :  -152.3580198 Eh     change       -0.4095770E-02 Eh
 * total energy  :  -152.3591700 Eh     change       -0.1150131E-02 Eh
 * total energy  :  -152.3594502 Eh     change       -0.2802291E-03 Eh
 * total energy  :  -152.3597487 Eh     change       -0.2985207E-03 Eh
 * total energy  :  -152.3600122 Eh     change       -0.2635034E-03 Eh
 * total energy  :  -152.3603102 Eh     change       -0.2979465E-03 Eh
 * total energy  :  -152.3605559 Eh     change       -0.2457455E-03 Eh
 * total energy  :  -152.3607063 Eh     change       -0.1503522E-03 Eh
 * total energy  :  -152.3608445 Eh     change       -0.1382422E-03 Eh
 * total energy  :  -152.3618664 Eh     change       -0.2605940E-06 Eh
 * total energy  :  -152.3618667 Eh     change       -0.3404991E-06 Eh
 * total energy  :  -152.3618671 Eh     change       -0.3974967E-06 Eh
 * total energy  :  -152.3618674 Eh     change       -0.2929226E-06 Eh
 * total energy  :  -152.3618676 Eh     change       -0.2021474E-06 Eh
 * total energy  :  -152.3618678 Eh     change       -0.1782954E-06 Eh
 * total energy  :  -152.3618680 Eh     change       -0.1504269E-06 Eh
 * total energy  :  -152.3618681 Eh     change       -0.1087900E-06 Eh
 * total energy  :  -152.3618682 Eh     change       -0.9790523E-07 Eh
   *** GEOMETRY OPTIMIZATION CONVERGED AFTER 85 ITERATIONS ***

 final structure:
================
111
 xtb: 6.7.1 (edcfbbe)
C            8.72722287032101        0.39989080778193       -1.52772693112837
C            7.61103948066339        1.23147450958632       -2.16753807357027
C            7.98810458817789        2.71525673522308       -2.03834160166707
C            7.51894150669722        0.84525661597272       -3.65172794846958
C            6.25882156247291        1.00331205964212       -1.50888585182346
C            5.14341582564291        1.70318020335940       -1.98917882609760
C            3.87984962408223        1.56333082580733       -1.45109266344359
C            3.72205980823895        0.69515883845494       -0.37984277552999
C            4.82459849607340       -0.03827695672990        0.11000920716639
C            6.08213311086197        0.11949014045459       -0.45130607967480
C            4.32042705472130       -0.86711900551125        1.17554518544174
C            4.92189312584314       -1.77506531313868        2.03282730411731
C            4.15992525143760       -2.41917480607841        3.00020079265656
C            4.75340810220947       -3.42979345546784        3.97003597406528
C            4.56072441053473       -2.92091589288206        5.40681824815245
C            4.03504633395023       -4.77644196962105        3.79392453157631
C            6.25121940807566       -3.65629775717638        3.74263257282675
C            2.79504831116461       -2.11357817640099        3.08901197572466
C            2.17051956678503       -1.21422186567293        2.24812130048026
C            2.93718111420526       -0.59815900480762        1.26867912141887
N            2.58612740017769        0.33960144337189        0.31909858392619
C            1.30634454010916        0.87317126419391        0.12452048876734
C            1.14185445031107        2.24730572445941        0.07343072080319
C           -0.13008666686483        2.81587868939153       -0.10357439553951
C           -0.21212569838902        4.27546736783992       -0.13457198557745
O            0.85252283930432        4.96278226855134       -0.14949111260613
C           -1.49654605000903        4.94064884944020       -0.12006187716806
C           -1.51315810068712        6.35802569945805       -0.16901454399714
C           -2.70953196236850        7.02062931192787       -0.13301439901834
C           -3.90239181628999        6.29019089549040       -0.04518529699599
C           -3.80412647303724        4.91100627175372        0.00269946403434
N           -2.65443079830081        4.27348075329692       -0.03270126022485
C           -1.22246128061827        1.95760382731333       -0.26263838597257
C           -1.06050364808352        0.58084789348891       -0.16753072304040
N           -2.17467958715030       -0.25112572644172       -0.31006325325132
C           -3.38649671410101       -0.07590930918380        0.32704384841908
C           -3.76934009668641        0.85874124756924        1.27907813565314
C           -5.05651618298334        0.78652744195158        1.77319286698991
C           -5.97712331939222       -0.18809931147508        1.36455386447096
C           -7.37711812726186       -0.17444080993042        1.95961575848844
C           -8.26639116372918       -1.29017924648389        1.40208452057735
C           -8.04404179997412        1.17207902357158        1.63878035475853
C           -7.27964782332559       -0.35654740620332        3.48196419247258
C           -5.57031864043809       -1.13615750484173        0.43288412751349
C           -4.28441699375043       -1.08590259912447       -0.08149074764823
C           -3.56943787160454       -1.90674739271241       -1.02625444330507
C           -3.92595740741105       -3.02289618707996       -1.76626238741533
C           -3.00464595118467       -3.59869176303352       -2.63300754761419
C           -3.32488713615468       -4.82895582985073       -3.46839107600986
C           -3.19383709418306       -4.47425803695847       -4.95746342539094
C           -4.74389385608993       -5.35272062592974       -3.22663898174923
C           -2.33576988813086       -5.94914973065193       -3.11135248950924
C           -1.73674282004466       -3.01304148280427       -2.74515510732551
C           -1.35581498722676       -1.90123886876826       -2.02020163139864
C           -2.27506677717662       -1.35291073008293       -1.13677786782453
C            0.20373263696021        0.02529248248965        0.02300442573536
H            8.84904251350078        0.65134550147763       -0.47661865054102
H            8.52593824008638       -0.66473182886652       -1.62180728225812
H            9.66768326632114        0.60905023346970       -2.03359409918713
H            7.26304763802668        3.35561734275924       -2.53307491107253
H            8.03445945960294        3.00212980289759       -0.98945444234720
H            8.96244356073588        2.89352376119401       -2.48858304748819
H            8.48485126689558        0.98233547803996       -4.13324436834073
H            6.78830728601467        1.45447071171571       -4.17649288920697
H            7.22753208289327       -0.19857171305557       -3.75126517548336
H            5.26180078022836        2.38451514452327       -2.81749473031581
H            3.04528575515667        2.11662117359335       -1.85478399711971
H            6.90260220852197       -0.45419209875226       -0.05491173945883
H            5.97804054799830       -1.95946351908568        1.93366751683108
H            3.50831980481411       -2.81176766740295        5.65345557938739
H            5.00477143458431       -3.61975711392688        6.11260329610533
H            5.04190632986203       -1.95255071046996        5.53053491771261
H            4.15145027255574       -5.13387903277529        2.77262682639882
H            2.97308086212519       -4.69195799065434        4.00668048362476
H            4.45948443478252       -5.51640006849524        4.46918860975136
H            6.61778262504027       -4.39116970265103        4.45663309579706
H            6.81347024649366       -2.73710738919052        3.89056765579597
H            6.44242066859537       -4.03705906946113        2.74190945823616
H            2.19452811143981       -2.59084353582202        3.84774890891526
H            1.12142138558573       -0.98931511524069        2.36506258370972
H            1.98446522307911        2.91034473574057        0.19813958488087
H           -0.55946499113567        6.86094798861978       -0.23310438860326
H           -2.73612249209410        8.10044795771133       -0.17224513928609
H           -4.86260408747605        6.77813853810204       -0.01522309350335
H           -4.68417063181182        4.28361950923265        0.07036584116451
H           -2.19437202449798        2.36972689652826       -0.48216999564402
H           -3.08742455969400        1.62002350556495        1.62557840039398
H           -5.35182693966117        1.51871759007391        2.50870231332509
H           -9.25352261672358       -1.22519451107293        1.85539311646189
H           -8.38537277762979       -1.19475495552005        0.32519319238532
H           -7.85643969597542       -2.27068461455432        1.63296386629619
H           -8.09062142868678        1.32203998718672        0.56177486180305
H           -7.49538541039865        2.00213974909082        2.07511336773778
H           -9.05764327036545        1.19007672445504        2.03382261577296
H           -8.27513210031312       -0.36627096494166        3.92088259421655
H           -6.78895371931732       -1.29890233557324        3.71767147180517
H           -6.71283236412036        0.44726479679379        3.94352039283613
H           -6.23281330204498       -1.91663952816825        0.09929475594891
H           -4.92023275370932       -3.42112461212428       -1.65653427815541
H           -3.87532036989205       -3.66515118673506       -5.21328815201788
H           -2.18387940642510       -4.15927092668191       -5.20469654254111
H           -3.43979696251460       -5.33926658649024       -5.56982110231596
H           -5.48844078810796       -4.60791712993817       -3.49833809408017
H           -4.88396542711983       -5.63786995924389       -2.18646885009158
H           -4.91306341447473       -6.23439378745172       -3.84162734046089
H           -1.31112235199699       -5.65973712906165       -3.32721274651083
H           -2.56392944032233       -6.84482786133861       -3.68526371495450
H           -2.40648078489699       -6.19032645511244       -2.05244139348573
H           -1.01692601553389       -3.43666139230008       -3.42815798298680
H           -0.37598180641706       -1.46911024153203       -2.15383101305774
H            0.32721707467554       -1.04347936609073        0.08911767660110

          :  Hamiltonian                  GFN2-xTB          :
         :: gradient norm              0.000093892535 Eh/a0 ::
         :: HOMO-LUMO gap              1.178970260857 eV    ::
         :: SCC energy              -154.946768633683 Eh    ::
         :: -> dispersion             -0.139160178852 Eh    ::
         :: -> Gsolv                  -0.070000903546 Eh    ::
         :: repulsion energy           2.584900450107 Eh    ::

    * Orbital Energies and Occupations

         #    Occupation            Energy/Eh            Energy/eV
      -------------------------------------------------------------
         1        2.0000           -0.6838319             -18.6080
       ...           ...                  ...                  ...
       131        2.0000           -0.4121566             -11.2154
       132        2.0000           -0.4108923             -11.1809
       133        2.0000           -0.4105817             -11.1725
       134        2.0000           -0.4086931             -11.1211
       135        2.0000           -0.4034942             -10.9796
       136        2.0000           -0.4027413             -10.9591
       137        2.0000           -0.3862787             -10.5112
       138        2.0000           -0.3813947             -10.3783
       139        2.0000           -0.3804566             -10.3528
       140        1.9944           -0.3678218             -10.0089
       141        1.9264           -0.3653002              -9.9403
       142        1.0792           -0.3605630              -9.8114
       143        1.0000           -0.2929319              -7.9711 (HOMO)
       144                         -0.2496048              -6.7921 (LUMO)
       145                         -0.2482660              -6.7557
       146                         -0.2439239              -6.6375
       147                         -0.2368820              -6.4459
       148                         -0.2361050              -6.4247
       149                         -0.2261811              -6.1547
       150                         -0.2252865              -6.1304
       151                         -0.2026609              -5.5147
       152                         -0.1924890              -5.2379
       153                         -0.1910739              -5.1994
       154                         -0.1902621              -5.1773
       ...                                ...                  ...
       279                          0.7349560              19.9992
      -------------------------------------------------------------
                  HL-Gap            0.0433271 Eh            1.1790 eV

     #   Z          covCN         q      C6AA      α(0)
     1   6 C        3.761    -0.109    22.635     6.782
     2   6 C        3.902     0.026    20.078     6.369
     3   6 C        3.761    -0.106    22.562     6.771
     4   6 C        3.761    -0.106    22.574     6.773
     5   6 C        2.972     0.007    27.864     8.659
     6   6 C        2.930    -0.037    28.921     8.820
     7   6 C        2.908    -0.046    29.130     8.850
     8   6 C        3.077     0.045    26.908     8.505
     9   6 C        3.065    -0.016    28.339     8.729
    10   6 C        2.917    -0.041    29.020     8.834
    11   6 C        3.065    -0.015    28.321     8.727
    12   6 C        2.917    -0.041    29.006     8.832
    13   6 C        2.972     0.007    27.857     8.658
    14   6 C        3.902     0.026    20.076     6.369
    15   6 C        3.761    -0.106    22.574     6.773
    16   6 C        3.761    -0.107    22.583     6.774
    17   6 C        3.761    -0.109    22.631     6.782
    18   6 C        2.930    -0.038    28.938     8.822
    19   6 C        2.908    -0.048    29.187     8.859
    20   6 C        3.076     0.044    26.925     8.507
    21   7 N        2.804    -0.025    21.721     6.922
    22   6 C        2.909     0.063    26.596     8.456
    23   6 C        2.930    -0.041    29.015     8.834
    24   6 C        2.967    -0.007    28.200     8.710
    25   6 C        2.835     0.163    24.466     8.106
    26   8 O        0.858    -0.524    24.315     6.611
    27   6 C        2.937     0.062    26.616     8.461
    28   6 C        2.920    -0.034    28.839     8.806
    29   6 C        2.922    -0.020    28.496     8.754
    30   6 C        2.914    -0.056    29.395     8.890
    31   6 C        2.886     0.060    26.662     8.465
    32   7 N        1.841    -0.228    26.840     7.678
    33   6 C        2.923    -0.058    29.448     8.899
    34   6 C        2.910     0.065    26.551     8.449
    35   7 N        2.804    -0.020    21.637     6.909
    36   6 C        3.078     0.044    26.933     8.508
    37   6 C        2.908    -0.045    29.125     8.849
    38   6 C        2.930    -0.037    28.919     8.819
    39   6 C        2.972     0.008    27.842     8.655
    40   6 C        3.902     0.026    20.075     6.369
    41   6 C        3.761    -0.109    22.638     6.783
    42   6 C        3.761    -0.106    22.569     6.772
    43   6 C        3.761    -0.106    22.577     6.774
    44   6 C        2.917    -0.040    29.004     8.831
    45   6 C        3.064    -0.015    28.311     8.725
    46   6 C        3.065    -0.014    28.307     8.724
    47   6 C        2.917    -0.040    28.998     8.830
    48   6 C        2.972     0.008    27.846     8.656
    49   6 C        3.902     0.026    20.075     6.369
    50   6 C        3.761    -0.106    22.576     6.773
    51   6 C        3.761    -0.109    22.635     6.782
    52   6 C        3.761    -0.107    22.582     6.774
    53   6 C        2.930    -0.037    28.929     8.821
    54   6 C        2.908    -0.047    29.170     8.856
    55   6 C        3.075     0.043    26.950     8.511
    56   6 C        2.922    -0.071    29.781     8.949
    57   1 H        0.925     0.038     2.476     2.461
    58   1 H        0.925     0.039     2.462     2.454
    59   1 H        0.925     0.040     2.455     2.450
    60   1 H        0.925     0.036     2.504     2.475
    61   1 H        0.925     0.033     2.539     2.492
    62   1 H        0.925     0.041     2.437     2.441
    63   1 H        0.925     0.041     2.433     2.439
    64   1 H        0.925     0.037     2.494     2.469
    65   1 H        0.925     0.035     2.515     2.480
    66   1 H        0.926     0.037     2.494     2.470
    67   1 H        0.926     0.031     2.575     2.509
    68   1 H        0.926     0.050     2.317     2.380
    69   1 H        0.926     0.049     2.327     2.386
    70   1 H        0.925     0.038     2.482     2.464
    71   1 H        0.925     0.041     2.437     2.441
    72   1 H        0.925     0.033     2.538     2.491
    73   1 H        0.925     0.035     2.516     2.481
    74   1 H        0.925     0.038     2.474     2.459
    75   1 H        0.925     0.041     2.437     2.441
    76   1 H        0.925     0.039     2.460     2.453
    77   1 H        0.925     0.037     2.484     2.465
    78   1 H        0.925     0.038     2.472     2.459
    79   1 H        0.926     0.040     2.450     2.448
    80   1 H        0.926     0.035     2.516     2.480
    81   1 H        0.926     0.051     2.311     2.377
    82   1 H        0.926     0.042     2.418     2.432
    83   1 H        0.926     0.041     2.429     2.437
    84   1 H        0.926     0.041     2.433     2.439
    85   1 H        0.925     0.041     2.436     2.441
    86   1 H        0.926     0.077     2.005     2.214
    87   1 H        0.926     0.036     2.500     2.473
    88   1 H        0.926     0.038     2.476     2.461
    89   1 H        0.925     0.039     2.458     2.452
    90   1 H        0.925     0.038     2.471     2.458
    91   1 H        0.925     0.039     2.464     2.455
    92   1 H        0.925     0.034     2.531     2.488
    93   1 H        0.925     0.037     2.495     2.470
    94   1 H        0.925     0.041     2.438     2.442
    95   1 H        0.925     0.041     2.436     2.441
    96   1 H        0.925     0.035     2.516     2.481
    97   1 H        0.925     0.037     2.489     2.467
    98   1 H        0.926     0.051     2.309     2.376
    99   1 H        0.926     0.050     2.316     2.380
   100   1 H        0.925     0.034     2.532     2.488
   101   1 H        0.925     0.037     2.483     2.464
   102   1 H        0.925     0.041     2.438     2.442
   103   1 H        0.925     0.038     2.478     2.462
   104   1 H        0.925     0.038     2.469     2.457
   105   1 H        0.925     0.039     2.461     2.453
   106   1 H        0.925     0.038     2.477     2.461
   107   1 H        0.925     0.041     2.439     2.442
   108   1 H        0.925     0.035     2.517     2.481
   109   1 H        0.926     0.040     2.451     2.448
   110   1 H        0.926     0.035     2.513     2.479
   111   1 H        0.926     0.055     2.261     2.351

molecular dipole:
                 x           y           z       tot (Debye)
 q only:       -0.705      -4.365       0.129
   full:       -0.825      -3.754       0.109       9.773

 projected vibrational frequencies (cm⁻¹)
eigval :       -0.00    -0.00     0.00     0.00     0.00     0.00
eigval :       10.03    11.16    13.26    15.42    24.33    26.94
eigval :       27.83    30.64    34.53    37.46    43.40    48.71
eigval :       61.08    62.46    63.98    67.48    81.58    84.71
eigval :       93.09   106.99   121.66   135.93   148.90   154.26
eigval :      158.42   162.01   166.19   176.54   182.68   183.68
eigval :      187.32   200.23   201.30   202.85   217.68   220.44
eigval :      223.36   227.47   229.46   231.87   234.53   240.97
eigval :      253.70   257.37   259.53   277.51   282.15   288.97
eigval :      297.99   312.49   316.57   317.88   319.74   326.22
eigval :      333.58   337.26   340.72   346.95   351.45   356.71
eigval :      357.67   364.73   369.16   374.23   381.47   385.44
eigval :      394.35   397.89   402.38   405.35   406.81   424.07
eigval :      439.59   441.29   442.12   443.22   460.65   461.79
eigval :      463.43   464.57   465.40   469.96   500.74   510.72
eigval :      515.46   534.54   542.01   569.23   574.93   581.15
eigval :      585.74   586.09   594.32   597.32   608.76   624.83
eigval :      631.03   636.06   641.72   642.88   652.47   667.21
eigval :      669.87   690.83   691.70   700.47   708.37   709.86
eigval :      716.03   719.23   744.76   765.03   781.94   807.50
eigval :      820.13   825.38   826.19   829.96   831.50   831.98
eigval :      847.53   849.87   865.29   869.27   869.71   871.36
eigval :      872.14   874.50   879.79   890.65   894.18   907.59
eigval :      915.21   919.11   919.60   920.53   923.07   925.32
eigval :      929.89   931.46   956.54   958.21   958.71   958.91
eigval :      959.29   960.94   961.83   962.06   962.44   962.62
eigval :      963.44   963.47   965.64   984.91  1027.02  1028.86
eigval :     1032.40  1032.99  1033.66  1034.37  1034.82  1034.88
eigval :     1036.50  1037.82  1042.31  1046.94  1072.31  1108.65
eigval :     1110.82  1114.17  1125.35  1127.29  1128.40  1135.40
eigval :     1146.46  1156.48  1163.48  1164.61  1187.70  1202.88
eigval :     1214.82  1217.12  1223.14  1223.22  1223.37  1223.44
eigval :     1226.66  1228.40  1228.60  1229.05  1229.91  1229.96
eigval :     1231.71  1240.97  1242.72  1251.73  1257.98  1278.97
eigval :     1280.25  1290.93  1291.05  1293.50  1301.13  1323.68
eigval :     1332.31  1334.35  1336.00  1341.54  1347.50  1347.64
eigval :     1365.40  1376.48  1398.44  1398.73  1400.71  1401.21
eigval :     1401.57  1402.69  1402.82  1403.34  1404.74  1406.40
eigval :     1407.08  1415.48  1423.26  1425.49  1425.88  1426.39
eigval :     1427.27  1437.68  1443.44  1461.01  1461.92  1462.01
eigval :     1473.87  1475.21  1475.93  1487.90  1488.08  1488.25
eigval :     1489.16  1490.43  1490.70  1491.09  1491.47  1496.82
eigval :     1497.17  1497.41  1497.55  1501.20  1501.30  1501.34
eigval :     1502.13  1509.71  1510.49  1510.68  1511.74  1512.09
eigval :     1515.42  1515.98  1516.11  1516.99  1518.94  1559.08
eigval :     1559.55  1563.52  1571.82  1574.43  1577.88  1578.14
eigval :     1593.62  1604.22  3020.91  3021.18  3021.28  3021.36
eigval :     3021.95  3021.99  3022.02  3022.07  3025.01  3025.12
eigval :     3025.19  3025.36  3026.37  3026.57  3026.84  3026.89
eigval :     3028.66  3028.82  3028.89  3029.45  3032.02  3032.45
eigval :     3032.50  3032.63  3036.70  3036.96  3037.05  3037.10
eigval :     3043.84  3044.70  3045.41  3045.91  3045.95  3048.29
eigval :     3048.66  3049.19  3049.27  3064.56  3083.00  3083.85
eigval :     3085.01  3086.44  3086.81  3091.29  3095.63  3097.10
eigval :     3097.70  3098.35  3099.22  3105.87  3110.44  3121.38
eigval :     3122.01  3124.07  3124.73

   temp. (K)  partition function   enthalpy   heat capacity  entropy
                                   cal/mol     cal/K/mol   cal/K/mol   J/K/mol
 298.15  VIB  0.135E+26            32315.134    197.414    200.392
         ROT  0.160E+09              888.752      2.981     40.520
         INT  0.215E+34            33203.886    200.394    240.913
         TR   0.194E+29             1481.254      4.968     45.655
         TOT                       34685.1404   205.3625   286.5678  1198.9995

       T/K    H(0)-H(T)+PV         H(T)/Eh          T*S/Eh         G(T)/Eh
   ------------------------------------------------------------------------
    298.15    0.552743E-01    0.972841E+00    0.136158E+00    0.836684E+00
   ------------------------------------------------------------------------

         :::::::::::::::::::::::::::::::::::::::::::::::::::::
         ::                  THERMODYNAMIC                  ::
         :::::::::::::::::::::::::::::::::::::::::::::::::::::
         :: total free energy        -151.525184587610 Eh   ::
         ::.................................................::
         :: total energy             -152.361868188675 Eh   ::
         :: zero point energy           0.917566901927 Eh   ::
         :: G(RRHO) w/o ZPVE           -0.080883300862 Eh   ::
         :: G(RRHO) contrib.            0.836683601065 Eh   ::
         :::::::::::::::::::::::::::::::::::::::::::::::::::::

           -------------------------------------------------
          | TOTAL ENERGY             -152.361868188675 Eh   |
          | TOTAL ENTHALPY           -151.389026997166 Eh   |
          | TOTAL FREE ENERGY        -151.525184587610 Eh   |
          | GRADIENT NORM               0.000085825387 Eh/α |
          | HOMO-LUMO GAP               1.178990016463 eV   |
           -------------------------------------------------

 * finished run on 2025/09/08 at 03:24:27.739
