   * xtb version 6.7.1 (edcfbbe) compiled by 'albert@albert-system' on 2024-07-22

   ID    Z sym.   atoms
    1    6 C      1-20, 22-25, 27-31, 33, 34, 36-56
    2    7 N      21, 32, 35
    3    8 O      26
    4    1 H      57-111

          program call               : xtb data2507/toluene/2BPy-mDTC/2BPy-mDTC.xyz --gfn 2 --gbsa toluene --ohess vtight --parallel 40 --molden --ceasefiles --namespace data2507/toluene/2BPy-mDTC/2BPy-mDTC_toluene_S0_preOpt
      * Solvation model:               GBSA
        Solvent                        toluene
        Solvent mass                       9.2140E+01 g/mol
          :  Hamiltonian                  GFN2-xTB          :
 * total energy  :  -152.3987145 Eh     change       -0.2560370E-08 Eh
 * total energy  :  -152.4149908 Eh     change       -0.1627621E-01 Eh
 * total energy  :  -152.4197298 Eh     change       -0.4739034E-02 Eh
 * total energy  :  -152.4211090 Eh     change       -0.1379205E-02 Eh
 * total energy  :  -152.4218851 Eh     change       -0.7761267E-03 Eh
 * total energy  :  -152.4221133 Eh     change       -0.2281845E-03 Eh
 * total energy  :  -152.4222364 Eh     change       -0.1230848E-03 Eh
 * total energy  :  -152.4223334 Eh     change       -0.9705404E-04 Eh
 * total energy  :  -152.4224072 Eh     change       -0.7376701E-04 Eh
 * total energy  :  -152.4224610 Eh     change       -0.5380465E-04 Eh
 * total energy  :  -152.4227688 Eh     change       -0.3127891E-06 Eh
 * total energy  :  -152.4227691 Eh     change       -0.2769534E-06 Eh
 * total energy  :  -152.4227693 Eh     change       -0.2102735E-06 Eh
 * total energy  :  -152.4227694 Eh     change       -0.1512863E-06 Eh
 * total energy  :  -152.4227696 Eh     change       -0.1688234E-06 Eh
 * total energy  :  -152.4227698 Eh     change       -0.2286460E-06 Eh
 * total energy  :  -152.4227701 Eh     change       -0.2957561E-06 Eh
 * total energy  :  -152.4227705 Eh     change       -0.3495537E-06 Eh
 * total energy  :  -152.4227705 Eh     change       -0.1784514E-08 Eh
   *** GEOMETRY OPTIMIZATION CONVERGED AFTER 94 ITERATIONS ***

 final structure:
================
111
 xtb: 6.7.1 (edcfbbe)
C            8.69819175643710        0.71852655504675       -1.24788277798624
C            7.65405921262819        1.77311534724073       -1.62799952827008
C            8.13826476004249        3.13307825129855       -1.10296367166997
C            7.55404553051614        1.81293452753654       -3.16034020439837
C            6.28030700199144        1.47394836622084       -1.04316643666163
C            5.22346752167699        2.35420164426720       -1.31151119428608
C            3.94736104531274        2.16968508887490       -0.81789759609331
C            3.71380572416077        1.06631991312657       -0.01207449121108
C            4.75226393292870        0.14985039983666        0.25100630749985
C            6.02645802885330        0.35912689445770       -0.26045742054273
C            4.18029685306937       -0.89675601866729        1.05495314323539
C            4.70505917015478       -2.04364345507097        1.62942042875708
C            3.89435277318825       -2.87610897957463        2.39066309936385
C            4.49215565177277       -4.13833370002256        2.99889362371627
C            3.47078779593181       -4.95996757754748        3.79147899938022
C            5.04164114539014       -5.02570090648968        1.87156821303989
C            5.63091744292668       -3.74561933004973        3.95200156101731
C            2.55764203608025       -2.51267651419971        2.57612441585005
C            2.00799409603639       -1.37307411366670        2.01555568532023
C            2.81857094370451       -0.56943445020406        1.23206073519499
N            2.54409658170816        0.62236818557850        0.58178663843167
C            1.30852717862228        1.26976723082884        0.53055349343971
C            1.21952695850975        2.63281160680657        0.78880171262355
C           -0.00906316125571        3.28563453277414        0.70644459169203
C           -0.03163124189552        4.73626061298187        0.99419017653808
O            0.82096087536395        5.26377184847302        1.69149086485312
C           -1.12174622944935        5.56115824783859        0.39747267934747
C           -1.43947843977764        6.78725195462062        0.98240769554573
C           -2.42879186294293        7.56402906767858        0.40290370309521
C           -3.05636493765730        7.09563201280069       -0.74099567190426
C           -2.66215147610661        5.86418567689841       -1.25058771696468
N           -1.72548134183987        5.11535540162455       -0.70202497825783
C           -1.15977479332979        2.56599661887440        0.40199983153936
C           -1.07950470506980        1.19424546648108        0.17651082296484
N           -2.23536318897726        0.46600846368456       -0.11235246955063
C           -3.43861960660321        0.55247602494239        0.56814295323827
C           -3.78646606986701        1.28690746391704        1.68922254928548
C           -5.07117980195147        1.15800242435488        2.18754694212336
C           -6.02249236091666        0.31064655967693        1.61324595611513
C           -7.43776405215595        0.17693968010319        2.16055265357380
C           -7.67302820929088       -1.27816283828085        2.59314011542636
C           -8.43885107853217        0.55965944654307        1.05994065537756
C           -7.69694880472146        1.07936479401999        3.37090762323333
C           -5.65107327940775       -0.44417495592097        0.50768327346221
C           -4.37177579324584       -0.33310441040343       -0.01283951606105
C           -3.69618290583908       -0.98050624507869       -1.10544618178012
C           -4.09661527298034       -1.92133420167075       -2.04072292493656
C           -3.20880264528825       -2.35605368508014       -3.01670877981877
C           -3.66838602610632       -3.40301679528003       -4.02312214575771
C           -4.86243437181721       -2.84878049624506       -4.81467056777600
C           -4.09073154227774       -4.67151752438147       -3.26631434584422
C           -2.57431397341581       -3.79103968148153       -5.02254266041468
C           -1.92563837951592       -1.80312959774960       -3.03957571295830
C           -1.50013818270204       -0.86161820565345       -2.11880317128292
C           -2.38366756753543       -0.46202151248443       -1.13054293439382
C            0.15394626981426        0.55095729836210        0.23081510160862
H            8.82478854971014        0.66437572910559       -0.16889570364395
H            8.41861937019979       -0.26253191479497       -1.62534958469071
H            9.65826984664029        0.98554031681548       -1.68549673965946
H            7.46494932466035        3.93440463433044       -1.39503942306982
H            8.19669190406615        3.11740844936143       -0.01617600946210
H            9.12664957642794        3.35758122285170       -1.49903142504135
H            8.53476653101872        1.99599880100094       -3.59477937461466
H            6.88268717775741        2.59929928605114       -3.49430637558366
H            7.18048190328719        0.86275853990161       -3.53742533287463
H            5.39948068473843        3.21885665462626       -1.93331559819946
H            3.15924434498216        2.86523802192820       -1.06578922386201
H            6.79593357571247       -0.36096716581269       -0.03791021159212
H            5.74875447436407       -2.27161406440485        1.47800890777532
H            2.64798612623866       -5.27999408369059        3.15602473482358
H            3.95396164470439       -5.85057675788150        4.18903391638023
H            3.07525516361489       -4.39137483742719        4.63010900725065
H            5.82220019615481       -4.51842068988623        1.31137686428141
H            4.24405221278695       -5.29148752997946        1.18031595661952
H            5.45966240492613       -5.94135407642103        2.28508408585213
H            6.06176080623620       -4.63478323568079        4.40802954056641
H            5.25386011988691       -3.09993937086989        4.74299813702389
H            6.42116145141987       -3.21501005070606        3.42799370160558
H            1.91119517876638       -3.12810095855745        3.17971521306402
H            0.97507431202891       -1.12101065945196        2.20386716981240
H            2.09658778058933        3.19951530329468        1.06149270521799
H           -0.91149269058172        7.09976370377056        1.87032410646571
H           -2.70062344728210        8.51647217807417        0.83331972379685
H           -3.82883051271589        7.66830711735987       -1.22941285805594
H           -3.11570873893489        5.45374033194507       -2.14357801595186
H           -2.11228823843725        3.06199332319831        0.32981002523304
H           -3.07867610611780        1.93914377620260        2.17915422859936
H           -5.32495686381214        1.74069666590897        3.05772462150648
H           -8.67494422904469       -1.39039815757876        3.00268275624587
H           -7.56912110770547       -1.96265441830442        1.75574272917937
H           -6.95316687862673       -1.56418396265881        3.35776311663672
H           -8.34681415059625       -0.09210655742699        0.19554091003333
H           -8.26602129969631        1.58371402926240        0.73407383744082
H           -9.45708391440471        0.48405836288695        1.43630509061846
H           -8.72312753491625        0.94563180047608        3.70813651194711
H           -7.03719738084306        0.82576538679402        4.19770152737673
H           -7.56214589593571        2.12783114197995        3.11430661015408
H           -6.34520622991973       -1.12762936824031        0.04368614160556
H           -5.10503056191849       -2.30279520351219       -1.99756367732534
H           -5.69774289046560       -2.61580284412350       -4.16004153030533
H           -4.57640396183727       -1.93864066984193       -5.33859359589170
H           -5.19771269910428       -3.57899098178047       -5.54854208235313
H           -4.91319951132683       -4.47209098517770       -2.58497348085431
H           -3.25490682432931       -5.05862444891397       -2.68645365878678
H           -4.40895753177450       -5.43936132236958       -3.96868432248915
H           -2.26234810035897       -2.93462019259007       -5.61615939753702
H           -2.95939362315337       -4.54776969784469       -5.70352667971947
H           -1.70825953490522       -4.20788372918637       -4.51315767990951
H           -1.22320780681053       -2.10536900111238       -3.79858769366629
H           -0.50600530213789       -0.44672763649100       -2.19005216881246
H            0.21626192246636       -0.50972161701178        0.04457781983762

          :  Hamiltonian                  GFN2-xTB          :
         :: gradient norm              0.000034898776 Eh/a0 ::
         :: HOMO-LUMO gap              1.329549294669 eV    ::
         :: SCC energy              -155.017352830208 Eh    ::
         :: -> dispersion             -0.138018707680 Eh    ::
         :: -> Gsolv                  -0.061834648254 Eh    ::
         :: repulsion energy           2.594582366433 Eh    ::

    * Orbital Energies and Occupations

         #    Occupation            Energy/Eh            Energy/eV
      -------------------------------------------------------------
         1        2.0000           -0.7212968             -19.6275
       ...           ...                  ...                  ...
       130        2.0000           -0.4141428             -11.2694
       131        2.0000           -0.4114200             -11.1953
       132        2.0000           -0.4074691             -11.0878
       133        2.0000           -0.4072968             -11.0831
       134        2.0000           -0.4063992             -11.0587
       135        2.0000           -0.4054812             -11.0337
       136        2.0000           -0.3945424             -10.7360
       137        2.0000           -0.3945003             -10.7349
       138        2.0000           -0.3830452             -10.4232
       139        2.0000           -0.3743897             -10.1877
       140        2.0000           -0.3730109             -10.1501
       141        2.0000           -0.3579358              -9.7399
       142        2.0000           -0.3575804              -9.7303 (HOMO)
       143                         -0.3087204              -8.4007 (LUMO)
       144                         -0.2637616              -7.1773
       145                         -0.2515495              -6.8450
       146                         -0.2473798              -6.7315
       147                         -0.2400545              -6.5322
       148                         -0.2367276              -6.4417
       149                         -0.2182690              -5.9394
       150                         -0.2169960              -5.9048
       151                         -0.2066448              -5.6231
       152                         -0.1866593              -5.0793
       153                         -0.1855252              -5.0484
       ...                                ...                  ...
       279                          0.7464096              20.3108
      -------------------------------------------------------------
                  HL-Gap            0.0488600 Eh            1.3295 eV

     #   Z          covCN         q      C6AA      α(0)
     1   6 C        3.761    -0.107    22.586     6.775
     2   6 C        3.902     0.025    20.100     6.373
     3   6 C        3.761    -0.105    22.543     6.768
     4   6 C        3.761    -0.105    22.549     6.769
     5   6 C        2.972    -0.002    28.067     8.690
     6   6 C        2.931    -0.040    28.988     8.830
     7   6 C        2.908    -0.054    29.341     8.882
     8   6 C        3.074     0.043    26.955     8.512
     9   6 C        3.064    -0.020    28.431     8.744
    10   6 C        2.918    -0.045    29.111     8.848
    11   6 C        3.065    -0.019    28.415     8.741
    12   6 C        2.920    -0.040    29.006     8.832
    13   6 C        2.972    -0.002    28.064     8.690
    14   6 C        3.902     0.025    20.100     6.373
    15   6 C        3.761    -0.107    22.587     6.775
    16   6 C        3.761    -0.105    22.551     6.770
    17   6 C        3.761    -0.105    22.545     6.769
    18   6 C        2.928    -0.044    29.104     8.847
    19   6 C        2.909    -0.055    29.375     8.887
    20   6 C        3.071     0.043    26.969     8.515
    21   7 N        2.801    -0.046    22.137     6.988
    22   6 C        2.908     0.071    26.407     8.426
    23   6 C        2.929    -0.039    28.968     8.827
    24   6 C        2.970    -0.006    28.179     8.707
    25   6 C        2.830     0.225    23.266     7.904
    26   8 O        0.858    -0.405    21.774     6.256
    27   6 C        2.960     0.071    26.401     8.428
    28   6 C        2.919    -0.027    28.674     8.781
    29   6 C        2.926    -0.007    28.201     8.709
    30   6 C        2.915    -0.031    28.769     8.795
    31   6 C        2.907     0.063    26.589     8.455
    32   7 N        1.839    -0.230    26.883     7.684
    33   6 C        2.923    -0.043    29.072     8.842
    34   6 C        2.909     0.072    26.392     8.424
    35   7 N        2.801    -0.045    22.108     6.983
    36   6 C        3.071     0.043    26.972     8.515
    37   6 C        2.909    -0.056    29.380     8.888
    38   6 C        2.928    -0.045    29.110     8.848
    39   6 C        2.972    -0.002    28.069     8.690
    40   6 C        3.902     0.025    20.100     6.373
    41   6 C        3.761    -0.105    22.547     6.769
    42   6 C        3.761    -0.105    22.549     6.769
    43   6 C        3.761    -0.107    22.583     6.774
    44   6 C        2.920    -0.040    29.000     8.831
    45   6 C        3.064    -0.019    28.408     8.740
    46   6 C        3.064    -0.019    28.412     8.741
    47   6 C        2.920    -0.040    28.997     8.831
    48   6 C        2.972    -0.001    28.059     8.689
    49   6 C        3.902     0.025    20.099     6.373
    50   6 C        3.761    -0.105    22.547     6.769
    51   6 C        3.761    -0.105    22.548     6.769
    52   6 C        3.761    -0.107    22.589     6.775
    53   6 C        2.928    -0.044    29.093     8.846
    54   6 C        2.909    -0.055    29.363     8.885
    55   6 C        3.071     0.043    26.960     8.514
    56   6 C        2.926    -0.055    29.367     8.887
    57   1 H        0.925     0.036     2.507     2.476
    58   1 H        0.925     0.036     2.501     2.473
    59   1 H        0.925     0.037     2.491     2.468
    60   1 H        0.925     0.035     2.518     2.482
    61   1 H        0.925     0.032     2.558     2.501
    62   1 H        0.925     0.038     2.476     2.461
    63   1 H        0.925     0.038     2.474     2.460
    64   1 H        0.925     0.035     2.513     2.479
    65   1 H        0.925     0.033     2.548     2.496
    66   1 H        0.926     0.030     2.586     2.515
    67   1 H        0.926     0.023     2.684     2.562
    68   1 H        0.926     0.039     2.456     2.450
    69   1 H        0.926     0.033     2.549     2.497
    70   1 H        0.925     0.036     2.509     2.477
    71   1 H        0.925     0.037     2.490     2.468
    72   1 H        0.925     0.035     2.518     2.481
    73   1 H        0.925     0.037     2.496     2.470
    74   1 H        0.925     0.032     2.553     2.499
    75   1 H        0.925     0.038     2.480     2.463
    76   1 H        0.925     0.038     2.478     2.462
    77   1 H        0.925     0.032     2.564     2.504
    78   1 H        0.925     0.036     2.500     2.473
    79   1 H        0.926     0.038     2.470     2.458
    80   1 H        0.926     0.026     2.648     2.545
    81   1 H        0.926     0.059     2.211     2.325
    82   1 H        0.926     0.058     2.228     2.334
    83   1 H        0.926     0.058     2.221     2.331
    84   1 H        0.926     0.059     2.206     2.323
    85   1 H        0.925     0.051     2.303     2.373
    86   1 H        0.926     0.062     2.174     2.306
    87   1 H        0.926     0.022     2.707     2.573
    88   1 H        0.926     0.037     2.490     2.468
    89   1 H        0.925     0.038     2.477     2.461
    90   1 H        0.925     0.037     2.496     2.470
    91   1 H        0.925     0.032     2.558     2.501
    92   1 H        0.925     0.037     2.494     2.469
    93   1 H        0.925     0.032     2.559     2.502
    94   1 H        0.925     0.038     2.478     2.462
    95   1 H        0.925     0.037     2.488     2.467
    96   1 H        0.925     0.035     2.519     2.482
    97   1 H        0.925     0.035     2.521     2.483
    98   1 H        0.926     0.033     2.550     2.497
    99   1 H        0.926     0.032     2.558     2.501
   100   1 H        0.925     0.036     2.501     2.473
   101   1 H        0.925     0.032     2.556     2.500
   102   1 H        0.925     0.038     2.480     2.463
   103   1 H        0.925     0.036     2.500     2.473
   104   1 H        0.925     0.032     2.556     2.500
   105   1 H        0.925     0.038     2.482     2.464
   106   1 H        0.925     0.035     2.513     2.479
   107   1 H        0.925     0.037     2.492     2.468
   108   1 H        0.925     0.035     2.511     2.478
   109   1 H        0.926     0.039     2.464     2.455
   110   1 H        0.926     0.027     2.628     2.535
   111   1 H        0.926     0.063     2.170     2.303

molecular dipole:
                 x           y           z       tot (Debye)
 q only:       -1.156      -0.535      -0.722
   full:       -1.335       0.002      -0.613       3.734

 projected vibrational frequencies (cm⁻¹)
eigval :       -0.00    -0.00    -0.00    -0.00     0.00     0.00
eigval :        8.63     8.70    12.53    13.30    19.44    24.69
eigval :       27.48    28.20    29.87    39.16    40.23    43.61
eigval :       55.65    64.10    67.01    69.98    74.37    84.82
eigval :       87.32   108.05   113.49   123.28   145.38   152.31
eigval :      155.07   160.32   171.22   177.09   179.09   181.49
eigval :      189.43   191.62   197.26   198.69   215.49   219.50
eigval :      222.50   227.04   232.46   236.15   239.67   248.03
eigval :      261.32   265.82   271.19   274.65   286.63   304.24
eigval :      306.17   309.58   310.52   316.53   317.76   324.82
eigval :      327.84   328.74   336.44   341.07   349.47   354.84
eigval :      357.90   358.63   368.83   370.19   375.79   382.72
eigval :      397.56   400.01   403.82   412.15   412.59   429.68
eigval :      440.64   442.56   443.77   444.73   460.49   461.49
eigval :      461.98   465.53   468.14   471.29   481.07   511.68
eigval :      520.72   538.85   567.92   570.71   576.10   582.25
eigval :      583.95   587.45   595.39   601.09   621.54   639.52
eigval :      639.69   640.04   647.13   666.28   670.09   685.35
eigval :      688.37   688.77   702.12   707.26   709.53   718.19
eigval :      718.53   722.78   765.50   784.10   786.33   815.22
eigval :      819.04   819.72   821.46   831.80   833.82   843.95
eigval :      869.34   872.00   872.91   876.91   881.66   883.90
eigval :      888.27   893.98   896.69   901.57   909.49   912.08
eigval :      915.73   918.12   921.51   923.75   925.98   931.49
eigval :      933.76   933.86   957.98   958.09   959.03   959.11
eigval :      960.33   960.60   960.91   961.68   962.27   962.32
eigval :      962.48   963.40   991.14   999.35  1029.82  1031.75
eigval :     1033.16  1034.13  1034.29  1034.58  1034.98  1035.63
eigval :     1035.96  1037.28  1044.34  1053.59  1087.38  1113.01
eigval :     1114.95  1119.16  1128.97  1130.57  1139.15  1143.46
eigval :     1154.15  1166.41  1177.92  1180.25  1194.42  1215.64
eigval :     1224.90  1225.16  1225.19  1225.62  1226.18  1226.78
eigval :     1227.29  1230.14  1230.77  1233.58  1235.43  1237.64
eigval :     1244.68  1250.47  1253.53  1254.90  1269.80  1283.33
eigval :     1284.22  1293.73  1294.22  1301.67  1301.94  1306.10
eigval :     1325.15  1337.06  1345.91  1349.17  1358.61  1363.33
eigval :     1390.10  1395.39  1398.73  1399.21  1400.91  1401.37
eigval :     1402.01  1402.28  1402.61  1403.08  1410.18  1411.02
eigval :     1425.19  1425.93  1427.27  1427.34  1429.00  1432.11
eigval :     1432.57  1451.74  1460.04  1473.11  1473.29  1473.61
eigval :     1481.82  1488.48  1488.90  1488.91  1489.00  1491.60
eigval :     1492.12  1492.67  1493.11  1499.15  1499.36  1499.77
eigval :     1500.98  1501.93  1502.00  1502.49  1502.72  1511.32
eigval :     1511.36  1511.73  1513.07  1517.48  1517.72  1517.97
eigval :     1519.23  1556.75  1558.65  1562.26  1563.47  1570.93
eigval :     1572.31  1582.98  1584.41  1603.74  1604.07  1616.51
eigval :     1617.98  1657.61  3017.99  3018.32  3018.43  3018.50
eigval :     3018.83  3018.91  3019.15  3019.79  3022.50  3022.65
eigval :     3022.94  3023.14  3024.04  3024.20  3024.56  3024.60
eigval :     3026.32  3026.39  3026.88  3027.15  3029.75  3029.95
eigval :     3030.27  3030.52  3034.72  3034.92  3035.14  3035.92
eigval :     3043.24  3044.05  3044.32  3044.44  3046.69  3047.58
eigval :     3047.93  3047.96  3056.73  3074.88  3075.87  3079.28
eigval :     3080.07  3082.04  3087.33  3089.05  3089.93  3090.10
eigval :     3096.72  3102.41  3102.93  3109.00  3115.72  3116.46
eigval :     3117.05  3118.15  3131.56

   temp. (K)  partition function   enthalpy   heat capacity  entropy
                                   cal/mol     cal/K/mol   cal/K/mol   J/K/mol
 298.15  VIB  0.549E+26            32269.007    195.886    201.247
         ROT  0.159E+09              888.752      2.981     40.515
         INT  0.876E+34            33157.759    198.867    241.761
         TR   0.194E+29             1481.254      4.968     45.655
         TOT                       34639.0133   203.8349   287.4164  1202.5501

       T/K    H(0)-H(T)+PV         H(T)/Eh          T*S/Eh         G(T)/Eh
   ------------------------------------------------------------------------
    298.15    0.552008E-01    0.975765E+00    0.136561E+00    0.839204E+00
   ------------------------------------------------------------------------

         :::::::::::::::::::::::::::::::::::::::::::::::::::::
         ::                  THERMODYNAMIC                  ::
         :::::::::::::::::::::::::::::::::::::::::::::::::::::
         :: total free energy        -151.583566604507 Eh   ::
         ::.................................................::
         :: total energy             -152.422770469569 Eh   ::
         :: zero point energy           0.920563875584 Eh   ::
         :: G(RRHO) w/o ZPVE           -0.081360010522 Eh   ::
         :: G(RRHO) contrib.            0.839203865062 Eh   ::
         :::::::::::::::::::::::::::::::::::::::::::::::::::::

           -------------------------------------------------
          | TOTAL ENERGY             -152.422770469569 Eh   |
          | TOTAL ENTHALPY           -151.447005812543 Eh   |
          | TOTAL FREE ENERGY        -151.583566604507 Eh   |
          | GRADIENT NORM               0.000034895906 Eh/α |
          | HOMO-LUMO GAP               1.329549347777 eV   |
           -------------------------------------------------

 * finished run on 2025/09/08 at 03:05:48.722
