   * xtb version 6.7.1 (edcfbbe) compiled by 'albert@albert-system' on 2024-07-22

   ID    Z sym.   atoms
    1    6 C      1-56
    2    1 H      57-90

          program call               : xtb data2507/toluene/BSBFB/BSBFB.xyz --gfn 2 --gbsa toluene --ohess vtight --parallel 40 --molden --ceasefiles --namespace data2507/toluene/BSBFB/BSBFB_toluene_S0_preOpt
      * Solvation model:               GBSA
        Solvent                        toluene
        Solvent mass                       9.2140E+01 g/mol
          :  Hamiltonian                  GFN2-xTB          :
 * total energy  :  -137.3528147 Eh     change       -0.2840864E-08 Eh
 * total energy  :  -137.3619218 Eh     change       -0.9107086E-02 Eh
 * total energy  :  -137.3635876 Eh     change       -0.1665785E-02 Eh
 * total energy  :  -137.3640796 Eh     change       -0.4920260E-03 Eh
 * total energy  :  -137.3643448 Eh     change       -0.2652379E-03 Eh
 * total energy  :  -137.3644132 Eh     change       -0.6842136E-04 Eh
 * total energy  :  -137.3644738 Eh     change       -0.6052571E-04 Eh
 * total energy  :  -137.3644968 Eh     change       -0.2306863E-04 Eh
 * total energy  :  -137.3645501 Eh     change       -0.5321033E-04 Eh
 * total energy  :  -137.3645748 Eh     change       -0.2478093E-04 Eh
 * total energy  :  -137.3651174 Eh     change       -0.9933726E-06 Eh
 * total energy  :  -137.3651181 Eh     change       -0.7537510E-06 Eh
 * total energy  :  -137.3651185 Eh     change       -0.4081188E-06 Eh
 * total energy  :  -137.3651188 Eh     change       -0.2682299E-06 Eh
 * total energy  :  -137.3651191 Eh     change       -0.2696727E-06 Eh
 * total energy  :  -137.3651193 Eh     change       -0.2204840E-06 Eh
 * total energy  :  -137.3651195 Eh     change       -0.1602877E-06 Eh
 * total energy  :  -137.3651196 Eh     change       -0.1030413E-06 Eh
 * total energy  :  -137.3651196 Eh     change       -0.6978337E-07 Eh
   *** GEOMETRY OPTIMIZATION CONVERGED AFTER 63 ITERATIONS ***

 final structure:
================
90
 xtb: 6.7.1 (edcfbbe)
C            0.00021954712335       -2.69638371961760        0.00027525492916
C           -1.15861408292691       -2.00974453263895        0.31423562736791
C           -1.16783546421178       -0.61632926004466        0.32524924963637
C           -2.38955134317987        0.12131360403417        0.68236374590202
C           -2.32119268419898        1.22301687008278        1.53627483264903
C           -3.45554215894935        1.92533459016832        1.90279690836676
C           -4.68201185472820        1.52282448029041        1.39867553571371
C           -4.75533771334687        0.42133211196410        0.53276934445171
C           -3.62799759851810       -0.28136061464916        0.17652455338475
C           -6.18331886562119        0.17536959198169        0.10589816408328
C           -6.38254370561570        0.23489601823238       -1.39046944748864
C           -6.10511900381486        1.27541532734874       -2.25023662989884
C           -6.37899093994230        1.10834455263140       -3.60154841216050
C           -6.92051089166112       -0.07749476359271       -4.07539544493984
C           -7.19957249999177       -1.12661797787645       -3.21366292756644
C           -6.92774766761065       -0.96744699381452       -1.86439536167592
C           -7.10863931543938       -1.86815071026321       -0.73606273542459
C           -7.60265607102898       -3.16093776900123       -0.66902752282815
C           -7.66074347700884       -3.78625446429810        0.56663027708130
C           -7.23433337049301       -3.13513395327709        1.71481398685940
C           -6.73716912372920       -1.83957144055455        1.65499389518303
C           -6.67818836811220       -1.21459794516273        0.42821082006727
C           -6.91895162227206        1.26707164068711        0.84729046798111
C           -8.26921773401635        1.54101446723132        0.84844110350190
C           -8.72779600849822        2.60817203914311        1.61019287978229
C           -7.84734516510993        3.38086718253633        2.35300524646372
C           -6.48828692327173        3.10908572052756        2.35367862017875
C           -6.02364925179949        2.04603529510766        1.59581979898354
C           -0.00005877758385        0.06587291633960        0.00076608579559
C            1.16785195208292       -0.61596783605364       -0.32401719590620
C            2.38939784712347        0.12203800390900       -0.68093887258543
C            2.32071460802988        1.22440651963094       -1.53397222339214
C            3.45488561275392        1.92715884631610       -1.90021075268032
C            4.68154005947696        1.52437695938424       -1.39675432600219
C            4.75521500811731        0.42211832887020       -0.53185665553613
C            3.62804468607794       -0.28095467901092       -0.17583735617350
C            6.18335966065985        0.17581748046452       -0.10572018954922
C            6.67822618603177       -1.21364679059949       -0.43025212692418
C            6.73702859125859       -1.83671013125554       -1.65801331348767
C            7.23425016710489       -3.13215031980655       -1.71992208278436
C            7.66087332891015       -3.78502614063715       -0.57281564085488
C            7.60295935697784       -3.16163007304455        0.66382134106483
C            7.10891432286227       -1.86896198168841        0.73293921456481
C            6.92827061272454       -0.96995248661404        1.86266470197231
C            7.20036405848298       -1.13115857365337        3.21163607432710
C            6.92153574973714       -0.08331493512887        4.07500150615234
C            6.38000204543561        1.10327167919835        3.60304290824970
C            6.10584756255814        1.27237757800654        2.25204055236580
C            6.38302425011208        0.23312955003389        1.39065654397422
C            6.91862194839063        1.26851708934956       -0.84599089113975
C            8.26882721971652        1.54275949592548       -0.84703327192301
C            8.72708052793357        2.61076063134549       -1.60779778873960
C            7.84636948188716        3.38396239016061       -2.34977567194439
C            6.48736884595458        3.11189028147524       -2.35054220868542
C            6.02305009680103        2.04801205370057       -1.59364786080106
C            1.15889604781447       -2.00939400757193       -0.31349184602768
H            0.00033552401394       -3.77715244471091        0.00010092331163
H           -2.05603651044867       -2.55231945136697        0.57411817175409
H           -1.36114346688222        1.51710878340199        1.93565783379474
H           -3.38324158727831        2.76950637844977        2.57266626224356
H           -3.69326736222248       -1.12135000812693       -0.50012864391336
H           -5.68487413360647        2.20028695337196       -1.88162349280030
H           -6.16877449292137        1.91285118751236       -4.29140324715484
H           -7.12705471212849       -0.18405026350305       -5.13073643429353
H           -7.62104391761814       -2.04807776131299       -3.58760514561818
H           -7.93552063299090       -3.67211414242366       -1.56035745241042
H           -8.04375334980117       -4.79422518656593        0.63771820752823
H           -7.28917556247422       -3.64155473534305        2.66757639945346
H           -6.40498268202802       -1.33347853374355        2.55020525772436
H           -8.95604561472933        0.93991484589560        0.26989944768509
H           -9.78326510696128        2.83839954825772        1.62411886974500
H           -8.22746127354030        4.20553847329022        2.93882915348110
H           -5.80675135166491        3.71386711590391        2.93356466846674
H           -0.00018145211136        1.14634040304850        0.00099102750020
H            1.36054075396331        1.51870556734734       -1.93290201416517
H            3.38229741794500        2.77190259984280       -2.56932937249840
H            3.69361680020903       -1.12146606645708        0.50013614469869
H            6.40467191985528       -1.32924143724373       -2.55238254726183
H            7.28898828690982       -3.63708566755139       -2.67347881686125
H            8.04392804177309       -4.79286180388085       -0.64553832967865
H            7.93601010796899       -3.67417306592561        1.55429533825640
H            7.62185056237131       -2.05320325801653        3.58411475511675
H            7.12829063354533       -0.19146629817653        5.13013845233743
H            6.17000778603112        1.90677040219385        4.29413879249582
H            5.68558373608197        2.19782249680384        1.88488844362000
H            8.95584966354122        0.94124100585224       -0.26915821701819
H            9.78249198153346        2.84126208761997       -1.62159542619228
H            8.22624084290070        4.20926909787317       -2.93486268902242
H            5.80563899162107        3.71707119192607       -2.92978297371392
H            2.05640845971875       -2.55171121053594       -0.57359783048855

          :  Hamiltonian                  GFN2-xTB          :
         :: gradient norm              0.000018981254 Eh/a0 ::
         :: HOMO-LUMO gap              3.053399188462 eV    ::
         :: SCC energy              -140.062895990715 Eh    ::
         :: -> dispersion             -0.132920259262 Eh    ::
         :: -> Gsolv                  -0.055655619561 Eh    ::
         :: repulsion energy           2.697776366402 Eh    ::

    * Orbital Energies and Occupations

         #    Occupation            Energy/Eh            Energy/eV
      -------------------------------------------------------------
         1        2.0000           -0.6624341             -18.0258
       ...           ...                  ...                  ...
       117        2.0000           -0.4111859             -11.1889
       118        2.0000           -0.4030726             -10.9682
       119        2.0000           -0.4025268             -10.9533
       120        2.0000           -0.3998782             -10.8812
       121        2.0000           -0.3990958             -10.8600
       122        2.0000           -0.3951804             -10.7534
       123        2.0000           -0.3951230             -10.7518
       124        2.0000           -0.3946307             -10.7384
       125        2.0000           -0.3944164             -10.7326
       126        2.0000           -0.3815940             -10.3837
       127        2.0000           -0.3810097             -10.3678
       128        2.0000           -0.3748798             -10.2010
       129        2.0000           -0.3725401             -10.1373 (HOMO)
       130                         -0.2603297              -7.0839 (LUMO)
       131                         -0.2557632              -6.9597
       132                         -0.2523706              -6.8674
       133                         -0.2523544              -6.8669
       134                         -0.2260514              -6.1512
       135                         -0.2258470              -6.1456
       136                         -0.2255922              -6.1387
       137                         -0.2255262              -6.1369
       138                         -0.2254391              -6.1345
       139                         -0.2253181              -6.1312
       140                         -0.2213698              -6.0238
       ...                                ...                  ...
       258                          0.7328706              19.9424
      -------------------------------------------------------------
                  HL-Gap            0.1122104 Eh            3.0534 eV

     #   Z          covCN         q      C6AA      α(0)
     1   6 C        2.916    -0.031    28.776     8.797
     2   6 C        2.924    -0.036    28.900     8.816
     3   6 C        2.976     0.009    27.804     8.649
     4   6 C        2.979     0.007    27.849     8.656
     5   6 C        2.926    -0.038    28.942     8.823
     6   6 C        2.913    -0.035    28.879     8.812
     7   6 C        3.036    -0.002    28.039     8.685
     8   6 C        3.052     0.005    27.855     8.656
     9   6 C        2.918    -0.038    28.948     8.823
    10   6 C        3.978     0.009    20.346     6.409
    11   6 C        3.055     0.006    27.840     8.653
    12   6 C        2.913    -0.034    28.837     8.806
    13   6 C        2.923    -0.032    28.810     8.802
    14   6 C        2.921    -0.033    28.831     8.805
    15   6 C        2.914    -0.035    28.864     8.810
    16   6 C        3.035     0.000    27.991     8.678
    17   6 C        3.036     0.000    27.989     8.678
    18   6 C        2.914    -0.035    28.864     8.810
    19   6 C        2.921    -0.033    28.831     8.805
    20   6 C        2.922    -0.033    28.813     8.803
    21   6 C        2.913    -0.034    28.838     8.806
    22   6 C        3.055     0.006    27.843     8.654
    23   6 C        3.055     0.006    27.845     8.654
    24   6 C        2.913    -0.034    28.840     8.806
    25   6 C        2.923    -0.033    28.815     8.803
    26   6 C        2.921    -0.033    28.831     8.805
    27   6 C        2.914    -0.035    28.870     8.811
    28   6 C        3.035     0.001    27.981     8.676
    29   6 C        2.930    -0.040    28.986     8.829
    30   6 C        2.976     0.009    27.804     8.649
    31   6 C        2.979     0.007    27.849     8.656
    32   6 C        2.926    -0.038    28.942     8.823
    33   6 C        2.913    -0.035    28.879     8.812
    34   6 C        3.036    -0.002    28.039     8.685
    35   6 C        3.052     0.005    27.855     8.656
    36   6 C        2.918    -0.038    28.948     8.823
    37   6 C        3.978     0.009    20.346     6.409
    38   6 C        3.055     0.006    27.843     8.654
    39   6 C        2.913    -0.034    28.838     8.806
    40   6 C        2.922    -0.033    28.813     8.803
    41   6 C        2.921    -0.033    28.831     8.805
    42   6 C        2.914    -0.035    28.864     8.810
    43   6 C        3.036     0.000    27.989     8.678
    44   6 C        3.035     0.000    27.991     8.678
    45   6 C        2.914    -0.035    28.864     8.810
    46   6 C        2.921    -0.033    28.831     8.805
    47   6 C        2.923    -0.032    28.810     8.802
    48   6 C        2.913    -0.034    28.837     8.806
    49   6 C        3.055     0.006    27.840     8.653
    50   6 C        3.055     0.006    27.845     8.654
    51   6 C        2.913    -0.034    28.840     8.806
    52   6 C        2.923    -0.033    28.815     8.803
    53   6 C        2.921    -0.033    28.831     8.805
    54   6 C        2.914    -0.035    28.870     8.811
    55   6 C        3.035     0.001    27.981     8.676
    56   6 C        2.924    -0.036    28.900     8.816
    57   1 H        0.926     0.031     2.567     2.506
    58   1 H        0.926     0.031     2.568     2.506
    59   1 H        0.926     0.035     2.522     2.483
    60   1 H        0.926     0.034     2.526     2.486
    61   1 H        0.926     0.029     2.607     2.525
    62   1 H        0.926     0.027     2.629     2.536
    63   1 H        0.926     0.032     2.553     2.499
    64   1 H        0.926     0.033     2.546     2.495
    65   1 H        0.926     0.034     2.534     2.489
    66   1 H        0.926     0.034     2.535     2.490
    67   1 H        0.926     0.033     2.547     2.496
    68   1 H        0.926     0.032     2.554     2.499
    69   1 H        0.926     0.027     2.629     2.536
    70   1 H        0.926     0.027     2.633     2.538
    71   1 H        0.926     0.032     2.555     2.500
    72   1 H        0.926     0.033     2.548     2.496
    73   1 H        0.926     0.034     2.534     2.490
    74   1 H        0.926     0.035     2.519     2.482
    75   1 H        0.926     0.035     2.522     2.483
    76   1 H        0.926     0.034     2.526     2.486
    77   1 H        0.926     0.029     2.607     2.525
    78   1 H        0.926     0.027     2.629     2.536
    79   1 H        0.926     0.032     2.554     2.499
    80   1 H        0.926     0.033     2.547     2.496
    81   1 H        0.926     0.034     2.535     2.490
    82   1 H        0.926     0.034     2.534     2.489
    83   1 H        0.926     0.033     2.546     2.495
    84   1 H        0.926     0.032     2.553     2.499
    85   1 H        0.926     0.027     2.629     2.536
    86   1 H        0.926     0.027     2.633     2.538
    87   1 H        0.926     0.032     2.555     2.500
    88   1 H        0.926     0.033     2.548     2.496
    89   1 H        0.926     0.034     2.534     2.490
    90   1 H        0.926     0.031     2.568     2.506

molecular dipole:
                 x           y           z       tot (Debye)
 q only:       -0.000      -0.001      -0.000
   full:        0.000      -0.009      -0.000       0.023

 projected vibrational frequencies (cm⁻¹)
eigval :       -0.00    -0.00    -0.00     0.00     0.00     0.00
eigval :        6.08     7.76    15.84    22.72    24.98    31.66
eigval :       36.28    40.52    44.31    51.53    57.13    70.97
eigval :       71.57    88.20    95.58   105.94   126.38   129.90
eigval :      137.97   142.31   144.52   154.80   157.91   201.98
eigval :      202.55   216.34   229.69   233.17   233.36   244.96
eigval :      247.30   276.20   281.44   288.21   303.73   317.82
eigval :      334.94   347.64   361.34   375.85   389.13   389.19
eigval :      404.86   412.92   413.79   413.86   416.44   420.88
eigval :      431.53   451.45   453.02   460.46   469.15   469.95
eigval :      473.98   480.96   490.96   503.53   505.42   510.44
eigval :      523.49   538.26   538.47   553.81   572.70   585.63
eigval :      587.07   590.10   591.10   595.68   604.31   604.97
eigval :      627.25   633.41   634.95   648.48   662.88   674.31
eigval :      685.44   688.49   688.68   690.60   698.35   707.08
eigval :      707.29   715.00   733.02   740.33   740.38   753.32
eigval :      753.53   764.72   765.38   776.72   777.57   780.99
eigval :      784.91   785.13   791.78   827.09   829.19   837.56
eigval :      870.08   870.25   878.11   878.42   880.26   880.68
eigval :      880.88   883.21   889.59   897.35   899.87   901.22
eigval :      903.96   905.86   908.93   911.26   912.27   912.62
eigval :      915.27   915.85   916.79   925.74   926.07   927.47
eigval :      927.84   928.62   929.50   929.67   929.84   938.93
eigval :      970.34   987.55  1007.74  1007.74  1008.84  1010.62
eigval :     1072.51  1072.69  1072.73  1073.58  1076.51  1076.56
eigval :     1077.27  1077.67  1080.99  1095.49  1131.22  1133.07
eigval :     1133.43  1142.53  1142.56  1155.07  1155.46  1165.90
eigval :     1172.02  1175.17  1176.35  1176.41  1176.76  1179.81
eigval :     1181.13  1191.74  1193.86  1198.87  1207.94  1207.96
eigval :     1220.29  1223.08  1223.10  1229.17  1243.34  1246.58
eigval :     1259.02  1259.13  1260.18  1260.25  1261.18  1271.97
eigval :     1280.98  1283.06  1284.08  1294.13  1313.39  1317.31
eigval :     1324.41  1325.08  1325.08  1328.82  1362.32  1364.41
eigval :     1364.49  1366.71  1400.31  1419.76  1424.99  1427.32
eigval :     1427.34  1430.11  1430.18  1431.09  1439.12  1448.52
eigval :     1457.59  1460.69  1460.72  1464.79  1470.22  1470.23
eigval :     1481.74  1484.82  1569.76  1573.05  1577.32  1583.73
eigval :     1583.74  1587.21  1592.10  1592.52  1594.29  1594.38
eigval :     1596.41  1597.29  1602.37  1602.59  1602.70  1602.76
eigval :     1603.27  1604.21  3066.94  3068.35  3068.35  3068.68
eigval :     3068.68  3068.98  3068.98  3071.83  3071.83  3072.43
eigval :     3072.52  3072.61  3072.64  3073.23  3073.52  3076.08
eigval :     3076.80  3078.02  3078.39  3078.55  3078.59  3079.62
eigval :     3079.65  3080.20  3080.22  3084.57  3084.62  3086.12
eigval :     3087.11  3087.12  3088.29  3088.37  3089.34  3089.39

   temp. (K)  partition function   enthalpy   heat capacity  entropy
                                   cal/mol     cal/K/mol   cal/K/mol   J/K/mol
 298.15  VIB  0.259E+20            24648.156    159.646    152.658
         ROT  0.765E+08              888.752      2.981     39.054
         INT  0.198E+28            25536.909    162.627    191.713
         TR   0.182E+29             1481.254      4.968     45.527
         TOT                       27018.1625   167.5951   237.2394   992.6097

       T/K    H(0)-H(T)+PV         H(T)/Eh          T*S/Eh         G(T)/Eh
   ------------------------------------------------------------------------
    298.15    0.430562E-01    0.736454E+00    0.112720E+00    0.623734E+00
   ------------------------------------------------------------------------

         :::::::::::::::::::::::::::::::::::::::::::::::::::::
         ::                  THERMODYNAMIC                  ::
         :::::::::::::::::::::::::::::::::::::::::::::::::::::
         :: total free energy        -136.741385305376 Eh   ::
         ::.................................................::
         :: total energy             -137.365119625232 Eh   ::
         :: zero point energy           0.693398236599 Eh   ::
         :: G(RRHO) w/o ZPVE           -0.069663916742 Eh   ::
         :: G(RRHO) contrib.            0.623734319857 Eh   ::
         :::::::::::::::::::::::::::::::::::::::::::::::::::::

           -------------------------------------------------
          | TOTAL ENERGY             -137.365119625232 Eh   |
          | TOTAL ENTHALPY           -136.628665206041 Eh   |
          | TOTAL FREE ENERGY        -136.741385305376 Eh   |
          | GRADIENT NORM               0.000018978960 Eh/α |
          | HOMO-LUMO GAP               3.053399267372 eV   |
           -------------------------------------------------

 * finished run on 2025/09/10 at 12:52:03.547
