   * xtb version 6.7.1 (edcfbbe) compiled by 'albert@albert-system' on 2024-07-22

   ID    Z sym.   atoms
    1    6 C      1-56
    2    1 H      57-90

          program call               : xtb data2507/toluene/BSBFB/BSBFB_toluene_S0_finalOpt.xtbopt.xyz --gfn 2 --uhf 2 --gbsa toluene --ohess vtight --parallel 40 --molden --ceasefiles --namespace data2507/toluene/BSBFB/BSBFB_toluene_T1_preOpt
      * Solvation model:               GBSA
        Solvent                        toluene
        Solvent mass                       9.2140E+01 g/mol
          :  Hamiltonian                  GFN2-xTB          :
 * total energy  :  -137.2535010 Eh     change       -0.1185103E-07 Eh
 * total energy  :  -137.2593590 Eh     change       -0.5858033E-02 Eh
 * total energy  :  -137.2622476 Eh     change       -0.2888626E-02 Eh
 * total energy  :  -137.2632256 Eh     change       -0.9780185E-03 Eh
 * total energy  :  -137.2638923 Eh     change       -0.6666523E-03 Eh
 * total energy  :  -137.2642016 Eh     change       -0.3093472E-03 Eh
 * total energy  :  -137.2643123 Eh     change       -0.1106510E-03 Eh
 * total energy  :  -137.2644846 Eh     change       -0.1722991E-03 Eh
 * total energy  :  -137.2645770 Eh     change       -0.9245397E-04 Eh
 * total energy  :  -137.2646475 Eh     change       -0.7047988E-04 Eh
 * total energy  :  -137.2655590 Eh     change       -0.8398360E-06 Eh
 * total energy  :  -137.2655599 Eh     change       -0.8401999E-06 Eh
 * total energy  :  -137.2655608 Eh     change       -0.9621594E-06 Eh
 * total energy  :  -137.2655619 Eh     change       -0.1100089E-05 Eh
 * total energy  :  -137.2655631 Eh     change       -0.1125842E-05 Eh
 * total energy  :  -137.2655640 Eh     change       -0.9708550E-06 Eh
 * total energy  :  -137.2655648 Eh     change       -0.7668079E-06 Eh
 * total energy  :  -137.2655654 Eh     change       -0.5874999E-06 Eh
 * total energy  :  -137.2655654 Eh     change       -0.3999048E-08 Eh
   *** GEOMETRY OPTIMIZATION CONVERGED AFTER 94 ITERATIONS ***

 final structure:
================
90
 xtb: 6.7.1 (edcfbbe)
C            0.01361324901111       -5.49571662925822        1.33609284713582
C           -1.19743290660273       -4.89277034181270        1.11269236798453
C           -1.27950723329845       -3.58892818433019        0.53698148255382
C           -2.52813377182847       -2.95706472788444        0.30656400355597
C           -3.75213503607505       -3.71902018254503        0.24540113178338
C           -4.96588251811280       -3.14913220057065        0.05260708953113
C           -5.06527162877369       -1.73485049912764       -0.07455191930111
C           -3.84926627866251       -0.95675157963340       -0.02498674981787
C           -2.63854238690666       -1.53108494089207        0.13918073406904
C           -4.18682811252921        0.51062913905517       -0.16007377742348
C           -3.74540563343712        1.34955404942396        1.01701005806485
C           -4.04233203864446        1.17640045451335        2.35173076234263
C           -3.53036389774724        2.08616579550852        3.26744899662111
C           -2.74079356138369        3.14744990021117        2.84886519400169
C           -2.44266426722116        3.32673213067096        1.50743169572130
C           -2.94749199766857        2.42106814145400        0.58817118645480
C           -2.80807320457932        2.34218609036461       -0.85731855107744
C           -2.14453269583287        3.16071183955251       -1.75667605098501
C           -2.18114634294101        2.83483573326567       -3.10287517625648
C           -2.86439802408367        1.71153575523907       -3.54557825913197
C           -3.53934359816699        0.89141275925329       -2.65109393248198
C           -3.50910354646452        1.21441869246318       -1.31144681377944
C           -5.69048805353516        0.47308293581503       -0.31086441859879
C           -6.55844986703202        1.51506375581896       -0.48312563349653
C           -7.92627776104310        1.24231059473006       -0.59434651743772
C           -8.39956747575137       -0.07351194819057       -0.53236792335372
C           -7.54463441199700       -1.13328410998819       -0.36106100991360
C           -6.15766441675888       -0.87947453311829       -0.24779415480855
C           -0.04830311029417       -2.96414064290096        0.20708371466344
C            1.16764481477123       -3.58286662534666        0.40603129204423
C            2.42233475244458       -2.92937212580709        0.00833308173829
C            3.44500750891306       -3.67998878328309       -0.57782334109452
C            4.64395033368912       -3.10393775276391       -0.95428434760453
C            4.82960950401438       -1.74712138782612       -0.73842046318598
C            3.80445347262863       -0.98468439031230       -0.15621787044614
C            2.61117069234432       -1.55892841349050        0.21414051926429
C            4.22926664596837        0.45893000817204       -0.02483036758992
C            4.17061641842608        0.98885747853531        1.38804326117284
C            4.80566667948584        0.50499988589630        2.51117644143902
C            4.60907614946463        1.16350714559184        3.71819952619486
C            3.79207469085228        2.28199245141263        3.79237083448081
C            3.15236149995337        2.77197679770491        2.66463660744610
C            3.34519159965110        2.12120429400037        1.45679100285146
C            2.82561077757025        2.39488198093480        0.12564290445084
C            1.99277194581383        3.39799264943573       -0.34277491038930
C            1.67011807348312        3.41728097838203       -1.69027822886306
C            2.16132405117872        2.45077109342126       -2.55501452405441
C            2.99797859729718        1.44338526630035       -2.09315024541327
C            3.32637824498099        1.42506773919737       -0.75504620211488
C            5.62802551585179        0.42303458110006       -0.59528772639006
C            6.52171989974006        1.46181139718232       -0.73675752185285
C            7.76386550583739        1.19486018341582       -1.29844684317906
C            8.09775059505051       -0.08802465717624       -1.70796167359185
C            7.20099944114156       -1.13520842092664       -1.56904865781795
C            5.95938188588108       -0.87621456013637       -1.00944948702833
C            1.20245441134302       -4.86436798514214        0.98735414543276
H            0.04799766595744       -6.47437278154959        1.79426462827441
H           -2.09793353474622       -5.39598616674829        1.42567609083805
H           -3.68773432459164       -4.79385750387356        0.30981549504438
H           -5.85927145816722       -3.75261988260216       -0.01080270594686
H           -1.75404115532772       -0.91544287989887        0.19799546336861
H           -4.65940905133027        0.35164565798828        2.67850564134672
H           -3.75073819887714        1.96627257452630        4.31831793197563
H           -2.35532074588382        3.84358259176563        3.58003471188359
H           -1.83164859518774        4.15699174283615        1.18624866140884
H           -1.61333046973285        4.03636521758600       -1.41574016572882
H           -1.67233422741538        3.46328017418237       -3.81953991363397
H           -2.87659796463754        1.47465047913578       -4.59962113948943
H           -4.07840804618500        0.02155454303835       -2.99824551543714
H           -6.19999302355504        2.53364136532012       -0.53080121252919
H           -8.62377370304643        2.05492850853838       -0.72886216270464
H           -9.46213523071368       -0.25075748212771       -0.62170251718312
H           -7.91341620132931       -2.14676474245713       -0.31424353586071
H           -0.06200064907260       -2.00230996478878       -0.28225640587089
H            3.28450756086214       -4.73292820015230       -0.75879169322784
H            5.41934194183542       -3.70248886657931       -1.40925507076632
H            1.83744448343629       -0.96625204825742        0.68103597984367
H            5.44228330788192       -0.36644095025228        2.45443548868300
H            5.09878793021087        0.79974011679578        4.60985760258592
H            3.65379394463192        2.77760969561099        4.74264464685504
H            2.51729459470497        3.64329262385800        2.72776782497194
H            1.61034440504056        4.15380262564876        0.32703063823763
H            1.02852598916059        4.19596418016221       -2.07558144734665
H            1.89483968406849        2.48374550247725       -3.60132896661524
H            3.38595638136097        0.69378714031446       -2.76807929710232
H            6.26276710398292        2.46143449075181       -0.41809024343404
H            8.47853726383920        1.99631964066758       -1.41697608748149
H            9.07028268417392       -0.27146339624575       -2.14182105693287
H            7.46526170125760       -2.13220873895538       -1.88953546923919
H            2.14953838474805       -5.34193451238760        1.18444804273085

          :  Hamiltonian                  GFN2-xTB          :
         :: gradient norm              0.000050737337 Eh/a0 ::
         :: HOMO-LUMO gap              0.453603087255 eV    ::
         :: SCC energy              -139.943371340776 Eh    ::
         :: -> dispersion             -0.135332910125 Eh    ::
         :: -> Gsolv                  -0.054503296256 Eh    ::
         :: repulsion energy           2.677805939667 Eh    ::

    * Orbital Energies and Occupations

         #    Occupation            Energy/Eh            Energy/eV
      -------------------------------------------------------------
         1        2.0000           -0.6623988             -18.0248
       ...           ...                  ...                  ...
       118        2.0000           -0.4040898             -10.9958
       119        2.0000           -0.4028179             -10.9612
       120        2.0000           -0.4000368             -10.8856
       121        2.0000           -0.3982707             -10.8375
       122        2.0000           -0.3971064             -10.8058
       123        2.0000           -0.3952675             -10.7558
       124        2.0000           -0.3944278             -10.7329
       125        2.0000           -0.3938863             -10.7182
       126        2.0000           -0.3810853             -10.3699
       127        2.0000           -0.3804805             -10.3534
       128        1.9980           -0.3739160             -10.1748
       129        1.0020           -0.3621118              -9.8536
       130        0.9998           -0.2750719              -7.4851 (HOMO)
       131        0.0002           -0.2584023              -7.0315 (LUMO)
       132        0.0000           -0.2523679              -6.8673
       133        0.0000           -0.2520779              -6.8594
       134                         -0.2277312              -6.1969
       135                         -0.2257858              -6.1439
       136                         -0.2255828              -6.1384
       137                         -0.2255174              -6.1366
       138                         -0.2250331              -6.1235
       139                         -0.2233269              -6.0770
       140                         -0.2203448              -5.9959
       141                         -0.2190797              -5.9615
       ...                                ...                  ...
       258                          0.7395744              20.1248
      -------------------------------------------------------------
                  HL-Gap            0.0166696 Eh            0.4536 eV

     #   Z          covCN         q      C6AA      α(0)
     1   6 C        2.909    -0.031    28.769     8.795
     2   6 C        2.920    -0.038    28.956     8.824
     3   6 C        2.966     0.009    27.812     8.650
     4   6 C        2.969     0.004    27.937     8.670
     5   6 C        2.914    -0.036    28.887     8.813
     6   6 C        2.901    -0.036    28.903     8.815
     7   6 C        3.031    -0.003    28.066     8.690
     8   6 C        3.035     0.006    27.857     8.657
     9   6 C        2.907    -0.041    29.014     8.832
    10   6 C        3.971     0.009    20.352     6.410
    11   6 C        3.055     0.005    27.866     8.657
    12   6 C        2.913    -0.033    28.832     8.805
    13   6 C        2.922    -0.032    28.803     8.801
    14   6 C        2.921    -0.033    28.818     8.803
    15   6 C        2.914    -0.034    28.849     8.808
    16   6 C        3.035     0.001    27.976     8.676
    17   6 C        3.036     0.001    27.978     8.676
    18   6 C        2.914    -0.034    28.841     8.806
    19   6 C        2.921    -0.032    28.802     8.801
    20   6 C        2.922    -0.032    28.803     8.801
    21   6 C        2.913    -0.033    28.833     8.805
    22   6 C        3.055     0.005    27.870     8.658
    23   6 C        3.054     0.008    27.798     8.647
    24   6 C        2.907    -0.035    28.860     8.809
    25   6 C        2.920    -0.035    28.867     8.811
    26   6 C        2.914    -0.030    28.755     8.793
    27   6 C        2.908    -0.038    28.952     8.823
    28   6 C        3.025     0.002    27.951     8.672
    29   6 C        2.925    -0.040    28.997     8.831
    30   6 C        2.969     0.010    27.802     8.649
    31   6 C        2.979     0.007    27.859     8.658
    32   6 C        2.926    -0.038    28.939     8.822
    33   6 C        2.912    -0.035    28.883     8.813
    34   6 C        3.037    -0.002    28.031     8.684
    35   6 C        3.051     0.005    27.856     8.656
    36   6 C        2.918    -0.038    28.940     8.822
    37   6 C        3.978     0.010    20.343     6.408
    38   6 C        3.055     0.005    27.848     8.654
    39   6 C        2.913    -0.034    28.837     8.806
    40   6 C        2.923    -0.033    28.811     8.802
    41   6 C        2.921    -0.033    28.830     8.805
    42   6 C        2.914    -0.035    28.859     8.809
    43   6 C        3.036     0.000    27.988     8.677
    44   6 C        3.036     0.000    27.993     8.678
    45   6 C        2.915    -0.034    28.848     8.807
    46   6 C        2.921    -0.032    28.805     8.801
    47   6 C        2.923    -0.032    28.803     8.801
    48   6 C        2.914    -0.034    28.840     8.806
    49   6 C        3.056     0.006    27.843     8.654
    50   6 C        3.056     0.006    27.837     8.653
    51   6 C        2.913    -0.034    28.838     8.806
    52   6 C        2.923    -0.032    28.810     8.802
    53   6 C        2.920    -0.033    28.828     8.805
    54   6 C        2.914    -0.035    28.868     8.810
    55   6 C        3.035     0.001    27.978     8.676
    56   6 C        2.922    -0.038    28.953     8.824
    57   1 H        0.926     0.031     2.571     2.508
    58   1 H        0.926     0.035     2.517     2.481
    59   1 H        0.926     0.037     2.486     2.466
    60   1 H        0.926     0.033     2.539     2.492
    61   1 H        0.926     0.027     2.634     2.538
    62   1 H        0.926     0.027     2.633     2.537
    63   1 H        0.926     0.033     2.549     2.496
    64   1 H        0.926     0.034     2.537     2.491
    65   1 H        0.926     0.034     2.525     2.485
    66   1 H        0.926     0.035     2.517     2.481
    67   1 H        0.926     0.033     2.538     2.491
    68   1 H        0.926     0.033     2.549     2.496
    69   1 H        0.926     0.027     2.631     2.536
    70   1 H        0.926     0.026     2.651     2.546
    71   1 H        0.926     0.032     2.562     2.503
    72   1 H        0.926     0.032     2.554     2.499
    73   1 H        0.926     0.033     2.545     2.495
    74   1 H        0.926     0.032     2.558     2.501
    75   1 H        0.926     0.035     2.510     2.478
    76   1 H        0.926     0.035     2.522     2.483
    77   1 H        0.926     0.027     2.628     2.535
    78   1 H        0.926     0.027     2.632     2.537
    79   1 H        0.926     0.032     2.554     2.499
    80   1 H        0.926     0.033     2.546     2.495
    81   1 H        0.926     0.034     2.531     2.488
    82   1 H        0.926     0.033     2.537     2.491
    83   1 H        0.926     0.034     2.535     2.490
    84   1 H        0.926     0.032     2.555     2.500
    85   1 H        0.926     0.026     2.639     2.541
    86   1 H        0.926     0.027     2.631     2.536
    87   1 H        0.926     0.033     2.550     2.497
    88   1 H        0.926     0.033     2.543     2.494
    89   1 H        0.926     0.034     2.531     2.488
    90   1 H        0.926     0.033     2.547     2.496

molecular dipole:
                 x           y           z       tot (Debye)
 q only:        0.074       0.041      -0.009
   full:        0.074       0.046      -0.007       0.222

 projected vibrational frequencies (cm⁻¹)
eigval :       -0.00    -0.00    -0.00     0.00     0.00     0.00
eigval :       -4.54    10.91    18.67    21.20    25.28    34.38
eigval :       42.89    46.32    48.10    50.94    63.88    69.64
eigval :       84.58    91.01    92.47   100.59   119.77   125.43
eigval :      133.28   137.90   147.47   155.13   183.93   186.46
eigval :      206.90   209.44   219.64   225.75   232.49   243.12
eigval :      249.97   254.14   274.07   284.91   290.60   309.76
eigval :      325.28   344.86   349.56   360.33   385.69   388.26
eigval :      393.15   397.97   410.55   414.02   414.17   416.29
eigval :      427.42   440.75   449.08   453.24   456.86   459.64
eigval :      464.98   474.82   487.04   500.99   502.51   506.16
eigval :      519.29   525.95   539.45   540.46   553.66   566.47
eigval :      576.90   584.27   588.08   591.72   597.78   603.24
eigval :      604.56   626.20   630.12   634.38   642.47   658.16
eigval :      663.95   682.97   683.99   687.52   689.88   694.55
eigval :      706.41   708.32   725.87   730.16   736.47   739.61
eigval :      751.71   751.89   753.37   761.94   765.97   774.84
eigval :      777.62   784.43   785.28   786.24   820.98   825.62
eigval :      830.77   838.45   844.35   853.78   873.12   876.58
eigval :      880.02   881.77   882.45   886.08   887.63   893.49
eigval :      900.05   900.57   901.55   906.03   909.24   909.60
eigval :      909.83   911.51   912.89   914.04   914.36   917.66
eigval :      924.09   925.50   926.86   928.59   929.28   929.61
eigval :      940.51   964.94   982.80  1006.16  1007.84  1007.90
eigval :     1020.18  1051.28  1062.62  1072.20  1072.94  1073.56
eigval :     1075.33  1078.04  1078.76  1082.79  1121.65  1129.98
eigval :     1132.92  1138.98  1142.66  1143.22  1153.17  1156.27
eigval :     1163.55  1169.94  1175.66  1176.75  1177.12  1178.73
eigval :     1180.14  1181.16  1191.31  1196.35  1206.03  1207.44
eigval :     1208.77  1223.17  1224.01  1225.47  1244.51  1245.23
eigval :     1248.97  1253.77  1258.72  1260.16  1261.23  1265.60
eigval :     1268.39  1283.51  1283.84  1290.43  1311.53  1321.65
eigval :     1325.74  1326.17  1331.18  1335.10  1341.19  1352.17
eigval :     1362.33  1363.77  1365.24  1371.83  1391.49  1402.68
eigval :     1418.71  1422.48  1426.61  1427.51  1427.90  1430.55
eigval :     1436.97  1450.87  1460.24  1461.20  1463.60  1468.53
eigval :     1470.71  1473.18  1488.59  1504.21  1533.78  1557.98
eigval :     1567.73  1569.16  1581.99  1584.22  1585.75  1590.28
eigval :     1592.69  1594.97  1599.23  1600.42  1601.68  1601.98
eigval :     1603.09  1627.77  3065.32  3068.98  3069.02  3069.04
eigval :     3069.18  3069.67  3070.41  3070.49  3072.39  3072.86
eigval :     3073.46  3073.55  3074.25  3074.42  3074.61  3075.89
eigval :     3080.24  3080.32  3081.32  3081.53  3083.12  3084.08
eigval :     3084.71  3085.28  3088.43  3088.59  3088.69  3091.11
eigval :     3091.86  3092.71  3093.24  3095.07  3096.55  3106.01

   temp. (K)  partition function   enthalpy   heat capacity  entropy
                                   cal/mol     cal/K/mol   cal/K/mol   J/K/mol
 298.15  VIB  0.188E+20            24944.641    162.259    154.249
         ROT  0.987E+08              888.752      2.981     39.561
         INT  0.186E+28            25833.394    165.240    193.811
         TR   0.182E+29             1481.254      4.968     45.527
         TOT                       27314.6477   170.2084   239.3373  1001.3874

       T/K    H(0)-H(T)+PV         H(T)/Eh          T*S/Eh         G(T)/Eh
   ------------------------------------------------------------------------
    298.15    0.435287E-01    0.733133E+00    0.113717E+00    0.619416E+00
   ------------------------------------------------------------------------

         :::::::::::::::::::::::::::::::::::::::::::::::::::::
         ::                  THERMODYNAMIC                  ::
         :::::::::::::::::::::::::::::::::::::::::::::::::::::
         :: total free energy        -136.646149235378 Eh   ::
         ::.................................................::
         :: total energy             -137.265565399421 Eh   ::
         :: zero point energy           0.689604393891 Eh   ::
         :: G(RRHO) w/o ZPVE           -0.070188229848 Eh   ::
         :: G(RRHO) contrib.            0.619416164043 Eh   ::
         :::::::::::::::::::::::::::::::::::::::::::::::::::::

           -------------------------------------------------
          | TOTAL ENERGY             -137.265565399421 Eh   |
          | TOTAL ENTHALPY           -136.532432343744 Eh   |
          | TOTAL FREE ENERGY        -136.646149235378 Eh   |
          | GRADIENT NORM               0.000050731564 Eh/α |
          | HOMO-LUMO GAP               0.453602600485 eV   |
           -------------------------------------------------

 * finished run on 2025/09/10 at 13:01:19.314
