   * xtb version 6.7.1 (edcfbbe) compiled by 'albert@albert-system' on 2024-07-22

   ID    Z sym.   atoms
    1    6 C      1-56
    2    1 H      57-90

          program call               : xtb data2507/toluene/BSBFB/BSBFB_toluene_S0_crest.xyz --gfn 2 --gbsa toluene --ohess vtight --parallel 40 --molden --ceasefiles --namespace data2507/toluene/BSBFB/BSBFB_toluene_S0_finalOpt
      * Solvation model:               GBSA
        Solvent                        toluene
        Solvent mass                       9.2140E+01 g/mol
          :  Hamiltonian                  GFN2-xTB          :
 * total energy  :  -137.3646896 Eh     change       -0.1432568E-08 Eh
 * total energy  :  -137.3647329 Eh     change       -0.4334220E-04 Eh
 * total energy  :  -137.3647562 Eh     change       -0.2321750E-04 Eh
 * total energy  :  -137.3647803 Eh     change       -0.2414361E-04 Eh
 * total energy  :  -137.3648020 Eh     change       -0.2170911E-04 Eh
 * total energy  :  -137.3648210 Eh     change       -0.1900488E-04 Eh
 * total energy  :  -137.3648352 Eh     change       -0.1417002E-04 Eh
 * total energy  :  -137.3648476 Eh     change       -0.1239100E-04 Eh
 * total energy  :  -137.3648593 Eh     change       -0.1167932E-04 Eh
 * total energy  :  -137.3648701 Eh     change       -0.1082167E-04 Eh
 * total energy  :  -137.3649828 Eh     change       -0.1124421E-05 Eh
 * total energy  :  -137.3649838 Eh     change       -0.9955675E-06 Eh
 * total energy  :  -137.3649846 Eh     change       -0.8287133E-06 Eh
 * total energy  :  -137.3649853 Eh     change       -0.6858488E-06 Eh
 * total energy  :  -137.3649860 Eh     change       -0.6633126E-06 Eh
 * total energy  :  -137.3649867 Eh     change       -0.7409807E-06 Eh
 * total energy  :  -137.3649876 Eh     change       -0.8703055E-06 Eh
 * total energy  :  -137.3649885 Eh     change       -0.8979480E-06 Eh
 * total energy  :  -137.3649885 Eh     change       -0.4215252E-08 Eh
   *** GEOMETRY OPTIMIZATION CONVERGED AFTER 44 ITERATIONS ***

 final structure:
================
90
 xtb: 6.7.1 (edcfbbe)
C            0.00597318270428       -5.28655622314086        1.59565607355944
C           -1.20535971882425       -4.69001810504828        1.29847258491843
C           -1.24862595845516       -3.49763629801341        0.57653976308673
C           -2.53865379837838       -2.87915989495117        0.23369902937154
C           -3.62078177382765       -3.68125684027913       -0.13475207033303
C           -4.85019038406865       -3.13755042505913       -0.46004954682288
C           -5.00288077615110       -1.76106530267475       -0.41831214809191
C           -3.91738650417920       -0.94750909381136       -0.05974840096318
C           -2.69620736069254       -1.49064314796278        0.26623035286644
C           -4.31147308787982        0.50992927072612       -0.10489305611922
C           -4.08449887431440        1.25448563711755        1.18838975143620
C           -4.58867893297619        0.97134946884200        2.43919705741501
C           -4.24926975861595        1.80793107303027        3.49473297740431
C           -3.42106866826020        2.90263399230521        3.29564326792014
C           -2.91298350843878        3.19114274651483        2.03873503930351
C           -3.24921142689338        2.36244601163639        0.98058865052276
C           -2.88630920052505        2.40925071045012       -0.42763605464833
C           -2.10710309757392        3.30440794620898       -1.14214751166645
C           -1.93870938296475        3.09923361614383       -2.50216100399569
C           -2.53032399655971        2.01852129721848       -3.13871752839701
C           -3.31641509697884        1.11944270935179       -2.42993571835281
C           -3.49091205431282        1.32405021179884       -1.07849638637663
C           -5.76604904042341        0.42484157383234       -0.50596675549172
C           -6.66337976354827        1.45296290406726       -0.69586961013229
C           -7.96166351138928        1.13696199828481       -1.07505675267755
C           -8.34615878260335       -0.18272515969132       -1.26165898184154
C           -7.44610942314676       -1.21947367849026       -1.07250865327381
C           -6.14948061169333       -0.91154680271874       -0.69261158171136
C           -0.04962200837096       -2.91530931824126        0.17548888675466
C            1.17287690108980       -3.51334210590136        0.46203905718437
C            2.43178931347160       -2.89642911254138        0.01366255884042
C            3.41540727537703       -3.67730475585029       -0.59402649058792
C            4.60663432023558       -3.12693753696197       -1.03255464530862
C            4.82289607093303       -1.77087380761015       -0.84660519019987
C            3.84280586585698       -0.98358502304642       -0.22339315124130
C            2.65207715840801       -1.52945031476144        0.19714395245114
C            4.30957744683428        0.44801720267077       -0.10481103035202
C            4.38906188352306        0.93101116950484        1.32538258629827
C            5.10795201041923        0.39459415383163        2.37139837991041
C            5.03654802825540        1.01633443570918        3.61135912086580
C            4.25913839968543        2.15056465582691        3.79332912862641
C            3.53489824995858        2.69270059767533        2.74325883892889
C            3.60212799398004        2.07828160384246        1.50317487001654
C            2.97198803259194        2.40618870163344        0.23350411254906
C            2.11773994774819        3.43686206761544       -0.12289465466399
C            1.67146808465910        3.50578730417431       -1.43291307491727
C            2.06253187213812        2.56102426504345       -2.36958255275033
C            2.91889196389783        1.52526133831459       -2.01974724193745
C            3.37091511425548        1.45736119998976       -0.71974605257607
C            5.66230173662715        0.38841821315634       -0.77556419588110
C            6.55980630990033        1.41250808825851       -0.98562123534386
C            7.75859045538999        1.12180162255970       -1.62410121799928
C            8.04806916987619       -0.17016570622669       -2.03784371386978
C            7.14813074966583       -1.20300160215184       -1.82755821798784
C            5.94892896231918       -0.91974261433022       -1.19358321292885
C            1.19033370087730       -4.71108786412027        1.17341537559791
H            0.02701119776049       -6.20695432322594        2.16173100433907
H           -2.12413150384973       -5.13988067675035        1.64481115048159
H           -3.48673080520736       -4.75198751974900       -0.18583326568804
H           -5.67295237468552       -3.77695827159042       -0.74411336059451
H           -1.87461816230457       -0.85410797403105        0.56204257666978
H           -5.23406899337617        0.11869089606391        2.59527739866341
H           -4.63579394508690        1.60334468097388        4.48266891665376
H           -3.17045836489439        3.53924722911863        4.13212243619509
H           -2.26951674030128        4.04539463974066        1.88836647946034
H           -1.64425607732485        4.14667589512519       -0.65020141728288
H           -1.33900737200426        3.78945043634780       -3.07734551545530
H           -2.38255939653438        1.87660645609894       -4.19957000473146
H           -3.78305961714037        0.28084984425949       -2.92698832730085
H           -6.36441015111049        2.48143817644717       -0.55208550175027
H           -8.68006688092812        1.92932863142995       -1.22755626496751
H           -9.36151232923769       -0.40418554654890       -1.55786516879806
H           -7.75017503667857       -2.24547863489172       -1.21879229999675
H           -0.06680200077978       -2.00410154133571       -0.40567627123393
H            3.22862169725371       -4.73133920916659       -0.74196888662404
H            5.35170383073697       -3.74536509048929       -1.51096201581798
H            1.90400901854555       -0.91808387763147        0.68174844301920
H            5.71433743514086       -0.48874887976063        2.23028747678916
H            5.59416781330305        0.61153385210038        4.44345845755487
H            4.21896017859081        2.61753438208440        4.76704931132530
H            2.93136030182944        3.57625165668881        2.89024818733012
H            1.80897622745401        4.17365203641355        0.60398114396893
H            1.01004902315648        4.30614706507407       -1.72955084122508
H            1.69940216183865        2.63177188249674       -3.38443890778301
H            3.22614692873866        0.79123903417779       -2.75099117702351
H            6.33567040154474        2.41916908823396       -0.66277820783529
H            8.47432427471757        1.91186178401725       -1.79943742646445
H            8.98787276356273       -0.37271261907902       -2.53132064978622
H            7.37803208870003       -2.20735627169441       -2.15164630491160
H            2.13530244514429       -5.17641679239712        1.41319395244435

          :  Hamiltonian                  GFN2-xTB          :
         :: gradient norm              0.000057746804 Eh/a0 ::
         :: HOMO-LUMO gap              3.041730738857 eV    ::
         :: SCC energy              -140.063309442112 Eh    ::
         :: -> dispersion             -0.135437216815 Eh    ::
         :: -> Gsolv                  -0.054138357235 Eh    ::
         :: repulsion energy           2.698320941291 Eh    ::

    * Orbital Energies and Occupations

         #    Occupation            Energy/Eh            Energy/eV
      -------------------------------------------------------------
         1        2.0000           -0.6621686             -18.0185
       ...           ...                  ...                  ...
       117        2.0000           -0.4109209             -11.1817
       118        2.0000           -0.4032911             -10.9741
       119        2.0000           -0.4022868             -10.9468
       120        2.0000           -0.3999186             -10.8823
       121        2.0000           -0.3986025             -10.8465
       122        2.0000           -0.3950026             -10.7486
       123        2.0000           -0.3949689             -10.7477
       124        2.0000           -0.3943898             -10.7319
       125        2.0000           -0.3941306             -10.7248
       126        2.0000           -0.3813983             -10.3784
       127        2.0000           -0.3805721             -10.3559
       128        2.0000           -0.3752062             -10.2099
       129        2.0000           -0.3719286             -10.1207 (HOMO)
       130                         -0.2601471              -7.0790 (LUMO)
       131                         -0.2562418              -6.9727
       132                         -0.2520472              -6.8586
       133                         -0.2519181              -6.8550
       134                         -0.2259519              -6.1485
       135                         -0.2255749              -6.1382
       136                         -0.2254752              -6.1355
       137                         -0.2254183              -6.1339
       138                         -0.2251449              -6.1265
       139                         -0.2249395              -6.1209
       140                         -0.2214548              -6.0261
       ...                                ...                  ...
       258                          0.7319251              19.9167
      -------------------------------------------------------------
                  HL-Gap            0.1117815 Eh            3.0417 eV

     #   Z          covCN         q      C6AA      α(0)
     1   6 C        2.916    -0.031    28.785     8.798
     2   6 C        2.925    -0.037    28.924     8.820
     3   6 C        2.975     0.009    27.808     8.650
     4   6 C        2.978     0.007    27.856     8.658
     5   6 C        2.926    -0.038    28.951     8.824
     6   6 C        2.913    -0.036    28.886     8.813
     7   6 C        3.037    -0.002    28.037     8.685
     8   6 C        3.051     0.005    27.864     8.657
     9   6 C        2.918    -0.038    28.935     8.821
    10   6 C        3.978     0.010    20.343     6.408
    11   6 C        3.054     0.005    27.849     8.655
    12   6 C        2.913    -0.034    28.837     8.806
    13   6 C        2.923    -0.033    28.812     8.803
    14   6 C        2.921    -0.033    28.831     8.805
    15   6 C        2.914    -0.035    28.860     8.809
    16   6 C        3.036     0.000    27.988     8.677
    17   6 C        3.035     0.000    27.994     8.678
    18   6 C        2.915    -0.034    28.844     8.807
    19   6 C        2.921    -0.032    28.806     8.801
    20   6 C        2.923    -0.033    28.810     8.802
    21   6 C        2.914    -0.034    28.843     8.807
    22   6 C        3.056     0.006    27.841     8.653
    23   6 C        3.056     0.006    27.842     8.653
    24   6 C        2.913    -0.034    28.840     8.806
    25   6 C        2.923    -0.033    28.815     8.803
    26   6 C        2.921    -0.033    28.832     8.805
    27   6 C        2.914    -0.035    28.870     8.811
    28   6 C        3.035     0.000    27.983     8.677
    29   6 C        2.929    -0.038    28.946     8.823
    30   6 C        2.976     0.009    27.805     8.650
    31   6 C        2.980     0.007    27.851     8.657
    32   6 C        2.926    -0.038    28.944     8.823
    33   6 C        2.913    -0.035    28.882     8.813
    34   6 C        3.036    -0.002    28.041     8.686
    35   6 C        3.052     0.005    27.857     8.656
    36   6 C        2.918    -0.037    28.932     8.821
    37   6 C        3.978     0.010    20.343     6.408
    38   6 C        3.056     0.006    27.839     8.653
    39   6 C        2.913    -0.034    28.840     8.806
    40   6 C        2.923    -0.033    28.812     8.803
    41   6 C        2.921    -0.033    28.833     8.805
    42   6 C        2.914    -0.035    28.863     8.810
    43   6 C        3.035     0.000    27.990     8.678
    44   6 C        3.036    -0.000    27.995     8.678
    45   6 C        2.914    -0.034    28.855     8.809
    46   6 C        2.921    -0.032    28.808     8.802
    47   6 C        2.923    -0.032    28.799     8.800
    48   6 C        2.914    -0.034    28.839     8.806
    49   6 C        3.054     0.005    27.852     8.655
    50   6 C        3.056     0.006    27.844     8.654
    51   6 C        2.913    -0.034    28.840     8.806
    52   6 C        2.923    -0.033    28.816     8.803
    53   6 C        2.921    -0.033    28.832     8.805
    54   6 C        2.914    -0.035    28.870     8.811
    55   6 C        3.035     0.000    27.983     8.677
    56   6 C        2.925    -0.037    28.913     8.818
    57   1 H        0.926     0.032     2.552     2.498
    58   1 H        0.926     0.034     2.535     2.490
    59   1 H        0.926     0.035     2.511     2.478
    60   1 H        0.926     0.034     2.525     2.485
    61   1 H        0.926     0.027     2.625     2.533
    62   1 H        0.926     0.027     2.632     2.537
    63   1 H        0.926     0.032     2.556     2.500
    64   1 H        0.926     0.033     2.547     2.496
    65   1 H        0.926     0.034     2.534     2.490
    66   1 H        0.926     0.034     2.528     2.486
    67   1 H        0.926     0.033     2.543     2.494
    68   1 H        0.926     0.032     2.558     2.501
    69   1 H        0.926     0.026     2.639     2.540
    70   1 H        0.926     0.027     2.634     2.538
    71   1 H        0.926     0.032     2.554     2.499
    72   1 H        0.926     0.033     2.546     2.495
    73   1 H        0.926     0.034     2.533     2.489
    74   1 H        0.926     0.031     2.572     2.508
    75   1 H        0.926     0.035     2.523     2.484
    76   1 H        0.926     0.034     2.523     2.484
    77   1 H        0.926     0.027     2.635     2.539
    78   1 H        0.926     0.027     2.634     2.538
    79   1 H        0.926     0.032     2.554     2.499
    80   1 H        0.926     0.033     2.546     2.495
    81   1 H        0.926     0.034     2.533     2.489
    82   1 H        0.926     0.033     2.541     2.493
    83   1 H        0.926     0.034     2.529     2.487
    84   1 H        0.926     0.032     2.558     2.501
    85   1 H        0.926     0.026     2.639     2.540
    86   1 H        0.926     0.027     2.633     2.538
    87   1 H        0.926     0.032     2.554     2.499
    88   1 H        0.926     0.033     2.547     2.496
    89   1 H        0.926     0.034     2.534     2.490
    90   1 H        0.926     0.033     2.548     2.496

molecular dipole:
                 x           y           z       tot (Debye)
 q only:       -0.007      -0.022       0.002
   full:       -0.005      -0.020       0.001       0.052

 projected vibrational frequencies (cm⁻¹)
eigval :       -0.00    -0.00    -0.00     0.00     0.00     0.00
eigval :       -0.83     7.51    17.36    17.72    22.16    28.98
eigval :       39.38    42.72    44.45    50.26    60.56    64.24
eigval :       79.93    84.29    89.85   107.42   122.24   128.31
eigval :      130.70   142.63   148.33   155.59   185.75   203.52
eigval :      206.61   209.79   228.55   232.65   233.45   247.79
eigval :      249.44   263.19   282.70   283.44   306.00   314.43
eigval :      336.68   345.30   352.00   382.00   386.09   387.11
eigval :      400.40   413.86   413.91   414.54   415.93   425.72
eigval :      428.18   451.22   454.03   457.77   464.86   472.88
eigval :      473.96   485.62   489.80   504.06   505.12   511.04
eigval :      521.33   538.58   539.28   562.94   568.74   586.07
eigval :      587.91   588.77   590.72   596.52   603.95   604.33
eigval :      621.53   632.82   637.08   652.30   662.55   675.31
eigval :      685.04   688.33   688.50   690.60   699.88   706.70
eigval :      707.84   713.70   732.12   739.89   740.15   753.50
eigval :      753.70   764.17   765.84   775.60   776.82   781.44
eigval :      782.94   784.94   791.05   828.33   834.31   837.55
eigval :      874.78   875.52   876.87   877.30   878.91   879.93
eigval :      880.23   884.48   894.00   894.50   900.21   901.42
eigval :      904.57   907.64   908.27   909.54   911.32   911.52
eigval :      915.20   915.82   918.97   924.47   925.16   926.21
eigval :      926.97   927.05   927.87   928.08   929.76   939.14
eigval :      967.64   987.26  1007.62  1007.94  1008.95  1009.88
eigval :     1072.21  1072.70  1073.01  1073.23  1075.86  1076.65
eigval :     1077.67  1078.68  1081.29  1093.96  1132.12  1132.64
eigval :     1134.09  1142.10  1142.73  1152.75  1155.94  1168.47
eigval :     1171.82  1175.37  1176.04  1176.46  1176.71  1179.94
eigval :     1181.02  1190.94  1194.25  1198.97  1207.70  1208.27
eigval :     1222.28  1223.60  1224.42  1229.17  1243.77  1246.93
eigval :     1255.52  1257.17  1258.85  1260.70  1261.03  1273.50
eigval :     1280.60  1283.62  1284.29  1293.93  1315.97  1317.67
eigval :     1322.93  1324.70  1325.54  1325.62  1358.61  1363.33
eigval :     1364.87  1365.04  1413.66  1418.14  1423.58  1427.23
eigval :     1427.86  1429.96  1430.40  1430.55  1444.07  1445.63
eigval :     1451.51  1460.44  1460.80  1463.39  1470.22  1470.57
eigval :     1476.38  1489.92  1569.21  1573.27  1577.29  1584.00
eigval :     1584.03  1586.04  1591.77  1592.15  1594.66  1594.69
eigval :     1596.44  1597.59  1602.31  1602.77  1603.08  1603.16
eigval :     1603.45  1603.93  3067.72  3068.42  3068.45  3068.54
eigval :     3068.75  3069.55  3070.74  3072.01  3072.13  3072.26
eigval :     3072.58  3072.59  3073.39  3074.13  3074.81  3075.17
eigval :     3075.74  3077.31  3079.03  3079.42  3079.63  3080.05
eigval :     3080.21  3081.00  3081.96  3084.90  3085.96  3087.67
eigval :     3087.91  3088.11  3088.68  3088.84  3091.08  3092.91

   temp. (K)  partition function   enthalpy   heat capacity  entropy
                                   cal/mol     cal/K/mol   cal/K/mol   J/K/mol
 298.15  VIB  0.978E+18            24073.545    158.684    147.300
         ROT  0.101E+09              888.752      2.981     39.605
         INT  0.987E+26            24962.297    161.665    186.905
         TR   0.182E+29             1481.254      4.968     45.527
         TOT                       26443.5513   166.6332   232.4317   972.4944

       T/K    H(0)-H(T)+PV         H(T)/Eh          T*S/Eh         G(T)/Eh
   ------------------------------------------------------------------------
    298.15    0.421405E-01    0.735537E+00    0.110436E+00    0.625101E+00
   ------------------------------------------------------------------------

         :::::::::::::::::::::::::::::::::::::::::::::::::::::
         ::                  THERMODYNAMIC                  ::
         :::::::::::::::::::::::::::::::::::::::::::::::::::::
         :: total free energy        -136.739887460060 Eh   ::
         ::.................................................::
         :: total energy             -137.364988500119 Eh   ::
         :: zero point energy           0.693396379002 Eh   ::
         :: G(RRHO) w/o ZPVE           -0.068295338944 Eh   ::
         :: G(RRHO) contrib.            0.625101040058 Eh   ::
         :::::::::::::::::::::::::::::::::::::::::::::::::::::

           -------------------------------------------------
          | TOTAL ENERGY             -137.364988500119 Eh   |
          | TOTAL ENTHALPY           -136.629451639789 Eh   |
          | TOTAL FREE ENERGY        -136.739887460060 Eh   |
          | GRADIENT NORM               0.000057745483 Eh/α |
          | HOMO-LUMO GAP               3.041730748933 eV   |
           -------------------------------------------------

 * finished run on 2025/09/10 at 13:01:04.805
