   * xtb version 6.7.1 (edcfbbe) compiled by 'albert@albert-system' on 2024-07-22

   ID    Z sym.   atoms
    1    6 C      1-56
    2    1 H      57-90

          program call               : xtb data2507/toluene/BSBFB/BSBFB_toluene_T1_crest.xyz --gfn 2 --uhf 2 --gbsa toluene --ohess vtight --parallel 40 --molden --ceasefiles --namespace data2507/toluene/BSBFB/BSBFB_toluene_T1_finalOpt
      * Solvation model:               GBSA
        Solvent                        toluene
        Solvent mass                       9.2140E+01 g/mol
          :  Hamiltonian                  GFN2-xTB          :
 * total energy  :  -137.2643161 Eh     change       -0.5366104E-08 Eh
 * total energy  :  -137.2643687 Eh     change       -0.5264699E-04 Eh
 * total energy  :  -137.2644441 Eh     change       -0.7534247E-04 Eh
 * total energy  :  -137.2644809 Eh     change       -0.3686400E-04 Eh
 * total energy  :  -137.2645951 Eh     change       -0.1142004E-03 Eh
 * total energy  :  -137.2646426 Eh     change       -0.4748159E-04 Eh
 * total energy  :  -137.2646714 Eh     change       -0.2880260E-04 Eh
 * total energy  :  -137.2646986 Eh     change       -0.2718917E-04 Eh
 * total energy  :  -137.2647283 Eh     change       -0.2970549E-04 Eh
 * total energy  :  -137.2647584 Eh     change       -0.3009523E-04 Eh
 * total energy  :  -137.2656444 Eh     change       -0.2799809E-06 Eh
 * total energy  :  -137.2656446 Eh     change       -0.1984666E-06 Eh
 * total energy  :  -137.2656447 Eh     change       -0.1364401E-06 Eh
 * total energy  :  -137.2656449 Eh     change       -0.1280084E-06 Eh
 * total energy  :  -137.2656450 Eh     change       -0.1496369E-06 Eh
 * total energy  :  -137.2656452 Eh     change       -0.1679010E-06 Eh
 * total energy  :  -137.2656453 Eh     change       -0.1636284E-06 Eh
 * total energy  :  -137.2656455 Eh     change       -0.1386803E-06 Eh
 * total energy  :  -137.2656456 Eh     change       -0.9080927E-07 Eh
   *** GEOMETRY OPTIMIZATION CONVERGED AFTER 88 ITERATIONS ***

 final structure:
================
90
 xtb: 6.7.1 (edcfbbe)
C           -0.22151766244488       -5.62882548541460        0.80534195839879
C           -1.41189234844068       -4.96049004344744        0.67802927679471
C           -1.45515585032739       -3.60445316728993        0.23086002574647
C           -2.67397909752569       -2.88969266987055        0.12256134297935
C           -3.95191148138900       -3.56173332618289        0.12004505489998
C           -5.13397234779745       -2.90197286781241        0.05619301301079
C           -5.14453551835318       -1.47971648460559       -0.00136339333734
C           -3.87574290889347       -0.79367802164959       -0.02275191191106
C           -2.69986741368029       -1.45294777681846        0.02721735054961
C           -4.10982608187709        0.69953423683520       -0.09467670027352
C           -3.43955420457204        1.45611776176737        1.02751217941759
C           -3.63439960420111        1.32634979211978        2.38582276712716
C           -2.88435169016619        2.12255417898039        3.24137504403503
C           -1.95818967626291        3.02690402940918        2.74185422631790
C           -1.76116285757274        3.16229577140284        1.37694496314139
C           -2.50809111356130        2.37321938918969        0.51726322172204
C           -2.53256979999283        2.29622462569701       -0.93475700831293
C           -1.82224161687528        2.99319372671274       -1.89832883179285
C           -2.06428098683358        2.71298892269988       -3.23356088574734
C           -2.99856139853626        1.75594308736248       -3.60272723760813
C           -3.71313125025689        1.05207677256869       -2.64231804276916
C           -3.47482534417234        1.32820718208254       -1.31316856709536
C           -5.61630906059968        0.77835799925592       -0.08981256777168
C           -6.41461131217350        1.88762697826349       -0.13150760264391
C           -7.80351624900240        1.72047341742141       -0.12339173754094
C           -8.36877577595246        0.44121717161983       -0.07570279850496
C           -7.58542144818206       -0.68523265213842       -0.03412163140145
C           -6.17917636751302       -0.53860541866298       -0.04038603423422
C           -0.20579556382194       -3.00593865742286       -0.08301354254757
C            0.99013157686763       -3.68024840452832        0.03747605558804
C            2.26194887449520       -3.02200329696224       -0.29144388244450
C            3.28735944587580       -3.73795796469512       -0.91481584240761
C            4.51034276532549       -3.15785435709105       -1.19637723918909
C            4.71837363528352       -1.83272235756360       -0.84570423356352
C            3.68533875757551       -1.09920179149347       -0.24022336727736
C            2.46965300301717       -1.67783935671675        0.03752188810718
C            4.13568560837597        0.31394391541671        0.04299106344477
C            3.97536368638680        0.73936904245737        1.48215246340160
C            4.47845726359874        0.13680787973994        2.61473848655477
C            4.20180444644514        0.71102543262508        3.84884194243915
C            3.43563923928779        1.86361126625518        3.94073557306411
C            2.93078692168716        2.47458276856032        2.80376086965882
C            3.20504067537386        1.90885449331584        1.56924681872517
C            2.82612979781239        2.31270790744870        0.22404665456712
C            2.11545419250429        3.40983600434848       -0.23488772496958
C            1.91968421290360        3.55099023564346       -1.59939473875257
C            2.41255191607828        2.60981881636843       -2.49089384307890
C            3.13120542801747        1.51096328362756       -2.03877634760683
C            3.34008117615718        1.37501204938298       -0.68336622498966
C            5.57172743203201        0.28051802440214       -0.42922040162762
C            6.50675182366791        1.29170165442090       -0.39742803369874
C            7.77338935842363        1.03863405895257       -0.90849292903400
C            8.08898844918784       -0.20230396184408       -1.44268475352158
C            7.15135591370940       -1.22197713480932       -1.47627045412460
C            5.88611011211116       -0.97787111311920       -0.96483654873648
C            0.98564780039688       -5.01224540124293        0.49345179775967
H           -0.21732445555489       -6.64908519876358        1.16313152404030
H           -2.32304121920921       -5.45967289595167        0.96477351310431
H           -3.96256795294758       -4.64019346616407        0.13189167686503
H           -6.06946392846438       -3.44160432951449        0.04092258221923
H           -1.77687971067211       -0.89472714606260        0.04043923345256
H           -4.35433665578240        0.62110540606617        2.77612191915946
H           -3.02379210320766        2.03596032866797        4.30924313721265
H           -1.38632616378161        3.63436796513519        3.42863386213025
H           -1.04259900616525        3.86872466474124        0.98967588880885
H           -1.09377496597234        3.73668824245874       -1.61384325322130
H           -1.52049673830753        3.24738675255881       -3.99923621496547
H           -3.17254159263042        1.55530559410162       -4.65003338307263
H           -4.44021312385798        0.30607433427691       -2.93013371091225
H           -5.98491764948467        2.87866003005564       -0.16945406040044
H           -8.44601489183036        2.58722053459414       -0.15456710671839
H           -9.44547124974145        0.34587318660127       -0.07132229064558
H           -8.02514757044930       -1.67039217858297        0.00289093747006
H           -0.18847931934628       -2.00580806502792       -0.48673007852566
H            3.11308125831919       -4.76610419889001       -1.19699689511467
H            5.28982310911418       -3.73126018816852       -1.67609702980267
H            1.69456635492291       -1.11136674777753        0.53357482347163
H            5.07426115357725       -0.76211474030935        2.54492586652157
H            4.58761506556764        0.25323918627810        4.74819919574004
H            3.23201212302174        2.29084205671386        4.91219488883632
H            2.33630124078141        3.37288188026854        2.88014209960507
H            1.73167703831231        4.14527429032653        0.45669568950949
H            1.38231581350674        4.40893529087991       -1.97756860268789
H            2.24272958486930        2.73648383755397       -3.55021340264735
H            3.52552458169231        0.78460361695511       -2.73507049283411
H            6.26092222714217        2.25934014570686        0.01621405291758
H            8.52107421087926        1.81820777609170       -0.89053270565880
H            9.08015091142330       -0.37498069613242       -1.83696165898906
H            7.40235394477171       -2.18660835720619       -1.89218431261714
H            1.91588700540173       -5.54217116606319        0.62529666153803

          :  Hamiltonian                  GFN2-xTB          :
         :: gradient norm              0.000034660915 Eh/a0 ::
         :: HOMO-LUMO gap              0.455183207473 eV    ::
         :: SCC energy              -139.943647830083 Eh    ::
         :: -> dispersion             -0.136357165920 Eh    ::
         :: -> Gsolv                  -0.053965184417 Eh    ::
         :: repulsion energy           2.678002247970 Eh    ::

    * Orbital Energies and Occupations

         #    Occupation            Energy/Eh            Energy/eV
      -------------------------------------------------------------
         1        2.0000           -0.6625095             -18.0278
       ...           ...                  ...                  ...
       118        2.0000           -0.4041775             -10.9982
       119        2.0000           -0.4029151             -10.9639
       120        2.0000           -0.4000804             -10.8867
       121        2.0000           -0.3983017             -10.8383
       122        2.0000           -0.3970067             -10.8031
       123        2.0000           -0.3954537             -10.7608
       124        2.0000           -0.3945840             -10.7372
       125        2.0000           -0.3936069             -10.7106
       126        2.0000           -0.3812264             -10.3737
       127        2.0000           -0.3802830             -10.3480
       128        1.9980           -0.3738775             -10.1737
       129        1.0020           -0.3620512              -9.8519
       130        0.9998           -0.2755084              -7.4970 (HOMO)
       131        0.0002           -0.2587806              -7.0418 (LUMO)
       132        0.0000           -0.2523703              -6.8673
       133        0.0000           -0.2520769              -6.8594
       134                         -0.2276896              -6.1958
       135                         -0.2263926              -6.1605
       136                         -0.2254477              -6.1347
       137                         -0.2254296              -6.1343
       138                         -0.2249920              -6.1223
       139                         -0.2230165              -6.0686
       140                         -0.2209145              -6.0114
       141                         -0.2190650              -5.9611
       ...                                ...                  ...
       258                          0.7400648              20.1382
      -------------------------------------------------------------
                  HL-Gap            0.0167278 Eh            0.4552 eV

     #   Z          covCN         q      C6AA      α(0)
     1   6 C        2.909    -0.031    28.770     8.795
     2   6 C        2.919    -0.038    28.955     8.824
     3   6 C        2.965     0.009    27.814     8.651
     4   6 C        2.968     0.004    27.935     8.670
     5   6 C        2.914    -0.036    28.887     8.813
     6   6 C        2.902    -0.036    28.901     8.815
     7   6 C        3.029    -0.003    28.068     8.690
     8   6 C        3.040     0.006    27.839     8.654
     9   6 C        2.908    -0.042    29.031     8.835
    10   6 C        3.971     0.009    20.354     6.410
    11   6 C        3.054     0.004    27.874     8.658
    12   6 C        2.913    -0.033    28.833     8.805
    13   6 C        2.922    -0.032    28.805     8.801
    14   6 C        2.921    -0.032    28.809     8.802
    15   6 C        2.914    -0.034    28.844     8.807
    16   6 C        3.036     0.001    27.981     8.676
    17   6 C        3.036     0.001    27.982     8.676
    18   6 C        2.914    -0.034    28.858     8.809
    19   6 C        2.921    -0.032    28.809     8.802
    20   6 C        2.923    -0.032    28.805     8.801
    21   6 C        2.913    -0.034    28.837     8.806
    22   6 C        3.055     0.005    27.868     8.657
    23   6 C        3.052     0.007    27.812     8.649
    24   6 C        2.907    -0.034    28.853     8.808
    25   6 C        2.920    -0.035    28.859     8.810
    26   6 C        2.914    -0.030    28.753     8.793
    27   6 C        2.908    -0.038    28.948     8.822
    28   6 C        3.026     0.002    27.946     8.671
    29   6 C        2.926    -0.040    29.006     8.832
    30   6 C        2.969     0.009    27.806     8.649
    31   6 C        2.979     0.007    27.862     8.658
    32   6 C        2.926    -0.038    28.937     8.822
    33   6 C        2.912    -0.036    28.884     8.813
    34   6 C        3.037    -0.002    28.031     8.684
    35   6 C        3.050     0.005    27.861     8.657
    36   6 C        2.918    -0.038    28.940     8.822
    37   6 C        3.978     0.010    20.342     6.408
    38   6 C        3.054     0.005    27.854     8.655
    39   6 C        2.913    -0.034    28.835     8.805
    40   6 C        2.923    -0.032    28.809     8.802
    41   6 C        2.921    -0.033    28.827     8.805
    42   6 C        2.914    -0.034    28.853     8.808
    43   6 C        3.036     0.000    27.986     8.677
    44   6 C        3.035     0.000    27.986     8.677
    45   6 C        2.915    -0.034    28.838     8.806
    46   6 C        2.921    -0.032    28.796     8.800
    47   6 C        2.923    -0.032    28.799     8.800
    48   6 C        2.914    -0.034    28.836     8.806
    49   6 C        3.056     0.006    27.834     8.652
    50   6 C        3.057     0.006    27.833     8.652
    51   6 C        2.913    -0.034    28.839     8.806
    52   6 C        2.923    -0.032    28.810     8.802
    53   6 C        2.920    -0.033    28.828     8.805
    54   6 C        2.914    -0.035    28.867     8.810
    55   6 C        3.035     0.001    27.977     8.676
    56   6 C        2.922    -0.038    28.954     8.824
    57   1 H        0.926     0.031     2.572     2.508
    58   1 H        0.926     0.035     2.519     2.482
    59   1 H        0.926     0.037     2.486     2.466
    60   1 H        0.926     0.033     2.537     2.491
    61   1 H        0.926     0.026     2.637     2.539
    62   1 H        0.926     0.027     2.634     2.538
    63   1 H        0.926     0.033     2.550     2.497
    64   1 H        0.926     0.033     2.541     2.493
    65   1 H        0.926     0.035     2.522     2.484
    66   1 H        0.926     0.036     2.503     2.474
    67   1 H        0.926     0.033     2.539     2.492
    68   1 H        0.926     0.033     2.550     2.497
    69   1 H        0.926     0.027     2.633     2.537
    70   1 H        0.926     0.026     2.643     2.542
    71   1 H        0.926     0.032     2.560     2.502
    72   1 H        0.926     0.032     2.554     2.499
    73   1 H        0.926     0.033     2.546     2.495
    74   1 H        0.926     0.032     2.553     2.499
    75   1 H        0.926     0.036     2.509     2.477
    76   1 H        0.926     0.034     2.523     2.484
    77   1 H        0.926     0.027     2.626     2.534
    78   1 H        0.926     0.027     2.635     2.538
    79   1 H        0.926     0.032     2.556     2.500
    80   1 H        0.926     0.033     2.546     2.495
    81   1 H        0.926     0.034     2.529     2.487
    82   1 H        0.926     0.033     2.544     2.494
    83   1 H        0.926     0.032     2.552     2.498
    84   1 H        0.926     0.032     2.552     2.498
    85   1 H        0.926     0.026     2.638     2.540
    86   1 H        0.926     0.027     2.631     2.537
    87   1 H        0.926     0.033     2.549     2.497
    88   1 H        0.926     0.033     2.542     2.493
    89   1 H        0.926     0.034     2.530     2.487
    90   1 H        0.926     0.033     2.545     2.495

molecular dipole:
                 x           y           z       tot (Debye)
 q only:        0.093       0.038      -0.013
   full:        0.108       0.036      -0.005       0.291

 projected vibrational frequencies (cm⁻¹)
eigval :       -0.00    -0.00     0.00     0.00     0.00     0.00
eigval :        5.67    13.15    17.69    21.16    25.13    31.91
eigval :       40.09    43.26    46.34    50.84    58.71    68.54
eigval :       82.44    86.55    91.39    99.53   117.37   122.56
eigval :      130.96   138.37   146.00   154.32   178.63   187.43
eigval :      206.90   211.10   218.10   222.12   232.37   241.75
eigval :      250.89   254.19   274.00   283.94   290.60   308.18
eigval :      323.63   344.47   350.90   359.44   386.33   387.56
eigval :      391.13   396.52   408.09   413.92   414.06   416.57
eigval :      429.01   441.52   447.47   452.68   456.56   458.24
eigval :      465.34   475.67   486.59   501.27   502.46   506.18
eigval :      520.06   526.54   538.41   540.48   551.85   566.37
eigval :      576.17   584.01   588.01   591.80   598.19   602.75
eigval :      603.85   626.01   627.09   634.43   639.76   657.71
eigval :      663.54   683.07   684.11   687.50   689.34   694.62
eigval :      706.18   708.59   726.13   729.98   736.41   739.34
eigval :      745.50   752.31   753.45   760.63   766.10   775.00
eigval :      776.26   783.36   783.97   787.58   820.87   822.10
eigval :      831.11   835.45   838.34   848.15   876.02   877.24
eigval :      878.36   878.53   881.43   884.85   886.06   892.49
eigval :      899.40   899.86   901.98   902.56   907.48   908.95
eigval :      909.87   910.26   910.80   911.73   913.84   918.31
eigval :      923.52   925.32   926.09   926.38   926.91   931.24
eigval :      940.40   964.67   983.65  1006.29  1007.25  1008.09
eigval :     1020.51  1051.06  1063.37  1072.07  1072.61  1072.97
eigval :     1075.62  1077.56  1078.12  1083.36  1123.16  1128.14
eigval :     1132.44  1137.04  1142.61  1142.98  1153.56  1156.98
eigval :     1163.79  1171.21  1175.22  1175.98  1176.37  1177.88
eigval :     1180.29  1182.12  1192.31  1196.29  1207.28  1207.60
eigval :     1208.08  1223.57  1225.16  1227.06  1243.54  1244.92
eigval :     1250.52  1254.60  1257.02  1260.15  1261.18  1268.38
eigval :     1269.81  1283.04  1284.53  1290.33  1314.03  1321.07
eigval :     1325.59  1326.15  1330.96  1336.48  1341.96  1352.69
eigval :     1362.65  1363.83  1364.86  1371.70  1390.85  1402.60
eigval :     1419.25  1423.92  1426.90  1427.46  1427.76  1430.09
eigval :     1436.69  1449.89  1460.31  1460.89  1462.78  1468.78
eigval :     1470.53  1472.43  1487.52  1503.55  1533.26  1557.33
eigval :     1567.92  1569.84  1582.22  1583.90  1586.46  1590.03
eigval :     1592.71  1594.60  1599.49  1600.35  1601.66  1601.73
eigval :     1602.87  1630.12  3065.63  3067.50  3067.89  3068.61
eigval :     3068.78  3069.08  3069.41  3070.50  3071.51  3072.67
eigval :     3072.96  3073.18  3073.26  3074.72  3075.75  3076.63
eigval :     3079.32  3080.80  3081.33  3082.06  3083.38  3084.49
eigval :     3086.02  3087.42  3088.73  3089.33  3089.70  3089.86
eigval :     3092.10  3094.32  3095.55  3096.80  3100.17  3107.94

   temp. (K)  partition function   enthalpy   heat capacity  entropy
                                   cal/mol     cal/K/mol   cal/K/mol   J/K/mol
 298.15  VIB  0.217E+20            25010.571    162.080    154.478
         ROT  0.952E+08              888.752      2.981     39.490
         INT  0.207E+28            25899.323    165.061    193.968
         TR   0.182E+29             1481.254      4.968     45.527
         TOT                       27380.5772   170.0295   239.4947  1002.0457

       T/K    H(0)-H(T)+PV         H(T)/Eh          T*S/Eh         G(T)/Eh
   ------------------------------------------------------------------------
    298.15    0.436337E-01    0.733027E+00    0.113792E+00    0.619235E+00
   ------------------------------------------------------------------------

         :::::::::::::::::::::::::::::::::::::::::::::::::::::
         ::                  THERMODYNAMIC                  ::
         :::::::::::::::::::::::::::::::::::::::::::::::::::::
         :: total free energy        -136.646410512283 Eh   ::
         ::.................................................::
         :: total energy             -137.265645583367 Eh   ::
         :: zero point energy           0.689392994773 Eh   ::
         :: G(RRHO) w/o ZPVE           -0.070157923689 Eh   ::
         :: G(RRHO) contrib.            0.619235071084 Eh   ::
         :::::::::::::::::::::::::::::::::::::::::::::::::::::

           -------------------------------------------------
          | TOTAL ENERGY             -137.265645583367 Eh   |
          | TOTAL ENTHALPY           -136.532618861349 Eh   |
          | TOTAL FREE ENERGY        -136.646410512283 Eh   |
          | GRADIENT NORM               0.000034688648 Eh/α |
          | HOMO-LUMO GAP               0.455186194682 eV   |
           -------------------------------------------------

 * finished run on 2025/09/10 at 13:09:37.222
