   * xtb version 6.7.1 (edcfbbe) compiled by 'albert@albert-system' on 2024-07-22

   ID    Z sym.   atoms
    1    6 C      1-4, 6-30, 32-45
    2    7 N      5, 31
    3    1 H      46-75

          program call               : xtb data2507/gas/SAFDPA/SAFDPA_gas_S0_crest.xyz --gfn 2 --ohess vtight --parallel 40 --molden --ceasefiles --namespace data2507/gas/SAFDPA/SAFDPA_gas_S0_finalOpt
          :  Hamiltonian                  GFN2-xTB          :
 * total energy  :  -113.2623906 Eh     change       -0.4996821E-09 Eh
 * total energy  :  -113.2623914 Eh     change       -0.8323255E-06 Eh
 * total energy  :  -113.2623926 Eh     change       -0.1169282E-05 Eh
 * total energy  :  -113.2623948 Eh     change       -0.2200656E-05 Eh
 * total energy  :  -113.2623974 Eh     change       -0.2609431E-05 Eh
 * total energy  :  -113.2623988 Eh     change       -0.1421265E-05 Eh
 * total energy  :  -113.2623996 Eh     change       -0.7788632E-06 Eh
 * total energy  :  -113.2624004 Eh     change       -0.7824919E-06 Eh
 * total energy  :  -113.2624012 Eh     change       -0.8041669E-06 Eh
 * total energy  :  -113.2624018 Eh     change       -0.6064389E-06 Eh
 * total energy  :  -113.2624050 Eh     change       -0.4938472E-06 Eh
 * total energy  :  -113.2624054 Eh     change       -0.4338111E-06 Eh
 * total energy  :  -113.2624059 Eh     change       -0.4991516E-06 Eh
 * total energy  :  -113.2624065 Eh     change       -0.6264725E-06 Eh
 * total energy  :  -113.2624072 Eh     change       -0.6456022E-06 Eh
 * total energy  :  -113.2624076 Eh     change       -0.4451155E-06 Eh
 * total energy  :  -113.2624078 Eh     change       -0.1406350E-06 Eh
 * total energy  :  -113.2624080 Eh     change       -0.2693055E-06 Eh
 * total energy  :  -113.2624081 Eh     change       -0.9445404E-07 Eh
   *** GEOMETRY OPTIMIZATION CONVERGED AFTER 24 ITERATIONS ***

 final structure:
================
75
 xtb: 6.7.1 (edcfbbe)
C            5.49615267833102       -4.53828620726670        0.35210874520382
C            4.45506110766938       -4.03255220556818        1.11322028938684
C            4.01258375038800       -2.73822079871587        0.92304394929463
C            4.60500207565705       -1.92738077975114       -0.04536523776693
N            4.15715873260398       -0.61772547331515       -0.24371030300174
C            5.06383250782615        0.39826308893968       -0.56247382380054
C            4.70101524563682        1.41770421714894       -1.44318108419068
C            5.59554685356103        2.42392463488474       -1.75060895779139
C            6.86504131708931        2.42902877216740       -1.19611199486922
C            7.23183897029736        1.41764109218557       -0.32343269008250
C            6.34132436811033        0.41184526200725       -0.00242439345200
C            2.79439491105898       -0.31731022417404       -0.11587734767484
C            1.83261013251590       -1.21607688411866       -0.58218330753151
C            0.48038950774969       -0.94129659092762       -0.46086302032763
C            0.09112254259045        0.24619247056139        0.11902520749017
C            1.04928366135532        1.15814780122318        0.58407530591371
C            2.39855205116976        0.88251388956516        0.47684692327966
C            0.35667316668891        2.30795448387559        1.14574187497359
C            0.83974521934677        3.46883357734225        1.72583335450657
C           -0.07024687051903        4.40960163402523        2.18106953403347
C           -1.43506278208426        4.19705633047843        2.05949865509097
C           -1.92446741685547        3.03549520017114        1.47716506907544
C           -1.02380051925675        2.09763652828623        1.02379668683458
C           -1.31199491546372        0.76594558196367        0.35682340744175
C           -2.03458708934293        0.97962732233819       -0.95151881178294
C           -1.44149786822374        1.78063286489349       -1.91533504971446
C           -2.06270780684803        2.02940700286862       -3.12496520184169
C           -3.30521172850091        1.47201801468370       -3.37317142009549
C           -3.91067710231715        0.67142898053090       -2.42628174626978
C           -3.28325145156080        0.40652421961403       -1.20589292821127
N           -3.89989289915142       -0.40124166471130       -0.26379551968454
C           -5.16905905730220       -0.96952856073331       -0.56536243351957
C           -5.24854072569002       -2.12473746437979       -1.33278459578198
C           -6.48460749394369       -2.67332000220955       -1.62454122676507
C           -7.64030384145721       -2.07475419570071       -1.15070594285051
C           -7.56082429497020       -0.92386889984671       -0.38428292614120
C           -6.32801937882624       -0.36841886399156       -0.09127417471169
C           -3.30819701650652       -0.68741269343186        0.95614267787107
C           -3.94425556617251       -1.53652271200628        1.86590589210933
C           -3.36629521738778       -1.82662302257852        3.08489308446027
C           -2.13990375437233       -1.28131161886336        3.42363908417482
C           -1.50045169688579       -0.44873115718707        2.52421364652589
C           -2.06577191794948       -0.14542162315747        1.29508679079297
C            5.64868283279516       -2.44400587987141       -0.81334700553239
C            6.08972895898569       -3.73678900145280       -0.60930226539087
H            5.84183365910763       -5.54917529298061        0.50645390026250
H            3.98833903267512       -4.64811475251038        1.86830323882295
H            3.20641641583208       -2.34441191296433        1.52466087224054
H            3.71537404125852        1.41110231620032       -1.88530410607104
H            5.30149073993386        3.20563507658495       -2.43574448260198
H            7.56289889561890        3.21502934117412       -1.44189425663537
H            8.21734407717446        1.41614309710504        0.11894588961809
H            6.62702621937215       -0.36895326206569        0.68727428882171
H            2.15680545152694       -2.13661050347782       -1.04472766831456
H           -0.25347112988386       -1.64526430240380       -0.82508914796512
H            3.14089123224057        1.57561369766928        0.84382772866322
H            1.90219757891437        3.63827074126079        1.82123757479845
H            0.28764104092717        5.32145088887121        2.63686889097177
H           -2.12548502197170        4.94467171261277        2.42174781025264
H           -2.98801095692161        2.87088499230618        1.38122210785123
H           -0.47540745655150        2.21666167586118       -1.70516691304210
H           -1.58494477646508        2.65537278125866       -3.86276278755539
H           -3.81025995928164        1.66116751676400       -4.30886151491359
H           -4.88231813017099        0.24714329868384       -2.62934551700999
H           -4.34048261062722       -2.58222446927349       -1.69701347906814
H           -6.54561476077629       -3.57108694564274       -2.22154259886132
H           -8.60361126571135       -2.50566621725063       -1.37889935363536
H           -8.46133464827711       -0.45620622344629       -0.01491816095900
H           -6.25344983364199        0.52834345644162        0.50599099333960
H           -4.89827412256972       -1.97255250254586        1.61079042627280
H           -3.87869142608859       -2.48411088928803        3.77158387985037
H           -1.68484000369560       -1.50392059087617        4.37643243300333
H           -0.54052561102127       -0.02000483615423        2.77401159276797
H            6.10668675337493       -1.82559561891846       -1.57147448908131
H            6.89786273046266       -4.12417932499769       -1.21242264729688

          :  Hamiltonian                  GFN2-xTB          :
         :: gradient norm              0.000089404330 Eh/a0 ::
         :: HOMO-LUMO gap              2.610246232250 eV    ::
         :: SCC energy              -115.422630228581 Eh    ::
         :: -> dispersion             -0.111298847581 Eh    ::
         :: repulsion energy           2.160222093121 Eh    ::

    * Orbital Energies and Occupations

         #    Occupation            Energy/Eh            Energy/eV
      -------------------------------------------------------------
         1        2.0000           -0.6686548             -18.1950
       ...           ...                  ...                  ...
        94        2.0000           -0.4109188             -11.1817
        95        2.0000           -0.4083710             -11.1123
        96        2.0000           -0.4056263             -11.0377
        97        2.0000           -0.4038573             -10.9895
        98        2.0000           -0.4022939             -10.9470
        99        2.0000           -0.4020116             -10.9393
       100        2.0000           -0.4010021             -10.9118
       101        2.0000           -0.3950011             -10.7485
       102        2.0000           -0.3927797             -10.6881
       103        2.0000           -0.3885446             -10.5728
       104        2.0000           -0.3774433             -10.2708
       105        2.0000           -0.3448879              -9.3849
       106        2.0000           -0.3444388              -9.3727 (HOMO)
       107                         -0.2485140              -6.7624 (LUMO)
       108                         -0.2376288              -6.4662
       109                         -0.2365653              -6.4373
       110                         -0.2286801              -6.2227
       111                         -0.2266743              -6.1681
       112                         -0.2243966              -6.1061
       113                         -0.2214290              -6.0254
       114                         -0.2185441              -5.9469
       115                         -0.2179601              -5.9310
       116                         -0.2177592              -5.9255
       117                         -0.2130663              -5.7978
       ...                                ...                  ...
       210                          0.7337548              19.9665
      -------------------------------------------------------------
                  HL-Gap            0.0959248 Eh            2.6102 eV

     #   Z          covCN         q      C6AA      α(0)
     1   6 C        2.919    -0.039    28.975     8.827
     2   6 C        2.920    -0.029    28.736     8.791
     3   6 C        2.922    -0.048    29.193     8.860
     4   6 C        2.923     0.065    26.537     8.448
     5   7 N        2.753    -0.077    22.731     7.081
     6   6 C        2.924     0.066    26.531     8.447
     7   6 C        2.923    -0.048    29.186     8.859
     8   6 C        2.919    -0.029    28.735     8.791
     9   6 C        2.919    -0.039    28.974     8.827
    10   6 C        2.920    -0.030    28.739     8.791
    11   6 C        2.922    -0.048    29.197     8.861
    12   6 C        2.926     0.062    26.607     8.459
    13   6 C        2.925    -0.050    29.249     8.869
    14   6 C        2.913    -0.032    28.809     8.801
    15   6 C        3.059    -0.005    28.090     8.692
    16   6 C        3.034     0.001    27.964     8.674
    17   6 C        2.917    -0.053    29.313     8.878
    18   6 C        3.035     0.002    27.952     8.672
    19   6 C        2.914    -0.034    28.846     8.807
    20   6 C        2.921    -0.033    28.811     8.802
    21   6 C        2.923    -0.032    28.789     8.799
    22   6 C        2.914    -0.032    28.797     8.800
    23   6 C        3.060     0.003    27.888     8.660
    24   6 C        3.950     0.013    20.297     6.402
    25   6 C        2.983    -0.009    28.226     8.715
    26   6 C        2.926    -0.035    28.868     8.811
    27   6 C        2.917    -0.043    29.076     8.842
    28   6 C        2.920    -0.033    28.812     8.802
    29   6 C        2.924    -0.058    29.452     8.900
    30   6 C        2.926     0.059    26.670     8.469
    31   7 N        2.753    -0.072    22.632     7.066
    32   6 C        2.928     0.070    26.434     8.432
    33   6 C        2.922    -0.037    28.919     8.819
    34   6 C        2.920    -0.028    28.691     8.784
    35   6 C        2.920    -0.030    28.755     8.794
    36   6 C        2.920    -0.028    28.691     8.784
    37   6 C        2.922    -0.037    28.919     8.819
    38   6 C        2.926     0.059    26.670     8.469
    39   6 C        2.924    -0.058    29.452     8.900
    40   6 C        2.920    -0.033    28.812     8.802
    41   6 C        2.917    -0.043    29.076     8.842
    42   6 C        2.926    -0.035    28.870     8.811
    43   6 C        2.983    -0.009    28.225     8.715
    44   6 C        2.922    -0.048    29.199     8.861
    45   6 C        2.920    -0.030    28.740     8.791
    46   1 H        0.926     0.029     2.603     2.523
    47   1 H        0.926     0.030     2.581     2.512
    48   1 H        0.926     0.031     2.572     2.508
    49   1 H        0.926     0.031     2.576     2.510
    50   1 H        0.926     0.030     2.581     2.512
    51   1 H        0.926     0.029     2.603     2.523
    52   1 H        0.926     0.030     2.583     2.513
    53   1 H        0.926     0.031     2.572     2.508
    54   1 H        0.926     0.032     2.553     2.499
    55   1 H        0.926     0.028     2.619     2.531
    56   1 H        0.926     0.033     2.545     2.495
    57   1 H        0.926     0.030     2.580     2.512
    58   1 H        0.926     0.029     2.594     2.518
    59   1 H        0.926     0.030     2.593     2.518
    60   1 H        0.926     0.025     2.655     2.548
    61   1 H        0.926     0.028     2.618     2.530
    62   1 H        0.926     0.027     2.624     2.533
    63   1 H        0.926     0.028     2.611     2.527
    64   1 H        0.926     0.025     2.660     2.550
    65   1 H        0.926     0.041     2.437     2.441
    66   1 H        0.926     0.038     2.473     2.459
    67   1 H        0.926     0.037     2.485     2.465
    68   1 H        0.926     0.038     2.473     2.459
    69   1 H        0.926     0.041     2.437     2.441
    70   1 H        0.926     0.025     2.661     2.551
    71   1 H        0.926     0.028     2.611     2.527
    72   1 H        0.926     0.027     2.624     2.533
    73   1 H        0.926     0.028     2.617     2.530
    74   1 H        0.926     0.031     2.572     2.508
    75   1 H        0.926     0.030     2.583     2.513

molecular dipole:
                 x           y           z       tot (Debye)
 q only:       -0.687      -0.252      -0.137
   full:       -0.706      -0.263      -0.143       1.948

 projected vibrational frequencies (cm⁻¹)
eigval :       -0.00    -0.00    -0.00     0.00     0.00     0.00
eigval :        4.87    12.08    12.88    19.85    33.64    42.07
eigval :       44.75    51.04    55.65    57.91    66.32    72.67
eigval :       81.34    96.70   111.76   117.36   141.72   159.28
eigval :      171.99   198.72   199.79   223.05   235.40   244.64
eigval :      246.68   251.51   280.31   283.50   317.81   330.58
eigval :      348.54   373.45   378.15   381.11   383.43   386.15
eigval :      391.15   397.78   408.13   417.65   425.71   428.81
eigval :      443.57   461.78   470.67   479.27   490.98   500.94
eigval :      503.76   515.99   531.73   564.03   584.87   589.00
eigval :      590.45   593.55   593.79   596.54   598.92   609.81
eigval :      622.28   628.56   656.56   660.11   668.61   671.26
eigval :      673.51   682.23   692.28   703.84   728.29   728.67
eigval :      756.59   757.77   764.09   771.85   776.47   779.05
eigval :      787.18   824.50   864.71   865.20   873.42   874.40
eigval :      876.50   876.90   878.95   887.15   890.82   893.48
eigval :      895.32   904.98   909.43   909.62   910.10   910.79
eigval :      912.47   913.19   920.24   920.55   921.08   927.16
eigval :      927.27   928.48   928.58   929.29   930.09   933.36
eigval :      949.80   957.19   991.73   997.11  1005.03  1031.12
eigval :     1076.44  1078.40  1083.57  1084.49  1091.77  1107.45
eigval :     1108.91  1113.52  1122.31  1124.46  1126.49  1139.53
eigval :     1148.23  1175.70  1178.51  1180.73  1180.85  1180.91
eigval :     1182.58  1184.81  1185.44  1188.47  1196.19  1197.60
eigval :     1207.84  1215.74  1233.08  1236.08  1245.63  1250.66
eigval :     1268.15  1268.99  1272.89  1274.57  1278.79  1284.49
eigval :     1309.88  1317.71  1318.29  1321.41  1325.57  1328.07
eigval :     1328.12  1330.65  1336.59  1344.33  1364.88  1418.57
eigval :     1432.80  1435.05  1436.22  1439.37  1440.57  1444.48
eigval :     1466.18  1470.02  1471.20  1473.63  1478.66  1484.49
eigval :     1496.65  1572.54  1574.20  1578.57  1580.95  1583.40
eigval :     1588.24  1590.79  1592.81  1595.09  1595.63  1598.82
eigval :     1603.13  1604.74  1605.29  3071.56  3074.58  3074.95
eigval :     3075.40  3075.76  3076.20  3077.40  3077.60  3078.07
eigval :     3079.37  3080.11  3080.23  3081.56  3082.61  3085.26
eigval :     3086.01  3087.51  3088.52  3088.99  3089.11  3090.83
eigval :     3091.57  3092.70  3093.12  3093.23  3096.40  3096.90
eigval :     3098.69  3098.84  3099.54

   temp. (K)  partition function   enthalpy   heat capacity  entropy
                                   cal/mol     cal/K/mol   cal/K/mol   J/K/mol
 298.15  VIB  0.404E+17            20452.785    130.978    128.355
         ROT  0.583E+08              888.752      2.981     38.514
         INT  0.235E+25            21341.537    133.959    166.869
         TR   0.133E+29             1481.254      4.968     44.910
         TOT                       22822.7912   138.9271   211.7793   886.0846

       T/K    H(0)-H(T)+PV         H(T)/Eh          T*S/Eh         G(T)/Eh
   ------------------------------------------------------------------------
    298.15    0.363704E-01    0.620719E+00    0.100623E+00    0.520096E+00
   ------------------------------------------------------------------------

         :::::::::::::::::::::::::::::::::::::::::::::::::::::
         ::                  THERMODYNAMIC                  ::
         :::::::::::::::::::::::::::::::::::::::::::::::::::::
         :: total free energy        -112.742312553059 Eh   ::
         ::.................................................::
         :: total energy             -113.262408135459 Eh   ::
         :: zero point energy           0.584348328041 Eh   ::
         :: G(RRHO) w/o ZPVE           -0.064252745641 Eh   ::
         :: G(RRHO) contrib.            0.520095582400 Eh   ::
         :::::::::::::::::::::::::::::::::::::::::::::::::::::

           -------------------------------------------------
          | TOTAL ENERGY             -113.262408135459 Eh   |
          | TOTAL ENTHALPY           -112.641689374564 Eh   |
          | TOTAL FREE ENERGY        -112.742312553059 Eh   |
          | GRADIENT NORM               0.000089342355 Eh/α |
          | HOMO-LUMO GAP               2.610247849904 eV   |
           -------------------------------------------------

 * finished run on 2025/07/19 at 22:22:18.062
