   * xtb version 6.7.1 (edcfbbe) compiled by 'albert@albert-system' on 2024-07-22

   ID    Z sym.   atoms
    1    6 C      1-4, 6-30, 32-45
    2    7 N      5, 31
    3    1 H      46-75

          program call               : xtb data2507/gas/SAFDPA/SAFDPA_gas_S0_finalOpt.xtbopt.xyz --gfn 2 --spinpol --tblite --uhf 2 --ohess vtight --parallel 40 --molden --ceasefiles --namespace data2507/gas/SAFDPA/SAFDPA_gas_T1_preOpt
 * total energy  :  -113.1560136 Eh     change        0.3712273E-08 Eh
 * total energy  :  -113.1602060 Eh     change       -0.4192390E-02 Eh
 * total energy  :  -113.1626992 Eh     change       -0.2493197E-02 Eh
 * total energy  :  -113.1629169 Eh     change       -0.2177059E-03 Eh
 * total energy  :  -113.1630211 Eh     change       -0.1042665E-03 Eh
 * total energy  :  -113.1630366 Eh     change       -0.1549306E-04 Eh
 * total energy  :  -113.1630573 Eh     change       -0.2070466E-04 Eh
 * total energy  :  -113.1630686 Eh     change       -0.1122020E-04 Eh
 * total energy  :  -113.1630792 Eh     change       -0.1063672E-04 Eh
 * total energy  :  -113.1630893 Eh     change       -0.1008787E-04 Eh
 * total energy  :  -113.1631101 Eh     change       -0.3904147E-06 Eh
 * total energy  :  -113.1631104 Eh     change       -0.2740012E-06 Eh
 * total energy  :  -113.1631106 Eh     change       -0.2192763E-06 Eh
 * total energy  :  -113.1631098 Eh     change        0.7922048E-06 Eh
 * total energy  :  -113.1631100 Eh     change       -0.1489421E-06 Eh
 * total energy  :  -113.1631102 Eh     change       -0.1957127E-06 Eh
 * total energy  :  -113.1631104 Eh     change       -0.2458816E-06 Eh
 * total energy  :  -113.1631106 Eh     change       -0.2070284E-06 Eh
 * total energy  :  -113.1631106 Eh     change       -0.9226881E-08 Eh
   *** GEOMETRY OPTIMIZATION CONVERGED AFTER 44 ITERATIONS ***

 final structure:
================
75
 xtb: 6.7.1 (edcfbbe)
C            5.38583825146770       -4.53521373456537        0.32425270441526
C            4.33771260097747       -4.01142870997679        1.06299898855190
C            3.94356293618135       -2.69950980553641        0.88786317624243
C            4.59488565738477       -1.89049490657384       -0.04983544484462
N            4.17642062215141       -0.57682588072552       -0.24748965764461
C            5.10629754519849        0.42067786138139       -0.55247560540477
C            4.77627758586145        1.44175298263027       -1.44512752644353
C            5.69655867020019        2.42535248672319       -1.74521706016096
C            6.95594906639877        2.41008930443191       -1.16372356205615
C            7.28815285004176        1.39946465245440       -0.27636360510058
C            6.37455733573503        0.41047649406565        0.03191379930149
C            2.82792550473877       -0.25586978426769       -0.09920943427590
C            1.85417627860055       -1.21622125838018       -0.56498037646568
C            0.49012903334703       -0.93577969653866       -0.44716650087553
C            0.09239035174893        0.24638010485221        0.10101803471860
C            1.06588308336782        1.22974668687265        0.57023010873344
C            2.43752431348486        0.94073520825568        0.44392684325403
C            0.37956233549263        2.31363177772127        1.12215126524483
C            0.83432520141601        3.51557577383075        1.72032519556571
C           -0.08748353766460        4.42289937865155        2.17317693269049
C           -1.46349323292293        4.18822755621647        2.06237496691986
C           -1.93394271478603        3.00449344092173        1.47494573070613
C           -1.03296757160797        2.09090971808849        1.01597747300258
C           -1.31257798337515        0.75437795920328        0.34358163487574
C           -2.04137367859576        0.96236912643242       -0.96029801222868
C           -1.45623249193107        1.76470119357702       -1.92786936196520
C           -2.08568479481020        2.01075637234382       -3.13418590486022
C           -3.32835821706766        1.44995644109444       -3.37754468136252
C           -3.92743848526445        0.64800043499651       -2.42777862135984
C           -3.29156022161089        0.38692810377688       -1.21051737574899
N           -3.89935536738416       -0.42355769719123       -0.26567634224690
C           -5.17578011832275       -0.98262784239032       -0.55428182198853
C           -5.26968014015277       -2.15221013233541       -1.29801122274679
C           -6.51289710485338       -2.69143905224875       -1.57668335845446
C           -7.66055040613943       -2.06873069614843       -1.11426281604431
C           -7.56600000960011       -0.90319678572661       -0.37186083280416
C           -6.32617519881496       -0.35719962121439       -0.09091566619585
C           -3.29950290542029       -0.71251215269268        0.94855970542549
C           -3.92940933011957       -1.56553128788957        1.85968014301573
C           -3.33971859346390       -1.86021141607103        3.07173636462338
C           -2.10975048863954       -1.31470743663297        3.40092257276108
C           -1.47832998957960       -0.47621787199074        2.50124769593048
C           -2.05401191665503       -0.16698949126126        1.27803498982520
C            5.64814265641402       -2.42568149039798       -0.79513431330465
C            6.03938228926038       -3.73474200779089       -0.60279316994481
H            5.69453817193676       -5.55926594310407        0.46866016619198
H            3.82863659742925       -4.62643774976902        1.79028840347419
H            3.14199794099657       -2.28397915515560        1.47960220041264
H            3.79817551941292        1.44739336811831       -1.90256166708198
H            5.43270754076138        3.20670821502910       -2.44222972344031
H            7.67208188048093        3.18218218955800       -1.40010356769521
H            8.26387494298944        1.38504079273422        0.18639087192965
H            6.62936341364405       -0.36886200790255        0.73507562007548
H            2.19459691117583       -2.10648994012979       -1.06684287007865
H           -0.23467495633406       -1.65569909299618       -0.80128685584379
H            3.17323534333385        1.65030703899847        0.79342147826525
H            1.89427177567364        3.70195728262100        1.81073469272976
H            0.24785292573864        5.34413349663770        2.62972148757277
H           -2.16506511969790        4.92160770210546        2.42869527473760
H           -2.99743415032981        2.82739092628157        1.38892638876442
H           -0.49172029682153        2.20438177158850       -1.72080791392701
H           -1.61424210594224        2.63817308574444       -3.87495978849252
H           -3.83779438940537        1.63773589297303       -4.31112002469887
H           -4.89884593417533        0.22060770544422       -2.62583494504536
H           -4.36759318377879       -2.62810818911987       -1.65325270568248
H           -6.58558914208635       -3.60042083890081       -2.15500689237306
H           -8.62936112654470       -2.49217006692766       -1.33271628472271
H           -8.46007796598414       -0.41675608346810       -0.01146824690285
H           -6.23932357587854        0.55075096492331        0.48729981575252
H           -4.88631473723228       -1.99959932938912        1.61169283577742
H           -3.84508509336302       -2.52040718374071        3.76103212817706
H           -1.64704417898751       -1.54166738059210        4.34910481903749
H           -0.51869711573495       -0.04432135674530        2.74460924364097
H            6.14334484651554       -1.81070361455541       -1.53237944237152
H            6.85298700149896       -4.13880673254908       -1.18668651782756

 projected vibrational frequencies (cm⁻¹)
eigval :       -0.00    -0.00     0.00     0.00     0.00     0.00
eigval :       -3.73     9.19    11.57    19.96    34.35    41.68
eigval :       46.07    50.10    54.61    59.00    64.77    70.73
eigval :       78.22    91.57   110.29   115.72   133.66   159.06
eigval :      171.56   188.17   198.22   223.66   231.15   238.69
eigval :      245.44   249.32   270.32   280.18   307.65   318.21
eigval :      336.31   345.92   372.82   377.16   381.33   385.03
eigval :      386.05   395.85   403.55   406.89   414.45   423.62
eigval :      437.88   441.80   459.89   472.72   487.31   494.37
eigval :      504.53   509.68   526.65   533.93   564.44   573.89
eigval :      583.50   586.53   590.77   593.08   593.83   598.26
eigval :      605.59   623.83   644.04   653.90   657.13   662.01
eigval :      665.12   670.40   677.39   682.31   694.26   694.98
eigval :      720.38   722.09   751.36   754.41   764.18   769.08
eigval :      769.67   775.63   807.75   828.68   863.10   863.59
eigval :      864.64   869.48   871.06   875.68   876.81   877.65
eigval :      886.07   888.55   893.06   894.88   902.35   905.45
eigval :      905.84   909.92   910.13   911.93   918.89   920.03
eigval :      920.31   922.73   924.55   926.74   927.80   928.66
eigval :      932.53   939.94   979.13   987.67   995.06   999.79
eigval :     1042.82  1068.41  1077.23  1079.13  1080.19  1087.89
eigval :     1104.49  1106.07  1113.27  1120.60  1121.95  1124.83
eigval :     1129.34  1148.39  1150.70  1165.49  1176.50  1179.03
eigval :     1179.33  1179.73  1181.89  1183.33  1184.52  1189.63
eigval :     1196.79  1199.03  1220.78  1231.60  1233.97  1244.21
eigval :     1261.89  1265.07  1270.93  1272.80  1274.99  1278.69
eigval :     1289.33  1306.61  1309.76  1316.10  1318.38  1322.75
eigval :     1324.44  1330.16  1332.89  1333.19  1335.37  1338.91
eigval :     1367.40  1402.67  1429.53  1431.53  1434.45  1436.51
eigval :     1439.38  1459.35  1461.06  1461.13  1466.61  1469.46
eigval :     1486.30  1490.04  1507.26  1521.31  1554.42  1559.71
eigval :     1561.26  1562.33  1565.79  1573.82  1577.96  1579.07
eigval :     1583.11  1584.77  1597.99  3059.51  3061.29  3063.88
eigval :     3076.51  3078.04  3078.12  3078.32  3079.00  3080.23
eigval :     3080.44  3080.53  3081.97  3082.56  3084.75  3085.29
eigval :     3088.09  3089.44  3089.93  3091.59  3092.86  3093.51
eigval :     3093.84  3094.37  3094.45  3098.41  3098.62  3099.55
eigval :     3099.70  3100.39  3107.79

   temp. (K)  partition function   enthalpy   heat capacity  entropy
                                   cal/mol     cal/K/mol   cal/K/mol   J/K/mol
 298.15  VIB  0.129E+18            20839.658    133.354    131.264
         ROT  0.583E+08              888.752      2.981     38.515
         INT  0.750E+25            21728.411    136.335    169.779
         TR   0.133E+29             1481.254      4.968     44.910
         TOT                       23209.6645   141.3035   214.6889   898.2583

       T/K    H(0)-H(T)+PV         H(T)/Eh          T*S/Eh         G(T)/Eh
   ------------------------------------------------------------------------
    298.15    0.369870E-01    0.616046E+00    0.102006E+00    0.514041E+00
   ------------------------------------------------------------------------

         :::::::::::::::::::::::::::::::::::::::::::::::::::::
         ::                  THERMODYNAMIC                  ::
         :::::::::::::::::::::::::::::::::::::::::::::::::::::
         :: total free energy        -112.649069944966 Eh   ::
         ::.................................................::
         :: total energy             -113.163110567073 Eh   ::
         :: zero point energy           0.579059288675 Eh   ::
         :: G(RRHO) w/o ZPVE           -0.065018666568 Eh   ::
         :: G(RRHO) contrib.            0.514040622106 Eh   ::
         :::::::::::::::::::::::::::::::::::::::::::::::::::::

           -------------------------------------------------
          | TOTAL ENERGY             -113.163110567073 Eh   |
          | TOTAL ENTHALPY           -112.547064323706 Eh   |
          | TOTAL FREE ENERGY        -112.649069944966 Eh   |
          | GRADIENT NORM               0.000076549397 Eh/α |
           -------------------------------------------------

 * finished run on 2025/07/19 at 22:22:27.538
