   * xtb version 6.7.1 (edcfbbe) compiled by 'albert@albert-system' on 2024-07-22

   ID    Z sym.   atoms
    1    6 C      1-4, 6-30, 32-45
    2    7 N      5, 31
    3    1 H      46-75

          program call               : xtb data2507/gas/SAFDPA/SAFDPA_gas_T1_crest.xyz --gfn 2 --spinpol --tblite --uhf 2 --ohess vtight --parallel 40 --molden --ceasefiles --namespace data2507/gas/SAFDPA/SAFDPA_gas_T1_finalOpt
 * total energy  :  -113.1629346 Eh     change        0.1191404E-07 Eh
 * total energy  :  -113.1630647 Eh     change       -0.1300953E-03 Eh
 * total energy  :  -113.1631181 Eh     change       -0.5339935E-04 Eh
 * total energy  :  -113.1631242 Eh     change       -0.6130222E-05 Eh
 * total energy  :  -113.1631307 Eh     change       -0.6490913E-05 Eh
 * total energy  :  -113.1631351 Eh     change       -0.4358010E-05 Eh
 * total energy  :  -113.1631398 Eh     change       -0.4740554E-05 Eh
 * total energy  :  -113.1631428 Eh     change       -0.2952849E-05 Eh
 * total energy  :  -113.1631439 Eh     change       -0.1191213E-05 Eh
 * total energy  :  -113.1631449 Eh     change       -0.9788015E-06 Eh
 * total energy  :  -113.1631570 Eh     change       -0.6553005E-06 Eh
 * total energy  :  -113.1631580 Eh     change       -0.1013009E-05 Eh
 * total energy  :  -113.1631588 Eh     change       -0.8667817E-06 Eh
 * total energy  :  -113.1631597 Eh     change       -0.8659649E-06 Eh
 * total energy  :  -113.1631600 Eh     change       -0.2737501E-06 Eh
 * total energy  :  -113.1631605 Eh     change       -0.5351558E-06 Eh
 * total energy  :  -113.1631611 Eh     change       -0.5668895E-06 Eh
 * total energy  :  -113.1631616 Eh     change       -0.4832033E-06 Eh
 * total energy  :  -113.1631616 Eh     change       -0.4335000E-07 Eh
   *** GEOMETRY OPTIMIZATION CONVERGED AFTER 44 ITERATIONS ***

 final structure:
================
75
 xtb: 6.7.1 (edcfbbe)
C            4.77843067579663       -4.71290134779372        0.93668286650499
C            3.81022920889584       -3.99077174991719        1.61485626149720
C            3.54087261152414       -2.68145443559292        1.26807816802681
C            4.23861762457227       -2.07666202897207        0.21653528274774
N            3.94418849816574       -0.76634897773760       -0.15356714437730
C            4.95935215167422        0.08198224418754       -0.60369056952854
C            4.70870791641217        1.00273417253018       -1.62247260576207
C            5.71363302275606        1.83894759418916       -2.06437159203356
C            6.98010489896983        1.77390494898191       -1.50190988969077
C            7.23389871479457        0.86219863862967       -0.49016818767463
C            6.23536424986067        0.02117625972586       -0.03936316239949
C            2.63798714672722       -0.29583412314225       -0.03438546738346
C            1.56284350285255       -1.21243433293505       -0.34137460280241
C            0.23787963678110       -0.78559980557243       -0.24410805009546
C           -0.02931447961215        0.49733283030572        0.13287767622128
C            1.04630570128259        1.43763328852719        0.43527244065016
C            2.37826428941049        0.99928212817156        0.33430034715195
C            0.48222223131003        2.65584366277486        0.82472800971415
C            1.06731946558220        3.88212932621842        1.22473498178021
C            0.25002418962704        4.93546896402291        1.54522873235365
C           -1.14409185372013        4.82444467394689        1.48969301146922
C           -1.74269926780290        3.61835185112411        1.09758168757133
C           -0.94717574711286        2.55952711290862        0.77264263862379
C           -1.37226960426763        1.17397626645046        0.32152517021181
C           -2.10575060672335        1.20407865599014       -0.99583059411110
C           -1.64848646826209        2.03574941363696       -2.00610117711735
C           -2.25158385600063        2.05100393417982       -3.25053904727639
C           -3.32991665633140        1.21641215140616       -3.49348475971804
C           -3.80217129324624        0.38305334814777       -2.49986747164450
C           -3.19825333474225        0.36396749432311       -1.23982641333065
N           -3.68774299590212       -0.46467173775015       -0.24270171065001
C           -4.76784962541706       -1.33945646286267       -0.54692293578207
C           -4.50636524939409       -2.58451345381045       -1.10333475376608
C           -5.55383230882371       -3.43753918234225       -1.40329500232820
C           -6.85927125634955       -3.05200471936657       -1.14828290489332
C           -7.11965068182181       -1.80965962211637       -0.59322148309822
C           -6.07765173657781       -0.95105739768521       -0.29256736073073
C           -3.23083484599570       -0.38457184380114        1.06285394849479
C           -3.84475641696647       -1.12823279375746        2.07425685606364
C           -3.40591234760399       -1.03699408868159        3.37951809021834
C           -2.34694642361248       -0.20498269394183        3.70388477234333
C           -1.72164455500826        0.51776456310658        2.70460977276378
C           -2.14532842703896        0.43834816807832        1.38689280551483
C            5.21084026420503       -2.81130296032144       -0.46647241989854
C            5.47802281763195       -4.11514745697613       -0.10299565280013
H            4.98991025423550       -5.73398136939558        1.21506645860959
H            3.26661010575061       -4.44721607091904        2.42879790203896
H            2.80292825998577       -2.11059451484509        1.81119203213212
H            3.72438952044158        1.04650546530400       -2.06426856389292
H            5.51015281282158        2.54299239670255       -2.85737287832938
H            7.76258636363963        2.43094929955807       -1.84953145530656
H            8.21520654224942        0.81057560156116       -0.04213368257344
H            6.43011135590709       -0.67908687847193        0.75965574703755
H            1.80215649943183       -2.19484018780163       -0.71297291617488
H           -0.56213291841987       -1.47450328217581       -0.47778158133731
H            3.18809366691343        1.67545951090157        0.56654679972939
H            2.14239337903091        3.97418844125108        1.27089349971718
H            0.68564575687760        5.87716142695199        1.85016507993917
H           -1.76136779580713        5.67073424202848        1.74862749580117
H           -2.82005898961357        3.53594528166269        1.05409956569075
H           -0.80364927349805        2.67804987739695       -1.80570223538623
H           -1.88177198315358        2.70560827046734       -4.02477166474773
H           -3.81049894706743        1.21441561577573       -4.46062620974456
H           -4.64907901118802       -0.25696883229945       -2.69688895350878
H           -3.48449031056421       -2.87381032456428       -1.29910938376750
H           -5.34976191353670       -4.40556657146210       -1.83597557961897
H           -7.67472872202433       -3.71964294053676       -1.38255936227550
H           -8.13725137795031       -1.50754683329109       -0.39531706548020
H           -6.26769144284170        0.02031964133588        0.13970830502497
H           -4.66999059367581       -1.78116106532327        1.83309302774359
H           -3.89557088949068       -1.61963352372922        4.14576023338905
H           -2.00486754685978       -0.12811801764896        4.72455368802088
H           -0.88385323820600        1.15687710484017        2.94155693526329
H            5.74048529434761       -2.35453526962690       -1.28976826704160
H            6.22963429976692       -4.67456203633437       -0.63990833497346

 projected vibrational frequencies (cm⁻¹)
eigval :       -0.00     0.00     0.00     0.00     0.00     0.00
eigval :        5.26    10.08    11.56    19.94    34.16    43.33
eigval :       47.36    48.55    54.62    59.14    64.75    71.28
eigval :       79.49    92.84   111.00   120.31   131.52   159.67
eigval :      173.18   184.49   198.23   224.00   236.04   238.51
eigval :      241.09   246.04   268.90   286.33   302.38   318.47
eigval :      335.06   345.65   372.91   377.24   377.67   385.13
eigval :      388.64   396.37   400.15   407.56   409.87   426.85
eigval :      439.09   444.65   457.84   473.23   489.17   494.15
eigval :      503.45   506.44   527.30   534.61   565.39   574.54
eigval :      583.64   586.38   590.51   593.02   593.16   599.56
eigval :      603.70   626.22   640.22   654.45   657.14   665.36
eigval :      665.71   671.39   677.00   679.99   692.74   696.52
eigval :      719.40   724.75   751.46   754.51   764.10   768.13
eigval :      770.14   774.52   812.77   830.86   863.34   863.61
eigval :      864.56   868.85   871.27   875.86   876.22   879.21
eigval :      886.38   888.97   891.95   895.12   901.89   905.97
eigval :      906.52   909.27   909.68   911.36   919.17   919.50
eigval :      920.29   922.87   924.61   927.15   927.91   928.78
eigval :      932.59   937.40   979.22   986.90   995.08   999.50
eigval :     1043.66  1068.81  1077.54  1079.23  1080.34  1087.56
eigval :     1103.62  1105.38  1113.62  1120.95  1122.10  1123.97
eigval :     1130.30  1145.95  1153.69  1169.19  1175.71  1179.19
eigval :     1179.51  1180.00  1181.74  1183.18  1184.53  1189.60
eigval :     1197.38  1199.32  1220.64  1230.82  1232.12  1246.42
eigval :     1262.33  1265.40  1268.89  1273.02  1275.10  1279.30
eigval :     1288.57  1306.63  1309.96  1315.06  1316.81  1322.68
eigval :     1323.82  1330.14  1330.56  1332.55  1335.79  1341.00
eigval :     1368.61  1405.28  1429.04  1431.06  1433.88  1436.65
eigval :     1439.13  1456.93  1457.68  1458.65  1463.46  1469.19
eigval :     1484.87  1488.33  1506.93  1514.26  1552.25  1560.04
eigval :     1560.34  1561.39  1564.88  1571.77  1575.20  1578.31
eigval :     1579.67  1584.21  1594.40  3061.36  3062.25  3062.82
eigval :     3076.31  3078.05  3078.14  3078.20  3079.07  3080.20
eigval :     3080.43  3080.47  3082.14  3082.43  3085.12  3085.19
eigval :     3088.06  3089.48  3089.70  3091.79  3092.56  3093.31
eigval :     3093.81  3094.09  3094.21  3098.34  3098.53  3099.48
eigval :     3099.68  3100.45  3107.16

   temp. (K)  partition function   enthalpy   heat capacity  entropy
                                   cal/mol     cal/K/mol   cal/K/mol   J/K/mol
 298.15  VIB  0.781E+17            20832.328    133.413    130.766
         ROT  0.577E+08              888.752      2.981     38.494
         INT  0.450E+25            21721.080    136.394    169.261
         TR   0.133E+29             1481.254      4.968     44.910
         TOT                       23202.3343   141.3623   214.1708   896.0906

       T/K    H(0)-H(T)+PV         H(T)/Eh          T*S/Eh         G(T)/Eh
   ------------------------------------------------------------------------
    298.15    0.369753E-01    0.615964E+00    0.101759E+00    0.514205E+00
   ------------------------------------------------------------------------

         :::::::::::::::::::::::::::::::::::::::::::::::::::::
         ::                  THERMODYNAMIC                  ::
         :::::::::::::::::::::::::::::::::::::::::::::::::::::
         :: total free energy        -112.648956780869 Eh   ::
         ::.................................................::
         :: total energy             -113.163161601585 Eh   ::
         :: zero point energy           0.578988997287 Eh   ::
         :: G(RRHO) w/o ZPVE           -0.064784176571 Eh   ::
         :: G(RRHO) contrib.            0.514204820716 Eh   ::
         :::::::::::::::::::::::::::::::::::::::::::::::::::::

           -------------------------------------------------
          | TOTAL ENERGY             -113.163161601585 Eh   |
          | TOTAL ENTHALPY           -112.547197330977 Eh   |
          | TOTAL FREE ENERGY        -112.648956780869 Eh   |
          | GRADIENT NORM               0.000059743755 Eh/α |
           -------------------------------------------------

 * finished run on 2025/07/19 at 22:29:43.325
