   * xtb version 6.7.1 (edcfbbe) compiled by 'albert@albert-system' on 2024-07-22

   ID    Z sym.   atoms
    1    6 C      1-4, 6-30, 32-45
    2    7 N      5, 31
    3    1 H      46-75

          program call               : xtb data2507/gas/SAFDPA/SAFDPA.xyz --gfn 2 --ohess vtight --parallel 40 --molden --ceasefiles --namespace data2507/gas/SAFDPA/SAFDPA_gas_S0_preOpt
          :  Hamiltonian                  GFN2-xTB          :
 * total energy  :  -113.2372696 Eh     change       -0.6367600E-09 Eh
 * total energy  :  -113.2540567 Eh     change       -0.1678714E-01 Eh
 * total energy  :  -113.2602089 Eh     change       -0.6152191E-02 Eh
 * total energy  :  -113.2614350 Eh     change       -0.1226085E-02 Eh
 * total energy  :  -113.2619196 Eh     change       -0.4846243E-03 Eh
 * total energy  :  -113.2620807 Eh     change       -0.1610755E-03 Eh
 * total energy  :  -113.2621757 Eh     change       -0.9499438E-04 Eh
 * total energy  :  -113.2622441 Eh     change       -0.6842166E-04 Eh
 * total energy  :  -113.2622926 Eh     change       -0.4842479E-04 Eh
 * total energy  :  -113.2623285 Eh     change       -0.3596381E-04 Eh
 * total energy  :  -113.2623997 Eh     change       -0.1254384E-05 Eh
 * total energy  :  -113.2624006 Eh     change       -0.8713132E-06 Eh
 * total energy  :  -113.2624012 Eh     change       -0.5793110E-06 Eh
 * total energy  :  -113.2624015 Eh     change       -0.3561663E-06 Eh
 * total energy  :  -113.2624018 Eh     change       -0.2606758E-06 Eh
 * total energy  :  -113.2624020 Eh     change       -0.1905111E-06 Eh
 * total energy  :  -113.2624021 Eh     change       -0.1332947E-06 Eh
 * total energy  :  -113.2624022 Eh     change       -0.1435986E-06 Eh
 * total energy  :  -113.2624022 Eh     change       -0.2287194E-08 Eh
   *** GEOMETRY OPTIMIZATION CONVERGED AFTER 44 ITERATIONS ***

 final structure:
================
75
 xtb: 6.7.1 (edcfbbe)
C            5.37457042800466       -4.60493953559387        0.09227937064611
C            4.35084005815324       -4.12574522480653        0.89308677722473
C            3.92711832439652       -2.81615971142430        0.77988622144576
C            4.52122063601272       -1.96263622145886       -0.14997793736081
N            4.09343598052307       -0.63673853159701       -0.27060349324744
C            5.01592873237820        0.37872221026385       -0.54324166918811
C            4.66654752538342        1.44879855662392       -1.36741051326495
C            5.57746411343522        2.45352460322408       -1.62822632741592
C            6.85013496312302        2.40699135895793       -1.08304023846721
C            7.20380338030732        1.34495450830457       -0.26693830494901
C            6.29693097128017        0.34003103689357        0.00757703309615
C            2.73722738921761       -0.32065955688045       -0.11656536228879
C            1.75632055994727       -1.18119648854508       -0.61427160821341
C            0.41006735576285       -0.88870834462746       -0.47026373788687
C            0.04576558347599        0.27901411697079        0.16339549573435
C            1.02304218418663        1.15278983211519        0.66069389107878
C            2.36639916831245        0.85806929284169        0.53229451860494
C            0.35474848343380        2.29094502439959        1.27333174347055
C            0.86212567471264        3.41793445428252        1.89781233650371
C           -0.02796984604501        4.35646243156087        2.39514280041669
C           -1.39705481552955        4.17484038286019        2.27161138162749
C           -1.91080683315647        3.04735294410748        1.64493747105513
C           -1.03001675948107        2.11198762646356        1.14933505501323
C           -1.34632230281035        0.81470025257661        0.42976861094810
C           -2.06774843578399        1.09291317357166       -0.86720124386577
C           -1.46819474514545        1.92957845401023       -1.79600365074470
C           -2.08278533379321        2.22641152952747       -2.99825226729323
C           -3.32265821129373        1.67759027904299       -3.27690056961889
C           -3.93481948996976        0.84228693950641       -2.36492477550981
C           -3.31749901360399        0.53544505831074       -1.14928015317005
N           -3.94198755123927       -0.30470249697543       -0.24198572552529
C           -5.21227179361420       -0.85567322092059       -0.57233378895095
C           -5.28811625543319       -2.04399218072340       -1.28745010970301
C           -6.52430519757187       -2.57666537217212       -1.60717564619886
C           -7.68329528896996       -1.92771882988545       -1.21479007830999
C           -7.60727892712862       -0.74301457066856       -0.50136166350970
C           -6.37422549955624       -0.20443804634851       -0.17910162167652
C           -3.36116764091435       -0.63554800014294        0.97137122066069
C           -4.01737509144319       -1.49764235414660        1.85409390742802
C           -3.44941956799827       -1.83409420790347        3.06588212159411
C           -2.21478656405203       -1.32111435792168        3.42462054508024
C           -1.55897427557201       -0.46998123577139        2.55467674729262
C           -2.11403455548837       -0.11988174434148        1.33340235346367
C            5.54725599514411       -2.45238141675782       -0.95829904833367
C            5.96972102861801       -3.76110880170522       -0.83117878559543
H            5.70566363842236       -5.62802568585561        0.18660085709796
H            3.88322990489275       -4.77468840219087        1.61911381292945
H            3.13459868357852       -2.44353775914392        1.41233412556906
H            3.67840001503225        1.48288580587253       -1.80261442749694
H            5.29364704780680        3.27501685041376       -2.26974094903797
H            7.56066352371662        3.19219559598460       -1.29240301311086
H            8.19184633255547        1.30261721877608        0.16768027350139
H            6.57246446997028       -0.48091072494210        0.65341077387403
H            2.06060517488632       -2.08541739027221       -1.12044678790380
H           -0.33859562915230       -1.56293347302964       -0.85978496537745
H            3.12314879794800        1.52133924846325        0.92409280446082
H            1.92797857729767        3.56337020052048        1.99489027572368
H            0.34906450098142        5.24218179816279        2.88571541131804
H           -2.07166472120710        4.91998857611056        2.66721547538667
H           -2.97766163454409        2.90668476273242        1.54771003084535
H           -0.50175457207050        2.35407463650484       -1.56485259070223
H           -1.60021989487901        2.88008888756269       -3.70839271520273
H           -3.81973541763805        1.89977250113069       -4.20959609603028
H           -4.90264944132733        0.42134437857946       -2.59209969925461
H           -4.37721128579924       -2.54042373455082       -1.58788012624992
H           -6.58289339073204       -3.50049219181096       -2.16323419287098
H           -8.64677232849634       -2.34571613148183       -1.46526384271383
H           -8.51053527207307       -0.23649200217206       -0.19537465178136
H           -6.30197698631736        0.71857465525304        0.37701185167374
H           -4.97986629753751       -1.90521834559828        1.58391829932136
H           -3.97653912038331       -2.50144262062129        3.73159885876234
H           -1.76697992750912       -1.58096942225856        4.37141825340214
H           -0.59438535711595       -0.06306926435077        2.82239493368095
H            6.00625648010966       -1.80024746975471       -1.68700211483616
H            6.76431758936638       -4.12715511313053       -1.46484214707050

          :  Hamiltonian                  GFN2-xTB          :
         :: gradient norm              0.000033396085 Eh/a0 ::
         :: HOMO-LUMO gap              2.609648264498 eV    ::
         :: SCC energy              -115.422656208276 Eh    ::
         :: -> dispersion             -0.111283663614 Eh    ::
         :: repulsion energy           2.160253968326 Eh    ::

    * Orbital Energies and Occupations

         #    Occupation            Energy/Eh            Energy/eV
      -------------------------------------------------------------
         1        2.0000           -0.6686730             -18.1955
       ...           ...                  ...                  ...
        94        2.0000           -0.4110018             -11.1839
        95        2.0000           -0.4082067             -11.1079
        96        2.0000           -0.4055847             -11.0365
        97        2.0000           -0.4039419             -10.9918
        98        2.0000           -0.4023348             -10.9481
        99        2.0000           -0.4018696             -10.9354
       100        2.0000           -0.4010485             -10.9131
       101        2.0000           -0.3949329             -10.7467
       102        2.0000           -0.3926399             -10.6843
       103        2.0000           -0.3884361             -10.5699
       104        2.0000           -0.3773190             -10.2674
       105        2.0000           -0.3448574              -9.3840
       106        2.0000           -0.3442604              -9.3678 (HOMO)
       107                         -0.2483577              -6.7582 (LUMO)
       108                         -0.2377710              -6.4701
       109                         -0.2368129              -6.4440
       110                         -0.2286018              -6.2206
       111                         -0.2267441              -6.1700
       112                         -0.2241924              -6.1006
       113                         -0.2214995              -6.0273
       114                         -0.2184127              -5.9433
       115                         -0.2179926              -5.9319
       116                         -0.2176378              -5.9222
       117                         -0.2130225              -5.7966
       ...                                ...                  ...
       210                          0.7339139              19.9708
      -------------------------------------------------------------
                  HL-Gap            0.0959028 Eh            2.6096 eV

     #   Z          covCN         q      C6AA      α(0)
     1   6 C        2.919    -0.039    28.974     8.827
     2   6 C        2.920    -0.029    28.736     8.791
     3   6 C        2.922    -0.048    29.192     8.860
     4   6 C        2.923     0.065    26.537     8.448
     5   7 N        2.753    -0.077    22.730     7.081
     6   6 C        2.924     0.066    26.531     8.447
     7   6 C        2.922    -0.048    29.185     8.859
     8   6 C        2.919    -0.029    28.735     8.791
     9   6 C        2.919    -0.039    28.973     8.827
    10   6 C        2.919    -0.030    28.739     8.791
    11   6 C        2.922    -0.048    29.195     8.861
    12   6 C        2.925     0.062    26.608     8.459
    13   6 C        2.925    -0.050    29.253     8.870
    14   6 C        2.913    -0.032    28.810     8.802
    15   6 C        3.059    -0.005    28.092     8.692
    16   6 C        3.034     0.001    27.964     8.674
    17   6 C        2.917    -0.053    29.317     8.879
    18   6 C        3.035     0.002    27.952     8.672
    19   6 C        2.914    -0.034    28.847     8.807
    20   6 C        2.921    -0.033    28.812     8.802
    21   6 C        2.923    -0.032    28.790     8.799
    22   6 C        2.914    -0.032    28.796     8.800
    23   6 C        3.060     0.003    27.887     8.660
    24   6 C        3.950     0.013    20.297     6.402
    25   6 C        2.983    -0.009    28.228     8.715
    26   6 C        2.926    -0.035    28.868     8.811
    27   6 C        2.917    -0.043    29.078     8.843
    28   6 C        2.920    -0.033    28.812     8.802
    29   6 C        2.924    -0.058    29.453     8.900
    30   6 C        2.926     0.059    26.669     8.469
    31   7 N        2.754    -0.072    22.640     7.067
    32   6 C        2.928     0.070    26.429     8.431
    33   6 C        2.922    -0.037    28.914     8.818
    34   6 C        2.920    -0.028    28.689     8.783
    35   6 C        2.920    -0.030    28.751     8.793
    36   6 C        2.920    -0.028    28.689     8.784
    37   6 C        2.922    -0.037    28.915     8.818
    38   6 C        2.926     0.059    26.669     8.469
    39   6 C        2.924    -0.058    29.453     8.900
    40   6 C        2.920    -0.033    28.812     8.802
    41   6 C        2.917    -0.043    29.078     8.843
    42   6 C        2.926    -0.035    28.870     8.811
    43   6 C        2.983    -0.009    28.227     8.715
    44   6 C        2.922    -0.048    29.197     8.861
    45   6 C        2.920    -0.030    28.740     8.791
    46   1 H        0.926     0.029     2.603     2.523
    47   1 H        0.926     0.030     2.580     2.512
    48   1 H        0.926     0.031     2.570     2.507
    49   1 H        0.926     0.031     2.574     2.509
    50   1 H        0.926     0.030     2.580     2.512
    51   1 H        0.926     0.029     2.602     2.523
    52   1 H        0.926     0.030     2.583     2.513
    53   1 H        0.926     0.031     2.572     2.508
    54   1 H        0.926     0.032     2.555     2.499
    55   1 H        0.926     0.028     2.622     2.532
    56   1 H        0.926     0.033     2.546     2.495
    57   1 H        0.926     0.030     2.581     2.512
    58   1 H        0.926     0.029     2.595     2.519
    59   1 H        0.926     0.029     2.594     2.519
    60   1 H        0.926     0.025     2.655     2.548
    61   1 H        0.926     0.028     2.619     2.531
    62   1 H        0.926     0.027     2.625     2.534
    63   1 H        0.926     0.028     2.612     2.527
    64   1 H        0.926     0.025     2.665     2.553
    65   1 H        0.926     0.041     2.436     2.441
    66   1 H        0.926     0.038     2.471     2.458
    67   1 H        0.926     0.037     2.483     2.464
    68   1 H        0.926     0.038     2.471     2.458
    69   1 H        0.926     0.041     2.435     2.440
    70   1 H        0.926     0.025     2.665     2.553
    71   1 H        0.926     0.028     2.612     2.527
    72   1 H        0.926     0.027     2.625     2.534
    73   1 H        0.926     0.028     2.617     2.530
    74   1 H        0.926     0.031     2.572     2.508
    75   1 H        0.926     0.030     2.583     2.513

molecular dipole:
                 x           y           z       tot (Debye)
 q only:       -0.689      -0.248      -0.153
   full:       -0.708      -0.260      -0.161       1.961

 projected vibrational frequencies (cm⁻¹)
eigval :       -0.00    -0.00    -0.00     0.00     0.00     0.00
eigval :       -7.43     4.95    12.87    19.15    33.72    42.01
eigval :       44.51    50.99    55.45    57.78    66.78    71.60
eigval :       81.34    96.95   111.74   117.41   141.54   159.05
eigval :      171.91   198.15   199.83   222.97   235.44   244.26
eigval :      246.40   251.22   280.05   283.94   317.74   330.79
eigval :      348.27   373.15   378.21   381.08   383.40   386.58
eigval :      390.95   397.69   408.28   417.78   425.22   429.09
eigval :      443.49   461.59   470.41   479.40   490.90   501.16
eigval :      503.23   515.98   531.79   564.34   584.89   589.10
eigval :      591.38   592.47   593.70   596.52   598.98   609.75
eigval :      622.02   628.66   656.58   660.22   668.71   671.17
eigval :      673.39   681.91   692.17   703.90   728.36   728.56
eigval :      756.68   757.79   764.23   771.69   776.48   778.99
eigval :      787.21   824.49   864.41   864.84   873.42   874.51
eigval :      876.20   876.98   878.97   887.12   891.01   893.54
eigval :      895.22   904.88   909.42   909.62   910.10   910.87
eigval :      912.39   913.12   920.18   920.48   921.09   927.23
eigval :      927.28   928.57   928.70   929.10   930.00   933.48
eigval :      949.92   957.17   991.75   997.16  1005.04  1031.14
eigval :     1076.41  1078.30  1083.52  1084.47  1091.82  1107.12
eigval :     1108.58  1113.31  1122.28  1124.40  1126.48  1139.66
eigval :     1148.18  1175.86  1178.57  1180.74  1180.85  1180.92
eigval :     1182.62  1184.69  1185.25  1188.24  1196.15  1197.61
eigval :     1207.88  1215.73  1233.11  1235.83  1245.58  1250.84
eigval :     1268.16  1268.92  1273.09  1274.09  1278.76  1284.40
eigval :     1309.43  1317.77  1318.40  1321.62  1325.25  1328.02
eigval :     1328.17  1330.70  1336.70  1345.05  1364.94  1418.58
eigval :     1433.06  1435.12  1436.20  1439.47  1440.44  1444.45
eigval :     1466.22  1469.99  1471.26  1473.62  1478.57  1484.79
eigval :     1496.88  1572.55  1574.28  1578.60  1580.95  1583.53
eigval :     1588.31  1590.75  1592.80  1595.25  1595.58  1598.77
eigval :     1603.14  1604.76  1605.30  3071.52  3074.59  3074.96
eigval :     3075.41  3075.79  3076.21  3077.28  3077.48  3077.95
eigval :     3079.42  3079.97  3080.10  3081.71  3082.61  3085.26
eigval :     3086.00  3087.54  3088.57  3089.11  3089.13  3090.81
eigval :     3091.56  3092.22  3092.67  3093.35  3096.37  3096.87
eigval :     3098.39  3098.78  3099.34

   temp. (K)  partition function   enthalpy   heat capacity  entropy
                                   cal/mol     cal/K/mol   cal/K/mol   J/K/mol
 298.15  VIB  0.676E+17            20463.968    130.965    128.875
         ROT  0.583E+08              888.752      2.981     38.515
         INT  0.394E+25            21352.721    133.946    167.390
         TR   0.133E+29             1481.254      4.968     44.910
         TOT                       22833.9748   138.9139   212.3004   888.2650

       T/K    H(0)-H(T)+PV         H(T)/Eh          T*S/Eh         G(T)/Eh
   ------------------------------------------------------------------------
    298.15    0.363883E-01    0.620710E+00    0.100871E+00    0.519839E+00
   ------------------------------------------------------------------------

         :::::::::::::::::::::::::::::::::::::::::::::::::::::
         ::                  THERMODYNAMIC                  ::
         :::::::::::::::::::::::::::::::::::::::::::::::::::::
         :: total free energy        -112.742563324007 Eh   ::
         ::.................................................::
         :: total energy             -113.262402239949 Eh   ::
         :: zero point energy           0.584321451299 Eh   ::
         :: G(RRHO) w/o ZPVE           -0.064482535356 Eh   ::
         :: G(RRHO) contrib.            0.519838915942 Eh   ::
         :::::::::::::::::::::::::::::::::::::::::::::::::::::

           -------------------------------------------------
          | TOTAL ENERGY             -113.262402239949 Eh   |
          | TOTAL ENTHALPY           -112.641692533656 Eh   |
          | TOTAL FREE ENERGY        -112.742563324007 Eh   |
          | GRADIENT NORM               0.000033395104 Eh/α |
          | HOMO-LUMO GAP               2.609647831125 eV   |
           -------------------------------------------------

 * finished run on 2025/07/19 at 22:17:24.151
