   * xtb version 6.7.1 (edcfbbe) compiled by 'albert@albert-system' on 2024-07-22

   ID    Z sym.   atoms
    1    6 C      1-7, 9-20, 22-26, 28-36, 38-51, 53, 54
    2    8 O      8, 37
    3    7 N      21, 27, 52
    4    1 H      55-89

          program call               : xtb data2507/gas/VBN0/VBN0_gas_S0_finalOpt.xtbopt.xyz --gfn 2 --spinpol --tblite --uhf 2 --ohess vtight --parallel 40 --molden --ceasefiles --namespace data2507/gas/VBN0/VBN0_gas_T1_preOpt
 * total energy  :  -139.5626833 Eh     change        0.3313821E-07 Eh
 * total energy  :  -139.5653400 Eh     change       -0.2656716E-02 Eh
 * total energy  :  -139.5663279 Eh     change       -0.9878737E-03 Eh
 * total energy  :  -139.5664491 Eh     change       -0.1212691E-03 Eh
 * total energy  :  -139.5665328 Eh     change       -0.8367280E-04 Eh
 * total energy  :  -139.5665675 Eh     change       -0.3467910E-04 Eh
 * total energy  :  -139.5665976 Eh     change       -0.3008444E-04 Eh
 * total energy  :  -139.5666097 Eh     change       -0.1208447E-04 Eh
 * total energy  :  -139.5666154 Eh     change       -0.5760379E-05 Eh
 * total energy  :  -139.5666184 Eh     change       -0.3013000E-05 Eh
 * total energy  :  -139.5666411 Eh     change       -0.8642560E-06 Eh
 * total energy  :  -139.5666416 Eh     change       -0.5494167E-06 Eh
 * total energy  :  -139.5666424 Eh     change       -0.7370741E-06 Eh
 * total energy  :  -139.5666431 Eh     change       -0.7044507E-06 Eh
 * total energy  :  -139.5666434 Eh     change       -0.3268869E-06 Eh
 * total energy  :  -139.5666436 Eh     change       -0.2320021E-06 Eh
 * total energy  :  -139.5666438 Eh     change       -0.1481973E-06 Eh
 * total energy  :  -139.5666438 Eh     change        0.1150971E-07 Eh
 * total energy  :  -139.5666438 Eh     change       -0.3529118E-07 Eh
   *** GEOMETRY OPTIMIZATION CONVERGED AFTER 44 ITERATIONS ***

 final structure:
================
89
 xtb: 6.7.1 (edcfbbe)
C           -0.26745510333599        2.75879528893827       -2.22839232062270
C            0.24659559363538        3.84081620753541       -1.65929067722155
C            1.61353865536579        3.93197880900105       -1.15659677510277
C            1.90977095104906        4.77742878055235       -0.08808398270719
C            3.17934020095589        4.81742667774017        0.45433737303837
C            4.19919301487553        4.04250916134050       -0.08459063497308
C            5.56901421138710        4.03502996883124        0.55406480255432
O            6.28137190646337        2.82266111606340        0.37717773294058
C            5.64527418654807        1.65089997360815        0.61817935419574
C            4.44947277303320        1.54783038851546        1.34771534428005
C            3.77544269304506        0.35020284169214        1.43488131107687
C            4.30772714857790       -0.75797491694929        0.78955180321401
C            5.58667889299710       -0.70008116499052        0.17356669043867
C            6.24927010949594        0.50875512505436        0.08080978581977
C            5.86521501359550       -2.03164039463220       -0.28884101527916
C            6.93955520334462       -2.61355835358005       -0.94638466102963
C            6.86503224658420       -3.95543533712045       -1.27977170553573
C            5.73416428204753       -4.71023715565520       -0.98235014211328
C            4.64883715526194       -4.15176643581302       -0.32480351740439
C            4.72905289686856       -2.81707678136739        0.03521267999090
N            3.79789580356770       -2.02469157715289        0.68170094876123
C            2.48508935406445       -2.37881654309688        1.00684503955854
C            2.20766093531400       -3.49524892090304        1.75843937690256
C            0.89055478622529       -3.83554320983192        2.08021751345357
C           -0.16066986366275       -3.02000574711114        1.64725893953965
C            0.07762906091748       -1.89490736325811        0.89378905856261
N           -0.97945477190198       -1.08223869806642        0.47027010249039
C           -1.07738409756529        0.28584477700565        0.64447770519666
C           -0.21235911697502        1.15967051791336        1.28178966653814
C           -0.57732028535160        2.49213333698761        1.36336809747520
C           -1.78102262701220        2.94471217839508        0.83274178996127
C           -2.65729924319068        2.07651515423236        0.20565834615339
C           -2.31019557291401        0.73693807016175        0.10997558586064
C           -2.97043025920181       -0.42060151563228       -0.42110506155333
C           -4.18074780535167       -0.60206505807128       -1.07378444971262
C           -4.52372235144098       -1.88695810442834       -1.48220417864696
O           -5.66927458439308       -2.21357777092722       -2.13151812221990
C           -6.57904712498832       -1.18870224347562       -2.47389244458893
C           -7.23454565708868       -0.52015049189502       -1.29044783298597
C           -7.64491696309840        0.80571370767573       -1.36838182381851
C           -8.26005340931729        1.41026412980517       -0.29207226652006
C           -8.48129200358080        0.71594627134460        0.90078379433513
C           -9.13341551487309        1.40317289648337        2.00496257023617
C           -9.42510490342216        0.89665694841117        3.19922074949434
C           -8.06193559604016       -0.61501211843409        0.96728232512081
C           -7.45384365656503       -1.22226464753500       -0.11131109290386
C           -3.65223106254300       -2.96898461273999       -1.24725320602284
C           -2.44940643238893       -2.80067698129820       -0.60069571711228
C           -2.11053093621817       -1.52149004838187       -0.17113042046814
C            1.41846609175598       -1.54647780216091        0.50399041216859
C            1.64921022554380       -0.57189762105840       -0.44432402381181
N            1.83275711806123        0.25196087669493       -1.24314064921439
C            3.92609808423047        3.25355967468743       -1.19526099265897
C            2.64984775063478        3.18589195311817       -1.71461466691855
H            0.30444231342296        1.85328483456909       -2.33670523336698
H           -1.28856029557687        2.73013370172096       -2.56985102908294
H           -0.36720546779016        4.72089955647609       -1.50676288500458
H            1.12587169218196        5.38505631370665        0.34257358698300
H            3.38204492095915        5.45054274668769        1.30802230589455
H            5.48510764684812        4.27341266907725        1.62415811425865
H            6.21353600594328        4.79096231950989        0.09036446236385
H            4.03535303880738        2.41460221243246        1.83461942359312
H            2.85661732564794        0.27983688735964        1.99461483575240
H            7.19471910867629        0.60374743474592       -0.42843350525265
H            7.81147934173057       -2.02813074582800       -1.19439706020472
H            7.69303206148450       -4.42508186710814       -1.78941488091385
H            5.69858839572418       -5.74951588777376       -1.27186186158885
H            3.76796022094687       -4.73698922172902       -0.11014816230701
H            3.02476348726378       -4.09119159957019        2.13810609786821
H            0.68843624555366       -4.69760288909424        2.69317318521275
H           -1.17433023917222       -3.25087756933241        1.94101229744376
H            0.71581023708001        0.81790695780727        1.70914437961158
H            0.08589239684254        3.18975569723252        1.85105104298627
H           -2.03707481846255        3.99000575520210        0.91911619370559
H           -3.59659158805132        2.42842346759351       -0.19369845008934
H           -4.82820283422523        0.24214961057175       -1.24352551909638
H           -7.34077409572180       -1.69887909324196       -3.07561067666162
H           -6.08711106871457       -0.43926035480244       -3.10959221628382
H           -7.48060004028182        1.36417703073021       -2.27988658869721
H           -8.57450967865335        2.44161993062729       -0.36962235552500
H           -9.39780362160286        2.43348072400161        1.79791156699663
H           -9.91343526735109        1.48995689005814        3.95297547788792
H           -9.19362356975842       -0.11723723410528        3.47632713516066
H           -8.21566259937087       -1.18343691277863        1.87098892608069
H           -7.13742097150894       -2.25317521442940       -0.04439039735963
H           -3.95731203518662       -3.94036688360158       -1.60154883159132
H           -1.78529077131185       -3.63639932078105       -0.44429312422851
H            4.71502980113774        2.66998363587820       -1.64632456996205
H            2.45393210367608        2.54739693815318       -2.55929935454863

 projected vibrational frequencies (cm⁻¹)
eigval :       -0.00    -0.00    -0.00     0.00     0.00     0.00
eigval :        8.97    10.90    12.99    17.58    23.70    27.31
eigval :       34.48    35.83    45.64    52.61    57.62    57.78
eigval :       72.16    82.41    83.04    93.01    97.48   101.90
eigval :      112.20   119.98   122.55   131.74   134.95   153.17
eigval :      160.28   164.51   168.84   195.28   205.79   218.61
eigval :      222.58   230.99   238.70   250.29   252.23   257.12
eigval :      275.79   288.55   293.89   310.60   314.10   317.17
eigval :      331.26   344.78   364.49   368.94   378.23   381.45
eigval :      387.14   388.80   391.86   399.22   412.27   415.43
eigval :      421.26   422.20   426.84   440.76   447.60   448.90
eigval :      478.13   487.68   494.35   503.40   511.83   523.81
eigval :      532.44   540.95   556.31   564.55   572.09   574.13
eigval :      585.60   587.54   594.93   597.95   603.71   608.44
eigval :      612.40   612.98   621.14   630.77   639.72   655.48
eigval :      669.53   672.27   691.80   694.21   699.08   700.07
eigval :      706.09   717.54   724.90   739.12   743.53   750.72
eigval :      752.81   760.52   767.87   798.15   805.79   808.11
eigval :      809.80   834.87   842.12   844.31   849.69   853.37
eigval :      854.36   857.05   860.11   863.97   865.08   866.63
eigval :      879.53   881.46   883.75   886.30   893.64   895.11
eigval :      898.66   902.40   910.88   911.87   913.43   914.51
eigval :      918.19   919.84   923.60   924.51   981.27   986.14
eigval :      999.91  1000.72  1002.75  1005.02  1011.74  1013.58
eigval :     1027.14  1034.11  1035.67  1037.05  1049.04  1057.71
eigval :     1065.36  1070.99  1074.68  1097.69  1124.97  1131.35
eigval :     1145.03  1148.27  1149.42  1166.01  1168.29  1173.74
eigval :     1178.80  1181.19  1187.45  1194.36  1195.56  1199.72
eigval :     1200.59  1203.00  1208.89  1213.97  1223.04  1227.39
eigval :     1230.00  1244.41  1246.11  1248.57  1251.28  1263.64
eigval :     1265.99  1268.62  1271.83  1278.09  1283.51  1293.58
eigval :     1298.47  1304.16  1312.33  1317.77  1324.36  1336.01
eigval :     1342.13  1342.70  1344.57  1353.25  1359.93  1365.07
eigval :     1370.89  1404.95  1406.25  1408.25  1410.60  1412.17
eigval :     1415.70  1419.18  1428.67  1449.84  1451.72  1457.44
eigval :     1458.33  1465.81  1468.32  1478.80  1483.07  1486.79
eigval :     1491.84  1526.05  1536.47  1545.24  1552.23  1557.45
eigval :     1561.08  1568.87  1570.26  1571.48  1575.84  1595.58
eigval :     1599.17  1657.11  1675.22  2180.94  2874.70  2884.15
eigval :     2931.27  2934.34  3035.64  3043.12  3056.06  3062.10
eigval :     3071.61  3076.24  3079.72  3080.26  3080.37  3081.96
eigval :     3082.03  3086.76  3088.66  3089.03  3095.35  3095.56
eigval :     3097.52  3098.48  3100.42  3100.89  3103.99  3110.47
eigval :     3111.84  3113.37  3113.70  3114.47  3118.21  3124.49
eigval :     3124.97  3132.59  3137.21

   temp. (K)  partition function   enthalpy   heat capacity  entropy
                                   cal/mol     cal/K/mol   cal/K/mol   J/K/mol
 298.15  VIB  0.242E+22            26926.811    167.256    168.601
         ROT  0.108E+09              888.752      2.981     39.732
         INT  0.261E+30            27815.563    170.237    208.333
         TR   0.178E+29             1481.254      4.968     45.488
         TOT                       29296.8171   175.2049   253.8213  1061.9885

       T/K    H(0)-H(T)+PV         H(T)/Eh          T*S/Eh         G(T)/Eh
   ------------------------------------------------------------------------
    298.15    0.466874E-01    0.723917E+00    0.120599E+00    0.603318E+00
   ------------------------------------------------------------------------

         :::::::::::::::::::::::::::::::::::::::::::::::::::::
         ::                  THERMODYNAMIC                  ::
         :::::::::::::::::::::::::::::::::::::::::::::::::::::
         :: total free energy        -138.963325530955 Eh   ::
         ::.................................................::
         :: total energy             -139.566643791920 Eh   ::
         :: zero point energy           0.677229520871 Eh   ::
         :: G(RRHO) w/o ZPVE           -0.073911259905 Eh   ::
         :: G(RRHO) contrib.            0.603318260966 Eh   ::
         :::::::::::::::::::::::::::::::::::::::::::::::::::::

           -------------------------------------------------
          | TOTAL ENERGY             -139.566643791920 Eh   |
          | TOTAL ENTHALPY           -138.842726821207 Eh   |
          | TOTAL FREE ENERGY        -138.963325530955 Eh   |
          | GRADIENT NORM               0.000159588602 Eh/α |
           -------------------------------------------------

 * finished run on 2025/07/19 at 14:39:47.659
