   * xtb version 6.7.1 (edcfbbe) compiled by 'albert@albert-system' on 2024-07-22

   ID    Z sym.   atoms
    1    6 C      1-7, 9-20, 22-26, 28-36, 38-51, 53, 54
    2    8 O      8, 37
    3    7 N      21, 27, 52
    4    1 H      55-89

          program call               : xtb data2507/gas/VBN0/VBN0_gas_T1_crest.xyz --gfn 2 --spinpol --tblite --uhf 2 --ohess vtight --parallel 40 --molden --ceasefiles --namespace data2507/gas/VBN0/VBN0_gas_T1_finalOpt
 * total energy  :  -139.5665636 Eh     change       -0.2994906E-07 Eh
 * total energy  :  -139.5666006 Eh     change       -0.3695522E-04 Eh
 * total energy  :  -139.5666299 Eh     change       -0.2934380E-04 Eh
 * total energy  :  -139.5666334 Eh     change       -0.3427780E-05 Eh
 * total energy  :  -139.5666366 Eh     change       -0.3245096E-05 Eh
 * total energy  :  -139.5666390 Eh     change       -0.2392793E-05 Eh
 * total energy  :  -139.5666409 Eh     change       -0.1900764E-05 Eh
 * total energy  :  -139.5666425 Eh     change       -0.1568662E-05 Eh
 * total energy  :  -139.5666427 Eh     change       -0.1921737E-06 Eh
 * total energy  :  -139.5666445 Eh     change       -0.1817126E-05 Eh
 * total energy  :  -139.5666789 Eh     change       -0.4912633E-06 Eh
 * total energy  :  -139.5666795 Eh     change       -0.6673331E-06 Eh
 * total energy  :  -139.5666803 Eh     change       -0.7570851E-06 Eh
 * total energy  :  -139.5666810 Eh     change       -0.7021876E-06 Eh
 * total energy  :  -139.5666814 Eh     change       -0.4474178E-06 Eh
 * total energy  :  -139.5666819 Eh     change       -0.4150119E-06 Eh
 * total energy  :  -139.5666823 Eh     change       -0.4882631E-06 Eh
 * total energy  :  -139.5666825 Eh     change       -0.1117612E-06 Eh
 * total energy  :  -139.5666825 Eh     change       -0.8235943E-07 Eh
   *** GEOMETRY OPTIMIZATION CONVERGED AFTER 45 ITERATIONS ***

 final structure:
================
89
 xtb: 6.7.1 (edcfbbe)
C           -0.27511478640821        2.72591844627670       -2.25377018669551
C            0.23369796912949        3.81572825131285       -1.69488265635656
C            1.60051002252970        3.91908491595786       -1.19424462485190
C            1.89346249096272        4.77802967873069       -0.13558329014251
C            3.16329300026259        4.83059910715607        0.40517531817104
C            4.18667771767562        4.05521087850390       -0.12626607338303
C            5.55727468141513        4.06231050013716        0.51068840513668
O            6.27715410990976        2.85314473325684        0.34311062334142
C            5.64873489633784        1.67947356134222        0.59526989474700
C            4.45613979613570        1.57495347919713        1.32970666588064
C            3.79044156985056        0.37365323241632        1.43013053244774
C            4.32801780041228       -0.73663000177903        0.79284464272220
C            5.60320843048941       -0.67522367884904        0.16969178689231
C            6.25757277364918        0.53698280197925        0.06421512828413
C            5.88856702994522       -2.00876120935048       -0.28303011855452
C            6.96265528915105       -2.58857963329066       -0.94271784529659
C            6.89575988534785       -3.93391626823080       -1.26364177931437
C            5.77279878419047       -4.69445420760708       -0.95127882935922
C            4.68779259529932       -4.13813785924821       -0.29151363852066
C            4.76030355405498       -2.79943758754157        0.05519078712297
N            3.82739414628037       -2.00810674230032        0.69991608664211
C            2.51971220934209       -2.36977815057363        1.03836853745508
C            2.25858344587860       -3.47680384188379        1.80909419649358
C            0.94679407074308       -3.82378781944714        2.14639854134215
C           -0.11445646635500       -3.02531824384095        1.70767491750224
C            0.10749836441859       -1.91059974607058        0.93338828539838
N           -0.96141095374309       -1.11829642497226        0.50223845454235
C           -1.07434019098084        0.25215611152703        0.64808330773651
C           -0.21378797245080        1.15033839332730        1.25695669952841
C           -0.59549347012454        2.47944364929439        1.31512793162315
C           -1.81076739754649        2.90535473496420        0.78872399863748
C           -2.68235831350296        2.01307931103390        0.18959252348331
C           -2.31890384362359        0.67622071997657        0.11827291653712
C           -2.97103594631743       -0.50048008303150       -0.37918332417233
C           -4.18774730467266       -0.71117718126984       -1.01111646759688
C           -4.52121614218449       -2.00931503883278       -1.38392896170326
O           -5.67315236544905       -2.36517300216711       -2.00609286650732
C           -6.59948948883495       -1.35984338541519       -2.36107684180693
C           -7.24022350600395       -0.66152973096174       -1.18669707599472
C           -7.68001355167562        0.65259807006790       -1.30529120368603
C           -8.28044566331111        1.29330282597333       -0.24210510181964
C           -8.45590473426595        0.64287033323691        0.98218150459979
C           -9.07943564573441        1.27321181954413        2.13575925026129
C           -9.61133920427647        2.49066227372712        2.18936354884888
C           -8.00637310010324       -0.67586304004113        1.08992722724881
C           -7.41432496134595       -1.32044045474591        0.02369364975610
C           -3.63286953165050       -3.07510329086901       -1.13786315592583
C           -2.42306053124472       -2.87752206627950       -0.51285071248024
C           -2.09465871748374       -1.58522425169537       -0.11570816211585
C            1.44260632480827       -1.55519347228474        0.52985669820624
C            1.66002907998469       -0.59193686131413       -0.43321131081809
N            1.83410214985670        0.22318678883825       -1.24307626678152
C            3.91653610141769        3.25236569566274       -1.22768535895878
C            2.64008087581759        3.17189331741683       -1.74464804804272
H            0.30106563622281        1.82220930908173       -2.35408976529141
H           -1.29654830853890        2.68879209446526       -2.59339722603941
H           -0.38479753776401        4.69373959876044       -1.54953765318499
H            1.10696984006215        5.38673462354158        0.28883847231261
H            3.36351770636264        5.47425180123034        1.25152620817119
H            5.47311671814470        4.30937474074758        1.57879941249996
H            6.19621456604880        4.81847161292970        0.03969843749991
H            4.03800037909788        2.44331102151141        1.81037170288745
H            2.87410861170697        0.30198789696684        1.99388659127680
H            7.20021815869549        0.63390455632944       -0.44983573623804
H            7.82846748399908       -1.99900102576395       -1.20205218485038
H            7.72359946108300       -4.40193150141671       -1.77504438373292
H            5.74323606264209       -5.73664982836234       -1.23083618715172
H            3.81289487159221       -4.72785830948689       -0.06494966862239
H            3.08402660178021       -4.05937736613298        2.19145011905780
H            0.75712779307271       -4.67748657909883        2.77483787743938
H           -1.12379022903983       -3.26036415993645        2.01281179409985
H            0.72396381911883        0.83035380403299        1.68019725920964
H            0.06396178362484        3.19549907245851        1.78060114938675
H           -2.07955875943480        3.94883326356915        0.85614875381720
H           -3.63056209701144        2.34427697887223       -0.20642507768496
H           -4.84747805156287        0.12128321068423       -1.19143528130273
H           -7.36681883361088       -1.89475741465574       -2.93348981046997
H           -6.12663653229493       -0.62490445487868       -3.02756088354897
H           -7.54830672603603        1.17550029845287       -2.24291369230874
H           -8.61034882308790        2.31334963911255       -0.36209218521611
H           -9.10090959779031        0.65588274433026        3.02599848566103
H          -10.05389182196799        2.86703758587713        3.09549542905198
H           -9.63226150118844        3.15737667006477        1.34462528747564
H           -8.12987853387775       -1.20156881086479        2.02621772693322
H           -7.07622630898272       -2.34143231355940        0.12565862477178
H           -3.93079981433475       -4.05789465230934       -1.46574124462064
H           -1.74627298574817       -3.70140147857985       -0.34825686250733
H            4.70805278811353        2.66813975962308       -1.67331535859873
H            2.44663657871287        2.52244304105571       -2.58154469458066

 projected vibrational frequencies (cm⁻¹)
eigval :       -0.00    -0.00    -0.00     0.00     0.00     0.00
eigval :        9.18    11.03    13.09    17.62    24.49    27.34
eigval :       33.19    38.88    45.32    52.47    57.23    57.84
eigval :       71.63    81.80    83.92    92.90    97.81   101.45
eigval :      112.65   119.98   122.40   131.79   134.60   153.39
eigval :      159.80   166.72   169.37   196.94   203.95   218.75
eigval :      219.83   231.06   234.85   248.93   250.34   254.38
eigval :      275.96   289.39   296.29   307.33   313.81   325.70
eigval :      331.91   347.98   364.76   369.34   378.12   382.25
eigval :      387.13   389.93   393.30   402.05   412.27   414.42
eigval :      415.85   421.70   426.77   441.02   447.15   448.74
eigval :      477.91   486.78   492.82   501.45   510.05   523.79
eigval :      532.57   541.17   556.70   564.58   572.99   574.86
eigval :      585.57   587.58   594.89   598.02   603.63   607.95
eigval :      612.93   613.28   623.32   631.72   640.24   655.59
eigval :      669.44   672.40   691.87   694.18   699.18   699.94
eigval :      706.04   717.47   724.80   738.92   741.50   750.91
eigval :      752.82   760.53   768.00   798.44   805.90   808.11
eigval :      809.82   834.82   842.40   844.33   849.81   853.49
eigval :      854.50   857.08   860.20   864.50   865.30   866.68
eigval :      879.39   881.50   883.97   886.49   893.50   895.12
eigval :      898.67   902.70   910.79   911.24   913.58   914.59
eigval :      918.27   919.93   924.06   924.58   981.35   986.02
eigval :     1000.72  1001.82  1002.56  1005.14  1011.81  1013.69
eigval :     1026.61  1032.69  1035.10  1037.16  1049.28  1059.05
eigval :     1065.61  1071.27  1074.61  1098.18  1124.98  1130.86
eigval :     1145.16  1148.33  1149.23  1166.09  1168.27  1173.84
eigval :     1178.70  1181.47  1187.36  1194.37  1195.65  1199.92
eigval :     1200.61  1202.94  1208.89  1214.08  1223.14  1227.54
eigval :     1229.84  1244.36  1246.15  1248.67  1251.03  1263.18
eigval :     1265.79  1268.77  1274.69  1278.27  1283.75  1293.64
eigval :     1297.69  1304.42  1312.37  1317.94  1323.49  1336.01
eigval :     1342.07  1342.72  1344.33  1353.31  1360.12  1365.01
eigval :     1370.79  1405.11  1406.22  1407.33  1410.56  1412.11
eigval :     1416.23  1419.61  1428.81  1449.24  1451.88  1457.23
eigval :     1458.43  1465.91  1467.89  1479.00  1482.97  1486.79
eigval :     1491.78  1525.84  1536.53  1544.76  1554.03  1557.57
eigval :     1559.61  1568.59  1570.64  1571.80  1575.53  1595.60
eigval :     1599.17  1657.03  1675.24  2180.49  2874.58  2883.35
eigval :     2931.24  2934.38  3035.68  3044.33  3056.11  3063.79
eigval :     3071.43  3071.89  3079.70  3080.36  3080.42  3082.01
eigval :     3086.94  3087.41  3088.56  3089.21  3095.45  3095.56
eigval :     3097.49  3098.13  3098.17  3100.85  3104.12  3110.47
eigval :     3111.32  3113.56  3113.72  3114.53  3117.93  3124.24
eigval :     3124.71  3131.94  3137.30

   temp. (K)  partition function   enthalpy   heat capacity  entropy
                                   cal/mol     cal/K/mol   cal/K/mol   J/K/mol
 298.15  VIB  0.220E+22            26924.525    167.275    168.552
         ROT  0.108E+09              888.752      2.981     39.740
         INT  0.238E+30            27813.277    170.256    208.293
         TR   0.178E+29             1481.254      4.968     45.488
         TOT                       29294.5314   175.2238   253.7810  1061.8197

       T/K    H(0)-H(T)+PV         H(T)/Eh          T*S/Eh         G(T)/Eh
   ------------------------------------------------------------------------
    298.15    0.466838E-01    0.723927E+00    0.120580E+00    0.603347E+00
   ------------------------------------------------------------------------

         :::::::::::::::::::::::::::::::::::::::::::::::::::::
         ::                  THERMODYNAMIC                  ::
         :::::::::::::::::::::::::::::::::::::::::::::::::::::
         :: total free energy        -138.963335591527 Eh   ::
         ::.................................................::
         :: total energy             -139.566682603142 Eh   ::
         :: zero point energy           0.677242750364 Eh   ::
         :: G(RRHO) w/o ZPVE           -0.073895738749 Eh   ::
         :: G(RRHO) contrib.            0.603347011615 Eh   ::
         :::::::::::::::::::::::::::::::::::::::::::::::::::::

           -------------------------------------------------
          | TOTAL ENERGY             -139.566682603142 Eh   |
          | TOTAL ENTHALPY           -138.842756045507 Eh   |
          | TOTAL FREE ENERGY        -138.963335591527 Eh   |
          | GRADIENT NORM               0.000097931480 Eh/α |
           -------------------------------------------------

 * finished run on 2025/07/19 at 15:00:38.008
