   * xtb version 6.7.1 (edcfbbe) compiled by 'albert@albert-system' on 2024-07-22

   ID    Z sym.   atoms
    1    6 C      1-7, 9-20, 22-26, 28-36, 38-51, 53, 54
    2    8 O      8, 37
    3    7 N      21, 27, 52
    4    1 H      55-89

          program call               : xtb data2507/gas/VBN0/VBN0.xyz --gfn 2 --ohess vtight --parallel 40 --molden --ceasefiles --namespace data2507/gas/VBN0/VBN0_gas_S0_preOpt
          :  Hamiltonian                  GFN2-xTB          :
 * total energy  :  -139.6268669 Eh     change       -0.3161347E-08 Eh
 * total energy  :  -139.6424134 Eh     change       -0.1554647E-01 Eh
 * total energy  :  -139.6454934 Eh     change       -0.3080001E-02 Eh
 * total energy  :  -139.6462081 Eh     change       -0.7146985E-03 Eh
 * total energy  :  -139.6470110 Eh     change       -0.8029483E-03 Eh
 * total energy  :  -139.6474329 Eh     change       -0.4219177E-03 Eh
 * total energy  :  -139.6477184 Eh     change       -0.2854243E-03 Eh
 * total energy  :  -139.6478954 Eh     change       -0.1770369E-03 Eh
 * total energy  :  -139.6480199 Eh     change       -0.1245348E-03 Eh
 * total energy  :  -139.6481382 Eh     change       -0.1182848E-03 Eh
 * total energy  :  -139.6505903 Eh     change       -0.3332279E-06 Eh
 * total energy  :  -139.6505907 Eh     change       -0.3824380E-06 Eh
 * total energy  :  -139.6505911 Eh     change       -0.4933554E-06 Eh
 * total energy  :  -139.6505915 Eh     change       -0.3635378E-06 Eh
 * total energy  :  -139.6505915 Eh     change       -0.2898219E-08 Eh
 * total energy  :  -139.6505918 Eh     change       -0.2814731E-06 Eh
 * total energy  :  -139.6505920 Eh     change       -0.2368828E-06 Eh
 * total energy  :  -139.6505923 Eh     change       -0.2260508E-06 Eh
 * total energy  :  -139.6505923 Eh     change       -0.2841392E-07 Eh
   *** GEOMETRY OPTIMIZATION CONVERGED AFTER 132 ITERATIONS ***

 final structure:
================
89
 xtb: 6.7.1 (edcfbbe)
C           14.29376933672229        2.32679524427342        0.41329451321461
C           13.30697982415492        1.94799029552224       -0.39015086645619
C           11.89858352326577        1.80952371152929       -0.04067316006627
C           11.39108738723095        2.11984989987918        1.22160298409653
C           10.04904867914556        1.96336982449280        1.50369278891336
C            9.16900975146798        1.50005463708955        0.53384712171363
C            7.70179082405410        1.35255353070950        0.83713868372070
O            7.20363255108995        0.22728429617319        0.14805347255497
C            5.88497360423175       -0.09796028851931        0.27122440039688
C            4.95964852511291        0.61832699513084        1.03512817154792
C            3.63518696069440        0.22135261689119        1.11683700340821
C            3.24325812200445       -0.91359505147529        0.43151032906337
C            4.16386960138960       -1.63244178434401       -0.36305693119157
C            5.48340025638982       -1.22553010305463       -0.43981084876770
C            3.43169419705776       -2.71708155758335       -0.95821128255815
C            3.79536673013785       -3.76439232411321       -1.79336027045345
C            2.83310372773233       -4.68633727334175       -2.15384352230868
C            1.52980288042111       -4.58480565270032       -1.67471962807650
C            1.14488338029797       -3.55152736392001       -0.84185321674699
C            2.09826062606422       -2.60213299294496       -0.50788694270214
N            1.99166779225871       -1.50103647966676        0.32540220672846
C            0.84181064186635       -1.07920772825393        0.98912311763992
C            0.86033437061106       -0.89751396253035        2.36845395845715
C           -0.28917888135286       -0.52020058189460        3.03851746597800
C           -1.46984527953481       -0.30927752109847        2.34899702424148
C           -1.50989426055437       -0.45541058920399        0.96657483678370
N           -2.69896982813022       -0.22507697854685        0.27604562804963
C           -2.88221612535115        0.63921617902407       -0.78815026781596
C           -1.99044158065972        1.53062263017632       -1.36442959745621
C           -2.44956193993075        2.31875070338550       -2.40201828911014
C           -3.76630541360953        2.23899212876123       -2.84872966328868
C           -4.66656127370875        1.37660319545145       -2.25639101763660
C           -4.22766197878745        0.57141180047017       -1.21379234642325
C           -4.87975749920244       -0.38813302114391       -0.36686603730661
C           -6.17721781026788       -0.88500995501716       -0.33188125262936
C           -6.48902625916573       -1.83954402454276        0.62254505961762
O           -7.71670603181647       -2.42227192767636        0.77321720248558
C           -8.71842147720393       -2.13065528994514       -0.17437235467070
C           -9.24629101778039       -0.71808947068359       -0.11405394015020
C           -9.21243021685360        0.00238322463282        1.07286372311871
C           -9.70882572802345        1.28870361302271        1.13051702312125
C          -10.26401835881574        1.89399279303004        0.00268380050222
C          -10.81094255855521        3.24515196172447        0.00993921830929
C          -10.96473541330640        4.03437366453998        1.06633623373873
C          -10.29217792896447        1.16138383126812       -1.18576794972002
C           -9.79107183011008       -0.12303021372427       -1.24515449330823
C           -5.51160668123532       -2.28999639274793        1.52271548416829
C           -4.22112088315691       -1.80767080610299        1.49446450259799
C           -3.90956876724474       -0.84333656274231        0.54758198446469
C           -0.34793865507207       -0.84439280907791        0.27656772331815
C           -0.37611822854451       -0.99786027383473       -1.12821339093547
N           -0.39755549580497       -1.11611975729140       -2.26863412764916
C            9.66197790295096        1.19414448881189       -0.72766890119617
C           11.00517129776169        1.34373529875779       -1.00707247520051
H           14.14042677502423        2.57922376846573        1.44842468404552
H           15.30776785218547        2.39679044921964        0.05858337787441
H           13.53746063596196        1.70389498194011       -1.42041018021557
H           12.05087635053745        2.48416572218485        1.99351015142287
H            9.67835558750945        2.20476896119357        2.49022353155284
H            7.17116617178168        2.26274539098194        0.51026302406721
H            7.55366461957829        1.23876010407704        1.92077983979708
H            5.26248301984621        1.50170374854069        1.57447101328392
H            2.93396332433667        0.79890697888417        1.70067663537188
H            6.20658839712226       -1.75669847655467       -1.03667001009828
H            4.81204574512023       -3.85339594251274       -2.14428317772129
H            3.09290214975352       -5.50624853206844       -2.80645731217211
H            0.80242961269860       -5.33122394482465       -1.95630423323857
H            0.13455060626103       -3.49804871339187       -0.46509667298583
H            1.77620182403239       -1.08306538103041        2.90786249327194
H           -0.26596559066135       -0.39330832517386        4.11016553924130
H           -2.36576809694170       -0.00756191526087        2.86905057759846
H           -0.97145069698183        1.61523452602758       -1.01760098253839
H           -1.77216944998646        3.01461245078818       -2.87368001330877
H           -4.08555197699864        2.87104225961508       -3.66382362018872
H           -5.69334969063136        1.33022664795158       -2.58666547588510
H           -6.90609027102884       -0.51826512071665       -1.03565965586163
H           -9.52875706526171       -2.82936576085099        0.06730961530276
H           -8.36381887037749       -2.35905130706928       -1.18981164303125
H           -8.78576039644458       -0.45427630528479        1.95399432438270
H           -9.66121231098358        1.82825492062462        2.06345761469349
H          -11.12424248742833        3.60651478743567       -0.96241263330064
H          -11.38577452863925        5.02053376737682        0.97110174207234
H          -10.68607795628140        3.73687313141445        2.06262547848574
H          -10.71368933795829        1.60971190418738       -2.07454072278801
H           -9.82049819785960       -0.67138341305706       -2.17675270714179
H           -5.80097142522316       -3.04052786047824        2.24106430837640
H           -3.48017870207281       -2.18307963304490        2.18415214100783
H            8.98409179589626        0.82811359768865       -1.48307896957410
H           11.37420649269142        1.09649570591161       -1.99258496988365

          :  Hamiltonian                  GFN2-xTB          :
         :: gradient norm              0.000163929113 Eh/a0 ::
         :: HOMO-LUMO gap              2.167874459131 eV    ::
         :: SCC energy              -142.182622165334 Eh    ::
         :: -> dispersion             -0.118751621734 Eh    ::
         :: repulsion energy           2.532029878678 Eh    ::

    * Orbital Energies and Occupations

         #    Occupation            Energy/Eh            Energy/eV
      -------------------------------------------------------------
         1        2.0000           -0.7120263             -19.3752
       ...           ...                  ...                  ...
       117        2.0000           -0.4191057             -11.4044
       118        2.0000           -0.4179379             -11.3727
       119        2.0000           -0.4172107             -11.3529
       120        2.0000           -0.4085475             -11.1171
       121        2.0000           -0.4065746             -11.0635
       122        2.0000           -0.3958896             -10.7727
       123        2.0000           -0.3953120             -10.7570
       124        2.0000           -0.3843704             -10.4593
       125        2.0000           -0.3833145             -10.4305
       126        2.0000           -0.3798131             -10.3352
       127        2.0000           -0.3778333             -10.2814
       128        2.0000           -0.3596938              -9.7878
       129        2.0000           -0.3593069              -9.7772 (HOMO)
       130                         -0.2796390              -7.6094 (LUMO)
       131                         -0.2561275              -6.9696
       132                         -0.2540562              -6.9132
       133                         -0.2530953              -6.8871
       134                         -0.2467306              -6.7139
       135                         -0.2445780              -6.6553
       136                         -0.2256190              -6.1394
       137                         -0.2236625              -6.0862
       138                         -0.2203946              -5.9972
       139                         -0.2193100              -5.9677
       140                         -0.2079156              -5.6577
       ...                                ...                  ...
       251                          1.1685756              31.7986
      -------------------------------------------------------------
                  HL-Gap            0.0796679 Eh            2.1679 eV

     #   Z          covCN         q      C6AA      α(0)
     1   6 C        2.837    -0.086    30.141     8.997
     2   6 C        2.896    -0.030    28.743     8.790
     3   6 C        2.970     0.014    27.703     8.633
     4   6 C        2.923    -0.032    28.810     8.802
     5   6 C        2.921    -0.039    28.976     8.827
     6   6 C        2.969     0.006    27.892     8.663
     7   6 C        3.697     0.085    19.322     6.287
     8   8 O        1.706    -0.274    18.550     5.815
     9   6 C        2.862     0.135    25.039     8.202
    10   6 C        2.921    -0.069    29.719     8.940
    11   6 C        2.910    -0.052    29.294     8.875
    12   6 C        3.068     0.037    27.097     8.536
    13   6 C        3.064    -0.012    28.242     8.715
    14   6 C        2.914    -0.058    29.429     8.896
    15   6 C        3.068    -0.013    28.266     8.718
    16   6 C        2.913    -0.031    28.764     8.795
    17   6 C        2.920    -0.038    28.937     8.821
    18   6 C        2.925    -0.029    28.720     8.788
    19   6 C        2.910    -0.044    29.104     8.846
    20   6 C        3.069     0.050    26.817     8.491
    21   7 N        2.801    -0.047    22.137     6.988
    22   6 C        2.916     0.074    26.339     8.416
    23   6 C        2.921    -0.048    29.188     8.860
    24   6 C        2.917    -0.023    28.589     8.768
    25   6 C        2.921    -0.048    29.183     8.859
    26   6 C        2.917     0.074    26.337     8.416
    27   7 N        2.803    -0.047    22.140     6.988
    28   6 C        3.071     0.049    26.831     8.493
    29   6 C        2.910    -0.044    29.104     8.846
    30   6 C        2.925    -0.029    28.731     8.790
    31   6 C        2.920    -0.038    28.946     8.823
    32   6 C        2.913    -0.031    28.771     8.796
    33   6 C        3.070    -0.014    28.292     8.721
    34   6 C        3.068    -0.015    28.314     8.725
    35   6 C        2.911    -0.068    29.703     8.937
    36   6 C        2.865     0.136    25.023     8.200
    37   8 O        1.705    -0.278    18.604     5.824
    38   6 C        3.699     0.078    19.428     6.304
    39   6 C        2.968    -0.001    28.050     8.687
    40   6 C        2.921    -0.031    28.774     8.797
    41   6 C        2.923    -0.033    28.811     8.802
    42   6 C        2.971     0.013    27.711     8.635
    43   6 C        2.896    -0.030    28.749     8.791
    44   6 C        2.837    -0.086    30.133     8.996
    45   6 C        2.928    -0.034    28.845     8.808
    46   6 C        2.921    -0.041    29.011     8.833
    47   6 C        2.926    -0.057    29.408     8.893
    48   6 C        2.909    -0.050    29.251     8.868
    49   6 C        3.074     0.037    27.094     8.534
    50   6 C        2.975    -0.012    28.302     8.726
    51   6 C        1.909     0.120    28.145     8.568
    52   7 N        0.911    -0.234    26.139     7.394
    53   6 C        2.921    -0.030    28.744     8.792
    54   6 C        2.928    -0.034    28.842     8.807
    55   1 H        0.926     0.039     2.458     2.452
    56   1 H        0.926     0.038     2.479     2.462
    57   1 H        0.925     0.035     2.513     2.479
    58   1 H        0.926     0.039     2.465     2.455
    59   1 H        0.926     0.029     2.607     2.525
    60   1 H        0.923     0.032     2.554     2.499
    61   1 H        0.923     0.030     2.589     2.516
    62   1 H        0.926     0.033     2.550     2.497
    63   1 H        0.926     0.029     2.601     2.522
    64   1 H        0.926     0.051     2.304     2.374
    65   1 H        0.926     0.036     2.496     2.471
    66   1 H        0.926     0.033     2.540     2.492
    67   1 H        0.926     0.035     2.514     2.479
    68   1 H        0.926     0.024     2.679     2.560
    69   1 H        0.926     0.050     2.325     2.385
    70   1 H        0.926     0.047     2.360     2.402
    71   1 H        0.926     0.050     2.319     2.381
    72   1 H        0.926     0.023     2.690     2.565
    73   1 H        0.926     0.034     2.524     2.484
    74   1 H        0.926     0.032     2.556     2.500
    75   1 H        0.926     0.033     2.546     2.495
    76   1 H        0.926     0.039     2.462     2.454
    77   1 H        0.924     0.057     2.234     2.337
    78   1 H        0.923     0.033     2.539     2.492
    79   1 H        0.926     0.041     2.433     2.439
    80   1 H        0.926     0.038     2.478     2.462
    81   1 H        0.925     0.035     2.523     2.484
    82   1 H        0.926     0.038     2.480     2.462
    83   1 H        0.926     0.040     2.453     2.449
    84   1 H        0.926     0.034     2.534     2.490
    85   1 H        0.925     0.027     2.628     2.535
    86   1 H        0.926     0.049     2.336     2.390
    87   1 H        0.926     0.032     2.561     2.503
    88   1 H        0.926     0.049     2.336     2.390
    89   1 H        0.926     0.036     2.506     2.476

molecular dipole:
                 x           y           z       tot (Debye)
 q only:        0.002       0.579       1.056
   full:       -0.147       0.779       1.600       4.537

 projected vibrational frequencies (cm⁻¹)
eigval :       -0.00    -0.00    -0.00     0.00     0.00     0.00
eigval :        5.73     7.18     9.98    12.06    14.61    17.91
eigval :       22.57    24.35    30.27    31.33    33.04    45.60
eigval :       49.45    56.70    68.73    83.06    94.70    96.30
eigval :      101.34   107.44   116.61   124.58   134.07   145.41
eigval :      153.45   162.70   168.87   176.43   193.13   203.14
eigval :      217.15   228.59   241.02   245.98   255.30   262.49
eigval :      273.50   288.50   296.32   305.99   309.12   320.30
eigval :      337.19   354.06   368.26   368.78   385.26   391.78
eigval :      396.46   397.67   402.71   408.08   417.53   420.84
eigval :      425.64   427.72   431.39   450.75   453.81   465.52
eigval :      491.10   499.23   511.68   516.55   524.54   526.65
eigval :      543.65   544.27   546.46   563.17   575.51   586.28
eigval :      587.49   594.89   597.12   603.97   609.47   612.95
eigval :      616.58   618.33   623.94   637.36   664.24   668.93
eigval :      669.27   692.39   697.18   701.20   704.18   705.04
eigval :      714.08   729.15   742.34   755.85   765.05   769.68
eigval :      773.66   774.51   797.92   806.96   809.15   810.91
eigval :      813.42   851.19   853.78   858.93   863.11   866.18
eigval :      866.54   867.16   870.40   871.26   873.64   886.76
eigval :      888.70   888.98   897.95   902.15   903.08   906.81
eigval :      910.91   911.67   913.95   921.05   921.80   922.88
eigval :      925.07   925.70   929.27   934.96   988.75   991.24
eigval :     1002.30  1006.49  1011.83  1012.23  1021.20  1026.65
eigval :     1036.45  1036.97  1039.84  1068.41  1070.62  1073.58
eigval :     1074.15  1102.22  1120.53  1140.05  1144.91  1147.01
eigval :     1149.02  1160.02  1178.04  1178.23  1181.08  1183.92
eigval :     1185.30  1192.59  1194.77  1196.61  1199.20  1200.51
eigval :     1204.45  1211.96  1216.34  1227.10  1239.77  1243.68
eigval :     1247.54  1251.58  1253.26  1255.07  1271.40  1276.66
eigval :     1278.56  1284.75  1300.20  1301.06  1303.15  1307.13
eigval :     1316.99  1326.74  1328.56  1340.75  1342.19  1346.55
eigval :     1354.67  1357.79  1361.35  1373.93  1384.03  1411.86
eigval :     1412.31  1419.60  1420.24  1420.52  1421.14  1424.52
eigval :     1430.84  1449.80  1452.92  1453.50  1464.13  1474.35
eigval :     1477.51  1485.76  1490.76  1491.93  1494.12  1550.82
eigval :     1563.89  1573.49  1573.69  1574.50  1576.00  1587.39
eigval :     1589.47  1601.53  1602.16  1604.22  1604.37  1617.90
eigval :     1622.53  1676.04  1676.37  2363.25  2827.78  2877.06
eigval :     2881.52  2927.24  3044.14  3044.77  3063.96  3067.92
eigval :     3072.29  3077.10  3078.56  3079.55  3081.04  3081.51
eigval :     3083.76  3083.87  3084.41  3089.57  3090.43  3092.50
eigval :     3097.31  3098.41  3099.24  3099.79  3102.37  3102.80
eigval :     3106.87  3107.71  3109.86  3111.33  3111.47  3115.24
eigval :     3116.49  3131.41  3131.81

   temp. (K)  partition function   enthalpy   heat capacity  entropy
                                   cal/mol     cal/K/mol   cal/K/mol   J/K/mol
 298.15  VIB  0.827E+24            27036.954    162.573    172.531
         ROT  0.166E+09              888.752      2.981     40.597
         INT  0.137E+33            27925.706    165.554    213.128
         TR   0.178E+29             1481.254      4.968     45.488
         TOT                       29406.9599   170.5223   258.6168  1082.0525

       T/K    H(0)-H(T)+PV         H(T)/Eh          T*S/Eh         G(T)/Eh
   ------------------------------------------------------------------------
    298.15    0.468630E-01    0.729208E+00    0.122877E+00    0.606331E+00
   ------------------------------------------------------------------------

         :::::::::::::::::::::::::::::::::::::::::::::::::::::
         ::                  THERMODYNAMIC                  ::
         :::::::::::::::::::::::::::::::::::::::::::::::::::::
         :: total free energy        -139.044261207942 Eh   ::
         ::.................................................::
         :: total energy             -139.650592286654 Eh   ::
         :: zero point energy           0.682345269430 Eh   ::
         :: G(RRHO) w/o ZPVE           -0.076014190719 Eh   ::
         :: G(RRHO) contrib.            0.606331078711 Eh   ::
         :::::::::::::::::::::::::::::::::::::::::::::::::::::

           -------------------------------------------------
          | TOTAL ENERGY             -139.650592286654 Eh   |
          | TOTAL ENTHALPY           -138.921384043729 Eh   |
          | TOTAL FREE ENERGY        -139.044261207942 Eh   |
          | GRADIENT NORM               0.000163989366 Eh/α |
          | HOMO-LUMO GAP               2.167873094210 eV   |
           -------------------------------------------------

 * finished run on 2025/07/19 at 14:25:33.409
