   * xtb version 6.7.1 (edcfbbe) compiled by 'albert@albert-system' on 2024-07-22

   ID    Z sym.   atoms
    1    6 C      1-7, 9-20, 22-26, 28-36, 38-51, 53, 54
    2    8 O      8, 37
    3    7 N      21, 27, 52
    4    1 H      55-89

          program call               : xtb data2507/gas/VBN0/VBN0_gas_S0_crest.xyz --gfn 2 --ohess vtight --parallel 40 --molden --ceasefiles --namespace data2507/gas/VBN0/VBN0_gas_S0_finalOpt
          :  Hamiltonian                  GFN2-xTB          :
 * total energy  :  -139.6588904 Eh     change       -0.3842615E-08 Eh
 * total energy  :  -139.6588901 Eh     change        0.3763673E-06 Eh
 * total energy  :  -139.6588932 Eh     change       -0.3130491E-05 Eh
 * total energy  :  -139.6588941 Eh     change       -0.9204163E-06 Eh
 * total energy  :  -139.6588963 Eh     change       -0.2178591E-05 Eh
 * total energy  :  -139.6588999 Eh     change       -0.3625288E-05 Eh
 * total energy  :  -139.6589023 Eh     change       -0.2427044E-05 Eh
 * total energy  :  -139.6589037 Eh     change       -0.1358898E-05 Eh
 * total energy  :  -139.6589046 Eh     change       -0.9398101E-06 Eh
 * total energy  :  -139.6589068 Eh     change       -0.2136884E-05 Eh
 * total energy  :  -139.6589236 Eh     change       -0.2892665E-06 Eh
 * total energy  :  -139.6589239 Eh     change       -0.2443419E-06 Eh
 * total energy  :  -139.6589241 Eh     change       -0.2742091E-06 Eh
 * total energy  :  -139.6589245 Eh     change       -0.3463455E-06 Eh
 * total energy  :  -139.6589248 Eh     change       -0.3279854E-06 Eh
 * total energy  :  -139.6589251 Eh     change       -0.3010150E-06 Eh
 * total energy  :  -139.6589254 Eh     change       -0.2438848E-06 Eh
 * total energy  :  -139.6589256 Eh     change       -0.2322403E-06 Eh
 * total energy  :  -139.6589256 Eh     change       -0.1323315E-08 Eh
   *** GEOMETRY OPTIMIZATION CONVERGED AFTER 44 ITERATIONS ***

 final structure:
================
89
 xtb: 6.7.1 (edcfbbe)
C           -0.23766426678639        2.79578925595674       -2.27858258508381
C            0.27345559752024        3.85630118353376       -1.66827551223636
C            1.64018645958016        3.94395332859830       -1.16434335574552
C            1.92822862493334        4.77142162779270       -0.07949717913059
C            3.19559713182069        4.80851504563235        0.46779492700326
C            4.22255725336143        4.04952924099331       -0.07998066627549
C            5.58888506428419        4.03505613788215        0.56410960489120
O            6.30479229555853        2.82880659983740        0.37830080498001
C            5.65475461881582        1.64870069730177        0.60833096693501
C            4.47144408276665        1.54681276173229        1.34713870676905
C            3.79139853501533        0.34972407206743        1.44243441478983
C            4.30839212036377       -0.75327654477387        0.78854205064147
C            5.56573116810722       -0.69547810587210        0.15453161203171
C            6.23585944541199        0.51276083439783        0.05491581171306
C            5.84525906728448       -2.02790266999442       -0.31033655289180
C            6.91135911698319       -2.59217731469293       -0.99658784436468
C            6.85427502436177       -3.93277386844422       -1.32434083147093
C            5.74382118886966       -4.70382221879516       -0.99244668812169
C            4.66843850573635       -4.16417713659883       -0.31102730161487
C            4.73337624475462       -2.82619187748124        0.04447083902763
N            3.80352070790643       -2.04315972294878        0.70728945037638
C            2.49339623722321       -2.39475571911073        1.02027668424081
C            2.21556974234395       -3.52737268302348        1.77661905303482
C            0.90546383289409       -3.85499051534278        2.08098982502274
C           -0.14140520005568       -3.05174791976912        1.66623223937409
C            0.10695378006589       -1.91279384694081        0.90529256915507
N           -0.94514400232148       -1.10374021158870        0.48318275213131
C           -1.04464332666490        0.26838218002162        0.64523544989502
C           -0.18035292103825        1.15276607732868        1.27077112849562
C           -0.55279020859169        2.48031672205625        1.34597023445099
C           -1.76472307301132        2.92462625304481        0.82533506584191
C           -2.64011577040797        2.04668386377856        0.21962153191719
C           -2.28356361345230        0.70804727751120        0.12844992355392
C           -2.95149630536001       -0.45479180825874       -0.38592908020436
C           -4.17035417421292       -0.62934678756601       -1.03025305445894
C           -4.52546899074541       -1.90801365964128       -1.42778408371597
O           -5.68566615083193       -2.23295607365405       -2.07303962850695
C           -6.56538583887451       -1.19367011802380       -2.43740138979725
C           -7.23808902460115       -0.50865152564832       -1.27295604861083
C           -7.66306898962258        0.80956349164075       -1.38130135663147
C           -8.29761844851143        1.42792304353720       -0.32318806567731
C           -8.52724239888373        0.75191965937734        0.87682820811915
C           -9.20832482399713        1.45042215250238        1.95997759142214
C           -9.62064518394305        0.92549930266198        3.10753450536908
C           -8.08890983829445       -0.56882937870572        0.97720075343805
C           -7.45864552808564       -1.18893069221706       -0.08225857387266
C           -3.66389738510402       -2.98941523851998       -1.18960481505850
C           -2.45249428301056       -2.82709670501278       -0.55337021633366
C           -2.10253693309514       -1.55099398509443       -0.13704872037249
C            1.43067689473699       -1.59702640646377        0.55399070132689
C            1.67300136608064       -0.56146507852443       -0.37580710717355
N            1.84396007168152        0.22091777104649       -1.19694929269121
C            3.95747742281301        3.28006024937166       -1.20630328817429
C            2.68356258175212        3.21550874989227       -1.73194006055678
H            0.33678367996858        1.89912598359983       -2.43392137784650
H           -1.26089503124127        2.77531720195285       -2.61354693506600
H           -0.34846021460277        4.72301927255449       -1.47819405096117
H            1.13925954470156        5.36719554957279        0.35849174505361
H            3.39138093635620        5.42751621752137        1.33343112899753
H            5.49916010586464        4.26638695021969        1.63607952471274
H            6.23193535101639        4.79830944715749        0.10992664849759
H            4.06235014476830        2.41200231377574        1.84192391789814
H            2.88015865838878        0.29024585593651        2.01797562480415
H            7.17872631366311        0.59701982075531       -0.46082014661106
H            7.76410735910612       -1.98922019267874       -1.26840171632259
H            7.67583428058367       -4.39147670215673       -1.85385325448658
H            5.71906296400611       -5.74575855806502       -1.27550120132722
H            3.80463980873068       -4.76785445186395       -0.07611918470571
H            3.03210583084019       -4.13255939974010        2.13807162687504
H            0.70008158740780       -4.73362496393084        2.67349302730869
H           -1.15737018948399       -3.28758618141887        1.94194953270253
H            0.75415800366438        0.82534737285211        1.69771688961598
H            0.11176730953848        3.18447597880793        1.82294161099669
H           -2.02401143469860        3.96936519892453        0.90745377187208
H           -3.58915909863545        2.38522300665044       -0.16813685976770
H           -4.80795634866828        0.22237403285149       -1.20072854010449
H           -7.32578283533449       -1.68910752875386       -3.05338383020130
H           -6.04790628403089       -0.45442501285953       -3.06557196976814
H           -7.49438097843728        1.35252687574239       -2.30121852930221
H           -8.62386463214937        2.45359476288355       -0.42406961727196
H           -9.39241966720551        2.50117333874714        1.76965481052561
H          -10.12323269739405        1.52416389737274        3.84773161108065
H           -9.48320178742835       -0.11251429661766        3.35733373573266
H           -8.23871814272363       -1.11824729397701        1.89342669248766
H           -7.12535760334543       -2.21244083372253        0.00892450777725
H           -3.97777306111458       -3.96322492214302       -1.53045661562252
H           -1.79759027872726       -3.67154334131022       -0.40169252084704
H            4.75311555867575        2.70982585340557       -1.66232359303955
H            2.49543534713122        2.59520846827160       -2.59264362846249

          :  Hamiltonian                  GFN2-xTB          :
         :: gradient norm              0.000062707705 Eh/a0 ::
         :: HOMO-LUMO gap              2.121573400884 eV    ::
         :: SCC energy              -142.192343370716 Eh    ::
         :: -> dispersion             -0.131804620304 Eh    ::
         :: repulsion energy           2.533417771406 Eh    ::

    * Orbital Energies and Occupations

         #    Occupation            Energy/Eh            Energy/eV
      -------------------------------------------------------------
         1        2.0000           -0.7129802             -19.4012
       ...           ...                  ...                  ...
       117        2.0000           -0.4154661             -11.3054
       118        2.0000           -0.4122963             -11.2192
       119        2.0000           -0.4094965             -11.1430
       120        2.0000           -0.4072360             -11.0815
       121        2.0000           -0.3972529             -10.8098
       122        2.0000           -0.3957089             -10.7678
       123        2.0000           -0.3939061             -10.7187
       124        2.0000           -0.3853840             -10.4868
       125        2.0000           -0.3790379             -10.3141
       126        2.0000           -0.3787597             -10.3066
       127        2.0000           -0.3714813             -10.1085
       128        2.0000           -0.3609762              -9.8227
       129        2.0000           -0.3570528              -9.7159 (HOMO)
       130                         -0.2790864              -7.5943 (LUMO)
       131                         -0.2557514              -6.9594
       132                         -0.2547446              -6.9320
       133                         -0.2471852              -6.7263
       134                         -0.2442975              -6.6477
       135                         -0.2368141              -6.4440
       136                         -0.2266094              -6.1664
       137                         -0.2207109              -6.0058
       138                         -0.2205255              -6.0008
       139                         -0.2127413              -5.7890
       140                         -0.2085182              -5.6741
       ...                                ...                  ...
       251                          1.1664296              31.7402
      -------------------------------------------------------------
                  HL-Gap            0.0779664 Eh            2.1216 eV

     #   Z          covCN         q      C6AA      α(0)
     1   6 C        2.839    -0.086    30.138     8.997
     2   6 C        2.895    -0.030    28.740     8.790
     3   6 C        2.974     0.016    27.641     8.624
     4   6 C        2.926    -0.035    28.878     8.813
     5   6 C        2.921    -0.043    29.059     8.840
     6   6 C        2.968    -0.005    28.133     8.700
     7   6 C        3.698     0.079    19.428     6.304
     8   8 O        1.705    -0.279    18.636     5.829
     9   6 C        2.865     0.141    24.925     8.184
    10   6 C        2.923    -0.061    29.518     8.910
    11   6 C        2.912    -0.046    29.139     8.852
    12   6 C        3.079     0.039    27.047     8.526
    13   6 C        3.061    -0.013    28.270     8.719
    14   6 C        2.914    -0.058    29.442     8.898
    15   6 C        3.070    -0.012    28.241     8.714
    16   6 C        2.913    -0.031    28.774     8.796
    17   6 C        2.920    -0.039    28.979     8.828
    18   6 C        2.924    -0.033    28.812     8.803
    19   6 C        2.910    -0.051    29.266     8.871
    20   6 C        3.069     0.048    26.851     8.497
    21   7 N        2.800    -0.048    22.161     6.992
    22   6 C        2.917     0.075    26.330     8.414
    23   6 C        2.919    -0.049    29.217     8.864
    24   6 C        2.917    -0.023    28.587     8.768
    25   6 C        2.920    -0.049    29.221     8.865
    26   6 C        2.917     0.074    26.346     8.417
    27   7 N        2.802    -0.044    22.094     6.981
    28   6 C        3.069     0.049    26.829     8.493
    29   6 C        2.911    -0.045    29.108     8.847
    30   6 C        2.924    -0.029    28.726     8.789
    31   6 C        2.921    -0.037    28.913     8.818
    32   6 C        2.913    -0.031    28.767     8.795
    33   6 C        3.070    -0.014    28.282     8.720
    34   6 C        3.068    -0.014    28.302     8.723
    35   6 C        2.911    -0.069    29.706     8.937
    36   6 C        2.865     0.137    25.012     8.198
    37   8 O        1.705    -0.277    18.590     5.821
    38   6 C        3.699     0.078    19.431     6.304
    39   6 C        2.968    -0.001    28.052     8.688
    40   6 C        2.920    -0.041    29.009     8.832
    41   6 C        2.928    -0.034    28.846     8.808
    42   6 C        2.971     0.013    27.709     8.634
    43   6 C        2.896    -0.030    28.749     8.791
    44   6 C        2.837    -0.085    30.132     8.996
    45   6 C        2.923    -0.033    28.811     8.802
    46   6 C        2.921    -0.031    28.776     8.797
    47   6 C        2.926    -0.057    29.406     8.893
    48   6 C        2.909    -0.050    29.235     8.866
    49   6 C        3.072     0.037    27.096     8.535
    50   6 C        2.976    -0.013    28.335     8.732
    51   6 C        1.910     0.121    28.125     8.565
    52   7 N        0.911    -0.242    26.323     7.420
    53   6 C        2.922    -0.030    28.743     8.792
    54   6 C        2.924    -0.028    28.709     8.787
    55   1 H        0.926     0.056     2.243     2.342
    56   1 H        0.926     0.032     2.558     2.501
    57   1 H        0.925     0.031     2.578     2.511
    58   1 H        0.925     0.029     2.601     2.522
    59   1 H        0.925     0.022     2.706     2.572
    60   1 H        0.923     0.030     2.588     2.516
    61   1 H        0.924     0.056     2.251     2.346
    62   1 H        0.926     0.039     2.459     2.452
    63   1 H        0.926     0.022     2.701     2.570
    64   1 H        0.926     0.051     2.309     2.376
    65   1 H        0.926     0.036     2.497     2.471
    66   1 H        0.926     0.031     2.566     2.505
    67   1 H        0.926     0.031     2.567     2.505
    68   1 H        0.926     0.026     2.640     2.541
    69   1 H        0.926     0.050     2.318     2.381
    70   1 H        0.926     0.047     2.362     2.403
    71   1 H        0.926     0.050     2.324     2.384
    72   1 H        0.926     0.022     2.705     2.572
    73   1 H        0.926     0.033     2.542     2.493
    74   1 H        0.926     0.031     2.567     2.505
    75   1 H        0.926     0.033     2.543     2.494
    76   1 H        0.926     0.039     2.465     2.455
    77   1 H        0.924     0.057     2.230     2.335
    78   1 H        0.923     0.033     2.540     2.493
    79   1 H        0.925     0.027     2.629     2.536
    80   1 H        0.926     0.034     2.534     2.489
    81   1 H        0.925     0.035     2.521     2.483
    82   1 H        0.926     0.038     2.477     2.461
    83   1 H        0.926     0.040     2.451     2.448
    84   1 H        0.926     0.038     2.476     2.461
    85   1 H        0.926     0.041     2.433     2.439
    86   1 H        0.926     0.049     2.328     2.386
    87   1 H        0.926     0.034     2.537     2.491
    88   1 H        0.926     0.039     2.460     2.452
    89   1 H        0.926     0.054     2.275     2.358

molecular dipole:
                 x           y           z       tot (Debye)
 q only:       -0.822      -0.374       0.683
   full:       -1.021      -0.564       1.098       4.072

 projected vibrational frequencies (cm⁻¹)
eigval :       -0.00    -0.00    -0.00     0.00     0.00     0.00
eigval :        8.61    11.23    12.33    18.76    23.26    26.93
eigval :       33.15    33.76    44.79    51.97    56.60    60.30
eigval :       72.24    80.17    86.53    93.96    97.12   106.48
eigval :      113.94   122.87   124.30   136.76   138.80   156.05
eigval :      162.00   166.63   168.78   197.22   208.68   220.80
eigval :      225.70   237.11   243.85   250.69   256.93   262.26
eigval :      276.30   291.04   301.36   310.91   315.47   319.05
eigval :      332.64   354.76   368.37   378.05   384.87   388.38
eigval :      395.12   396.31   400.30   411.63   414.11   418.90
eigval :      424.70   427.14   434.08   449.07   452.16   493.33
eigval :      494.57   506.10   509.49   516.18   525.24   530.57
eigval :      535.11   544.11   560.99   570.91   576.13   587.07
eigval :      591.66   595.14   597.48   604.19   605.67   614.13
eigval :      618.86   620.78   631.39   638.35   658.53   669.48
eigval :      672.73   688.38   694.96   695.94   703.79   704.74
eigval :      711.48   728.42   742.71   752.28   757.88   767.88
eigval :      772.74   774.68   804.18   806.03   809.24   811.13
eigval :      813.08   847.09   851.64   853.40   857.94   858.85
eigval :      862.32   863.23   867.23   869.53   870.08   889.26
eigval :      891.90   892.81   893.72   899.78   902.84   907.29
eigval :      908.44   913.89   915.23   919.08   921.43   921.94
eigval :      925.09   925.71   927.08   930.36   985.19   991.33
eigval :     1001.43  1002.29  1011.41  1011.75  1019.97  1026.58
eigval :     1036.88  1037.29  1039.71  1058.13  1068.23  1072.45
eigval :     1073.84  1101.51  1119.09  1140.67  1145.27  1147.68
eigval :     1149.05  1155.99  1173.11  1177.31  1179.06  1183.84
eigval :     1185.34  1193.26  1196.17  1196.59  1199.13  1204.12
eigval :     1204.38  1211.70  1215.97  1225.55  1238.53  1241.02
eigval :     1247.06  1249.50  1252.74  1253.31  1270.74  1271.50
eigval :     1278.48  1283.01  1297.20  1299.76  1302.74  1308.30
eigval :     1314.93  1317.74  1326.21  1337.67  1340.59  1345.89
eigval :     1355.44  1358.92  1361.67  1366.17  1386.07  1407.93
eigval :     1412.12  1413.15  1419.45  1419.96  1420.88  1425.59
eigval :     1429.39  1450.65  1451.14  1454.88  1463.02  1470.78
eigval :     1477.67  1484.68  1491.26  1492.18  1493.21  1549.00
eigval :     1564.52  1573.29  1573.61  1574.13  1575.73  1588.24
eigval :     1589.50  1601.56  1602.45  1603.21  1605.11  1617.94
eigval :     1621.31  1676.44  1679.02  2362.02  2863.88  2877.83
eigval :     2928.36  2930.48  3039.18  3044.21  3055.79  3063.55
eigval :     3071.30  3076.92  3077.61  3079.94  3081.44  3083.73
eigval :     3084.47  3086.99  3087.38  3089.14  3090.35  3091.23
eigval :     3094.83  3098.70  3099.27  3104.33  3104.55  3107.83
eigval :     3108.96  3110.42  3111.34  3111.37  3116.27  3116.36
eigval :     3120.74  3131.77  3138.81

   temp. (K)  partition function   enthalpy   heat capacity  entropy
                                   cal/mol     cal/K/mol   cal/K/mol   J/K/mol
 298.15  VIB  0.166E+22            26567.304    164.878    166.421
         ROT  0.108E+09              888.752      2.981     39.746
         INT  0.179E+30            27456.056    167.859    206.167
         TR   0.178E+29             1481.254      4.968     45.488
         TOT                       28937.3103   172.8274   251.6556  1052.9271

       T/K    H(0)-H(T)+PV         H(T)/Eh          T*S/Eh         G(T)/Eh
   ------------------------------------------------------------------------
    298.15    0.461145E-01    0.729364E+00    0.119570E+00    0.609795E+00
   ------------------------------------------------------------------------

         :::::::::::::::::::::::::::::::::::::::::::::::::::::
         ::                  THERMODYNAMIC                  ::
         :::::::::::::::::::::::::::::::::::::::::::::::::::::
         :: total free energy        -139.049130859363 Eh   ::
         ::.................................................::
         :: total energy             -139.658925599310 Eh   ::
         :: zero point energy           0.683249901099 Eh   ::
         :: G(RRHO) w/o ZPVE           -0.073455161153 Eh   ::
         :: G(RRHO) contrib.            0.609794739947 Eh   ::
         :::::::::::::::::::::::::::::::::::::::::::::::::::::

           -------------------------------------------------
          | TOTAL ENERGY             -139.658925599310 Eh   |
          | TOTAL ENTHALPY           -138.929561158878 Eh   |
          | TOTAL FREE ENERGY        -139.049130859363 Eh   |
          | GRADIENT NORM               0.000062671855 Eh/α |
          | HOMO-LUMO GAP               2.121573648933 eV   |
           -------------------------------------------------

 * finished run on 2025/07/19 at 14:39:31.330
