   * xtb version 6.7.1 (edcfbbe) compiled by 'albert@albert-system' on 2024-07-22

   ID    Z sym.   atoms
    1    6 C      1-4, 6-21, 23-36, 38-48
    2    7 N      5, 22, 37
    3    1 H      49-79

          program call               : xtb data2507/toluene/mTPA–PPI/mTPA–PPI_toluene_S0_crest.xyz --gfn 2 --gbsa toluene --ohess vtight --parallel 40 --molden --ceasefiles --namespace data2507/toluene/mTPA–PPI/mTPA–PPI_toluene_S0_finalOpt
      * Solvation model:               GBSA
        Solvent                        toluene
        Solvent mass                       9.2140E+01 g/mol
          :  Hamiltonian                  GFN2-xTB          :
 * total energy  :  -121.0380417 Eh     change       -0.3083571E-08 Eh
 * total energy  :  -121.0380833 Eh     change       -0.4160058E-04 Eh
 * total energy  :  -121.0381059 Eh     change       -0.2258757E-04 Eh
 * total energy  :  -121.0381172 Eh     change       -0.1136608E-04 Eh
 * total energy  :  -121.0381305 Eh     change       -0.1328346E-04 Eh
 * total energy  :  -121.0381398 Eh     change       -0.9294055E-05 Eh
 * total energy  :  -121.0381459 Eh     change       -0.6043149E-05 Eh
 * total energy  :  -121.0381516 Eh     change       -0.5753961E-05 Eh
 * total energy  :  -121.0381575 Eh     change       -0.5900113E-05 Eh
 * total energy  :  -121.0381625 Eh     change       -0.5003744E-05 Eh
 * total energy  :  -121.0382008 Eh     change       -0.4910109E-06 Eh
 * total energy  :  -121.0382013 Eh     change       -0.4555538E-06 Eh
 * total energy  :  -121.0382017 Eh     change       -0.4233590E-06 Eh
 * total energy  :  -121.0382021 Eh     change       -0.4006236E-06 Eh
 * total energy  :  -121.0382025 Eh     change       -0.3708615E-06 Eh
 * total energy  :  -121.0382029 Eh     change       -0.3733888E-06 Eh
 * total energy  :  -121.0382033 Eh     change       -0.4222125E-06 Eh
 * total energy  :  -121.0382038 Eh     change       -0.5146211E-06 Eh
 * total energy  :  -121.0382038 Eh     change       -0.2972911E-08 Eh
   *** GEOMETRY OPTIMIZATION CONVERGED AFTER 44 ITERATIONS ***

 final structure:
================
79
 xtb: 6.7.1 (edcfbbe)
C            7.25047944738164       -3.52046028749069        1.37662668489765
C            6.48376512516992       -2.66218167449767        2.14841478246916
C            6.00579523530736       -1.47982681240359        1.61676243180458
C            6.28197140980079       -1.14201495765045        0.29162961408064
N            5.80011601507984        0.05482610565856       -0.25381421792333
C            6.59702987452012        0.78237418095832       -1.14786266299588
C            7.97520430527390        0.87403606119153       -0.95347909546302
C            8.75823717053205        1.58523657778389       -1.84240089631765
C            8.18330644989345        2.22259375510850       -2.93023813043123
C            6.81387081019416        2.13932806809713       -3.12494337064318
C            6.02376057379690        1.42281483331974       -2.24654670808416
C            4.53410132356629        0.52850139353870        0.10058428501276
C            3.47790689040838       -0.35741232580079        0.31982711712739
C            2.23290046966435        0.11254016220551        0.68044141913906
C            1.99497759995624        1.47809130846339        0.83347261942057
C            0.66856475588579        1.96598451583532        1.23617612061442
C            0.53617744981694        3.02299335330722        2.13508654563523
C           -0.71826412844788        3.47193987556271        2.50897119615658
C           -1.85501866348386        2.86430437408477        2.01223170905534
C           -1.74446567873168        1.79199361733657        1.12505633201506
C           -2.97186133563346        1.18525315002071        0.63224828234692
N           -4.07590046555142        1.86730312847303        0.44350554408320
C           -4.99625650207665        0.97422428775924       -0.00677012491416
C           -6.34505174266341        1.22739643095794       -0.38341921078971
C           -6.88350382528785        2.51805424507779       -0.33264213766896
C           -8.17987288771067        2.74579516698671       -0.72233658400960
C           -8.95542582988096        1.67922313619350       -1.17379014318881
C           -8.43804384226136        0.40566957835183       -1.22368036027652
C           -7.11993166899592        0.13067029421161       -0.82628908037251
C           -6.55439617105683       -1.20802354488520       -0.83869683757999
C           -7.31824856094323       -2.32460346513771       -1.20911948655133
C           -6.80518327702517       -3.60017173253559       -1.18958522621865
C           -5.49312910569170       -3.81829408912119       -0.78080024248710
C           -4.70919699327242       -2.75142180120638       -0.41597102281593
C           -5.20548498650210       -1.43997743483271       -0.45030097112849
C           -4.43636160732318       -0.29990589926367       -0.08106894171716
N           -3.12806913025524       -0.14757564219508        0.32265419830335
C           -2.12097823436195       -1.13282123552252        0.42726143189294
C           -1.59647169245074       -1.71688589149963       -0.72254131666531
C           -0.58810583342838       -2.65723066622179       -0.61370410562863
C           -0.09935277057977       -3.01318769088029        0.63381425701235
C           -0.62115931315624       -2.42839147762393        1.77634317245488
C           -1.63192609563920       -1.48775384507362        1.67866535449631
C           -0.48075463018511        1.36546468197280        0.73022389625775
C            3.05079691510944        2.35937015899508        0.60475904131602
C            4.29937472681104        1.89689083381663        0.24530017151847
C            7.04981178979341       -2.01234961141599       -0.48240898574006
C            7.53206580938670       -3.18748903609199        0.06135522956047
H            7.62664761257507       -4.44115132737853        1.79685870787062
H            6.26402602111170       -2.90969903175042        3.17694745223703
H            5.41811812035817       -0.80759998984728        2.22500484219133
H            8.42521375531351        0.38546179183365       -0.10136734820630
H            9.82431597808418        1.64902604868582       -1.67902625486856
H            8.79799756685563        2.78033967680150       -3.62079494621034
H            6.35709721928766        2.62903486063333       -3.97284812050908
H            4.95750666903317        1.35183593580206       -2.40603947490253
H            3.64245847472598       -1.41890499550901        0.20608774915049
H            1.43355888408289       -0.59098996359009        0.86049733834058
H            1.41940338004955        3.48459962075530        2.55100743900475
H           -0.81007439109997        4.29622812500619        3.20115944893616
H           -2.83911516342877        3.20105808618740        2.29891079117923
H           -6.24645470583801        3.31718134505596        0.01515522761790
H           -8.59765245903386        3.74125091690521       -0.68485192503082
H           -9.97474102500347        1.85365614923458       -1.48749679210152
H           -9.07517408316913       -0.38708412609172       -1.58220270448030
H           -8.34413538789765       -2.19438216300313       -1.51337795450418
H           -7.42578583225758       -4.43455913793603       -1.48203559316588
H           -5.09281449524616       -4.82088823110791       -0.74645771907127
H           -3.69763763460067       -2.92591135362660       -0.08650002400595
H           -1.98430227041321       -1.42856071283933       -1.68910349448616
H           -0.18015237413009       -3.10754572173122       -1.50601908503683
H            0.69166475157965       -3.74334162883172        0.71445597530319
H           -0.23994218242180       -2.70214710963382        2.74854092764459
H           -2.04308072345385       -1.02218194798593        2.56229544208094
H           -0.37756100548874        0.58262924427012       -0.00491703075856
H            2.88869566429484        3.42302035271286        0.69939546777760
H            5.10637061307986        2.59519135859231        0.07706733311258
H            7.26390978154305       -1.76007194543796       -1.51094639182389
H            8.12518541186287       -3.85227180698114       -0.54990281499233

          :  Hamiltonian                  GFN2-xTB          :
         :: gradient norm              0.000047578415 Eh/a0 ::
         :: HOMO-LUMO gap              2.396210060432 eV    ::
         :: SCC energy              -123.324077984198 Eh    ::
         :: -> dispersion             -0.112981958114 Eh    ::
         :: -> Gsolv                  -0.050214476949 Eh    ::
         :: repulsion energy           2.285874191010 Eh    ::

    * Orbital Energies and Occupations

         #    Occupation            Energy/Eh            Energy/eV
      -------------------------------------------------------------
         1        2.0000           -0.6881217             -18.7247
       ...           ...                  ...                  ...
       101        2.0000           -0.4141876             -11.2706
       102        2.0000           -0.4092727             -11.1369
       103        2.0000           -0.4087947             -11.1239
       104        2.0000           -0.4078640             -11.0985
       105        2.0000           -0.4055230             -11.0348
       106        2.0000           -0.4047602             -11.0141
       107        2.0000           -0.4045596             -11.0086
       108        2.0000           -0.3996232             -10.8743
       109        2.0000           -0.3925229             -10.6811
       110        2.0000           -0.3830952             -10.4246
       111        2.0000           -0.3795069             -10.3269
       112        2.0000           -0.3651167              -9.9353
       113        2.0000           -0.3493241              -9.5056 (HOMO)
       114                         -0.2612650              -7.1094 (LUMO)
       115                         -0.2511600              -6.8344
       116                         -0.2486034              -6.7648
       117                         -0.2411766              -6.5628
       118                         -0.2409954              -6.5578
       119                         -0.2400388              -6.5318
       120                         -0.2308019              -6.2804
       121                         -0.2277742              -6.1981
       122                         -0.2222841              -6.0487
       123                         -0.2220762              -6.0430
       124                         -0.2153508              -5.8600
       ...                                ...                  ...
       223                          0.7249300              19.7263
      -------------------------------------------------------------
                  HL-Gap            0.0880591 Eh            2.3962 eV

     #   Z          covCN         q      C6AA      α(0)
     1   6 C        2.919    -0.039    28.979     8.828
     2   6 C        2.919    -0.030    28.755     8.794
     3   6 C        2.922    -0.048    29.195     8.861
     4   6 C        2.923     0.065    26.537     8.448
     5   7 N        2.752    -0.078    22.756     7.085
     6   6 C        2.924     0.065    26.537     8.448
     7   6 C        2.922    -0.048    29.183     8.859
     8   6 C        2.919    -0.030    28.753     8.793
     9   6 C        2.919    -0.039    28.969     8.826
    10   6 C        2.919    -0.030    28.753     8.793
    11   6 C        2.922    -0.048    29.186     8.859
    12   6 C        2.923     0.065    26.550     8.450
    13   6 C        2.920    -0.049    29.220     8.864
    14   6 C        2.924    -0.035    28.876     8.812
    15   6 C        2.976    -0.000    28.035     8.685
    16   6 C        2.975     0.011    27.765     8.643
    17   6 C        2.924    -0.035    28.872     8.812
    18   6 C        2.916    -0.029    28.730     8.789
    19   6 C        2.928    -0.032    28.804     8.802
    20   6 C        2.972    -0.003    28.086     8.693
    21   6 C        3.189     0.137    24.581     8.088
    22   7 N        1.895    -0.319    29.128     8.001
    23   6 C        3.204     0.060    26.092     8.321
    24   6 C        2.985    -0.003    28.099     8.695
    25   6 C        2.921    -0.033    28.834     8.806
    26   6 C        2.917    -0.032    28.796     8.800
    27   6 C        2.917    -0.034    28.857     8.809
    28   6 C        2.921    -0.037    28.910     8.817
    29   6 C        2.979    -0.005    28.143     8.702
    30   6 C        2.979    -0.002    28.063     8.690
    31   6 C        2.922    -0.035    28.875     8.812
    32   6 C        2.916    -0.034    28.852     8.808
    33   6 C        2.917    -0.033    28.812     8.802
    34   6 C        2.919    -0.041    29.031     8.836
    35   6 C        2.977    -0.005    28.150     8.703
    36   6 C        3.073     0.022    27.438     8.588
    37   7 N        2.840    -0.056    22.316     7.016
    38   6 C        2.912     0.068    26.482     8.438
    39   6 C        2.921    -0.036    28.906     8.817
    40   6 C        2.919    -0.026    28.640     8.776
    41   6 C        2.919    -0.028    28.695     8.784
    42   6 C        2.920    -0.025    28.616     8.772
    43   6 C        2.921    -0.037    28.931     8.820
    44   6 C        2.928    -0.042    29.053     8.839
    45   6 C        2.923    -0.034    28.855     8.809
    46   6 C        2.920    -0.049    29.219     8.864
    47   6 C        2.922    -0.048    29.191     8.860
    48   6 C        2.919    -0.030    28.754     8.793
    49   1 H        0.926     0.032     2.561     2.503
    50   1 H        0.926     0.033     2.538     2.491
    51   1 H        0.926     0.032     2.558     2.501
    52   1 H        0.926     0.032     2.561     2.502
    53   1 H        0.926     0.033     2.537     2.491
    54   1 H        0.926     0.032     2.558     2.501
    55   1 H        0.926     0.033     2.540     2.492
    56   1 H        0.926     0.032     2.563     2.503
    57   1 H        0.926     0.034     2.532     2.488
    58   1 H        0.926     0.032     2.552     2.498
    59   1 H        0.926     0.040     2.442     2.444
    60   1 H        0.926     0.040     2.455     2.450
    61   1 H        0.926     0.044     2.398     2.422
    62   1 H        0.926     0.043     2.410     2.427
    63   1 H        0.926     0.032     2.553     2.499
    64   1 H        0.926     0.032     2.560     2.502
    65   1 H        0.926     0.035     2.523     2.484
    66   1 H        0.926     0.037     2.491     2.468
    67   1 H        0.926     0.033     2.550     2.497
    68   1 H        0.926     0.032     2.562     2.503
    69   1 H        0.926     0.029     2.601     2.522
    70   1 H        0.926     0.041     2.437     2.441
    71   1 H        0.926     0.047     2.351     2.398
    72   1 H        0.926     0.048     2.349     2.397
    73   1 H        0.926     0.047     2.354     2.399
    74   1 H        0.926     0.038     2.476     2.461
    75   1 H        0.926     0.030     2.590     2.517
    76   1 H        0.926     0.037     2.490     2.468
    77   1 H        0.926     0.034     2.537     2.491
    78   1 H        0.926     0.031     2.568     2.506
    79   1 H        0.926     0.033     2.543     2.494

molecular dipole:
                 x           y           z       tot (Debye)
 q only:        1.383      -0.923       0.146
   full:        1.404      -1.267       0.089       4.812

 projected vibrational frequencies (cm⁻¹)
eigval :       -0.00    -0.00     0.00     0.00     0.00     0.00
eigval :        8.49     9.79    17.98    24.47    30.99    36.85
eigval :       40.58    50.78    53.65    57.18    66.31    69.47
eigval :       79.51    80.16    90.22   101.39   102.77   132.18
eigval :      144.41   163.63   190.97   196.89   212.74   217.81
eigval :      232.79   236.22   240.20   259.98   267.86   277.93
eigval :      294.03   311.37   337.97   344.77   369.01   374.10
eigval :      374.96   377.04   378.09   386.64   391.77   397.80
eigval :      402.99   427.91   435.89   441.93   442.44   475.33
eigval :      478.05   484.68   492.09   511.95   517.71   521.02
eigval :      535.19   568.06   581.74   584.38   585.68   590.73
eigval :      595.32   596.21   613.10   634.69   638.07   647.11
eigval :      655.89   659.36   663.77   665.54   671.36   679.96
eigval :      686.09   688.89   693.38   702.23   724.75   735.62
eigval :      755.04   757.35   761.15   765.92   774.20   782.32
eigval :      794.52   819.67   827.01   859.71   869.55   870.72
eigval :      871.85   874.70   875.92   886.64   889.79   891.66
eigval :      899.71   902.96   908.18   908.97   914.56   917.03
eigval :      918.23   923.67   925.24   926.59   927.14   927.83
eigval :      928.57   929.29   929.57   932.95   936.78   938.76
eigval :      954.13   975.42   985.97  1003.80  1010.26  1017.72
eigval :     1028.81  1067.96  1077.72  1081.51  1082.72  1085.13
eigval :     1092.17  1106.53  1114.21  1120.10  1122.63  1125.64
eigval :     1133.84  1144.40  1151.27  1170.87  1178.27  1178.64
eigval :     1179.21  1179.30  1183.03  1184.66  1185.86  1187.58
eigval :     1193.37  1197.48  1208.08  1215.16  1252.07  1255.12
eigval :     1260.19  1272.22  1273.98  1276.08  1277.39  1281.25
eigval :     1282.89  1305.77  1308.79  1309.55  1314.79  1320.76
eigval :     1323.54  1324.51  1325.86  1334.41  1337.28  1348.16
eigval :     1372.32  1398.12  1407.05  1416.63  1418.93  1428.83
eigval :     1431.18  1434.32  1436.11  1440.63  1455.39  1469.82
eigval :     1472.66  1475.88  1495.33  1508.82  1512.48  1540.53
eigval :     1554.99  1559.61  1565.99  1570.96  1575.68  1579.39
eigval :     1580.44  1585.79  1590.38  1591.15  1593.29  1594.85
eigval :     1601.03  1603.49  3068.80  3070.58  3071.12  3071.98
eigval :     3072.40  3072.99  3075.35  3076.86  3079.21  3079.83
eigval :     3080.52  3081.03  3082.22  3082.78  3083.69  3083.85
eigval :     3084.92  3086.74  3088.01  3088.30  3091.93  3092.95
eigval :     3093.39  3093.88  3094.53  3096.97  3101.38  3101.74
eigval :     3103.41  3109.56  3116.55

   temp. (K)  partition function   enthalpy   heat capacity  entropy
                                   cal/mol     cal/K/mol   cal/K/mol   J/K/mol
 298.15  VIB  0.326E+18            22027.673    139.952    137.875
         ROT  0.914E+08              888.752      2.981     39.408
         INT  0.298E+26            22916.425    142.933    177.283
         TR   0.147E+29             1481.254      4.968     45.106
         TOT                       24397.6791   147.9007   222.3887   930.4744

       T/K    H(0)-H(T)+PV         H(T)/Eh          T*S/Eh         G(T)/Eh
   ------------------------------------------------------------------------
    298.15    0.388802E-01    0.650414E+00    0.105664E+00    0.544750E+00
   ------------------------------------------------------------------------

         :::::::::::::::::::::::::::::::::::::::::::::::::::::
         ::                  THERMODYNAMIC                  ::
         :::::::::::::::::::::::::::::::::::::::::::::::::::::
         :: total free energy        -120.493454099878 Eh   ::
         ::.................................................::
         :: total energy             -121.038203795349 Eh   ::
         :: zero point energy           0.611533579452 Eh   ::
         :: G(RRHO) w/o ZPVE           -0.066783883982 Eh   ::
         :: G(RRHO) contrib.            0.544749695470 Eh   ::
         :::::::::::::::::::::::::::::::::::::::::::::::::::::

           -------------------------------------------------
          | TOTAL ENERGY             -121.038203795349 Eh   |
          | TOTAL ENTHALPY           -120.387790039409 Eh   |
          | TOTAL FREE ENERGY        -120.493454099878 Eh   |
          | GRADIENT NORM               0.000047577913 Eh/α |
          | HOMO-LUMO GAP               2.396209722511 eV   |
           -------------------------------------------------

 * finished run on 2025/09/07 at 05:20:43.563
