   * xtb version 6.7.1 (edcfbbe) compiled by 'albert@albert-system' on 2024-07-22

   ID    Z sym.   atoms
    1    6 C      1-4, 6-21, 23-36, 38-48
    2    7 N      5, 22, 37
    3    1 H      49-79

          program call               : xtb data2507/toluene/mTPA–PPI/mTPA–PPI_toluene_T1_crest.xyz --gfn 2 --uhf 2 --gbsa toluene --ohess vtight --parallel 40 --molden --ceasefiles --namespace data2507/toluene/mTPA–PPI/mTPA–PPI_toluene_T1_finalOpt
      * Solvation model:               GBSA
        Solvent                        toluene
        Solvent mass                       9.2140E+01 g/mol
          :  Hamiltonian                  GFN2-xTB          :
 * total energy  :  -120.9453703 Eh     change       -0.1171037E-07 Eh
 * total energy  :  -120.9454374 Eh     change       -0.6713115E-04 Eh
 * total energy  :  -120.9454717 Eh     change       -0.3428537E-04 Eh
 * total energy  :  -120.9454852 Eh     change       -0.1353890E-04 Eh
 * total energy  :  -120.9455016 Eh     change       -0.1640628E-04 Eh
 * total energy  :  -120.9455170 Eh     change       -0.1537367E-04 Eh
 * total energy  :  -120.9455294 Eh     change       -0.1238931E-04 Eh
 * total energy  :  -120.9455400 Eh     change       -0.1063336E-04 Eh
 * total energy  :  -120.9455489 Eh     change       -0.8859792E-05 Eh
 * total energy  :  -120.9455585 Eh     change       -0.9646147E-05 Eh
 * total energy  :  -120.9456982 Eh     change       -0.1215092E-06 Eh
 * total energy  :  -120.9456983 Eh     change       -0.1370008E-06 Eh
 * total energy  :  -120.9456985 Eh     change       -0.1484060E-06 Eh
 * total energy  :  -120.9456986 Eh     change       -0.1430527E-06 Eh
 * total energy  :  -120.9456988 Eh     change       -0.1217916E-06 Eh
 * total energy  :  -120.9456989 Eh     change       -0.1513812E-06 Eh
 * total energy  :  -120.9456989 Eh     change        0.1025651E-07 Eh
 * total energy  :  -120.9456989 Eh     change        0.1510423E-07 Eh
 * total energy  :  -120.9456990 Eh     change       -0.7727554E-07 Eh
   *** GEOMETRY OPTIMIZATION CONVERGED AFTER 70 ITERATIONS ***

 final structure:
================
79
 xtb: 6.7.1 (edcfbbe)
C            9.29496466714195        2.16238800033912        0.21258030900291
C            8.23971287491480        2.48172460894749       -0.62775427879538
C            7.08872542634062        1.71791303389283       -0.62617088719220
C            6.97714345817182        0.61938953335139        0.22771944794885
N            5.81058994410468       -0.15531609015745        0.23608810937946
C            5.89991951910546       -1.54436192133414        0.38076776706497
C            6.94763063520104       -2.24950855893940       -0.21424905607032
C            7.03591220841017       -3.61996395791298       -0.06501951509867
C            6.08349544485352       -4.30898588719639        0.66974941053315
C            5.03959166142171       -3.61374700083668        1.26020111004892
C            4.94539301650747       -2.24245151591503        1.12306942291827
C            4.56488577814056        0.45724335802244        0.10540704598168
C            4.32814765806383        1.71929155981412        0.65856959865719
C            3.09525707839162        2.31937492389367        0.52866524990152
C            2.04822841834383        1.68360172006972       -0.14364887945872
C            0.73017396187632        2.31045258271647       -0.26859953381917
C            0.61381694337724        3.70118698807690       -0.45962083606337
C           -0.64871205529177        4.28416506821009       -0.54102193456469
C           -1.78301924937760        3.52097252015631       -0.46205979344653
C           -1.70035763949396        2.10158897858737       -0.30955909476771
C           -2.90681159018487        1.38506226097962       -0.23325066138834
N           -4.08840556665631        1.99905017680351       -0.01765434003087
C           -4.99891950232023        1.04990528295231        0.11838520427874
C           -6.38457827647353        1.21426398400101        0.41587473558593
C           -6.91717198013405        2.48219562600724        0.65324358531657
C           -8.25228858522436        2.63385404208318        0.97251850185885
C           -9.05593324341659        1.50641310100134        1.06254505387295
C           -8.53890124138666        0.24588195566385        0.82456304778767
C           -7.19255037669331        0.05392589788273        0.48578131649385
C           -6.62611870744245       -1.25184797798688        0.19696957374049
C           -7.41629025180887       -2.40024399382760        0.16672883107759
C           -6.90525573112215       -3.64628414203414       -0.13839645066260
C           -5.54860517671406       -3.78557370743034       -0.44979347918471
C           -4.72968890439053       -2.69226941423105       -0.42832839434471
C           -5.21959530902683       -1.40247437605805       -0.09335251785930
C           -4.42614091354451       -0.25294513548693       -0.06261506917454
N           -3.08405561633511       -0.02193368010997       -0.28152382645420
C           -2.08651203589311       -0.95222393471252       -0.60595446882068
C           -1.45305360468562       -0.88708027862920       -1.84805915490289
C           -0.45164440275772       -1.78724813860951       -2.15792103632850
C           -0.06933522103589       -2.75476495103935       -1.24000420364273
C           -0.69770139540722       -2.82075985577399       -0.00481443526592
C           -1.70226171596958       -1.92827188971965        0.31583620647337
C           -0.40971533458866        1.53522566808144       -0.19614883824405
C            2.29331594719431        0.42286083236278       -0.69546493485722
C            3.52597618635317       -0.17892057832245       -0.58107009523541
C            8.04183164090180        0.30239373573759        1.07265669608345
C            9.19045483773466        1.06971551422015        1.05924966505139
H           10.19334205609798        2.76083043463056        0.20712149992989
H            8.31615520107246        3.32718397839986       -1.29545259162701
H            6.27185943390331        1.95945222000738       -1.29022856021050
H            7.68285020843696       -1.71628502807337       -0.79872110143242
H            7.84904331813457       -4.15474618344017       -0.53325586099585
H            6.15469500681718       -5.38024606811833        0.78228343436959
H            4.29743199154482       -4.14184618280419        1.84055476206292
H            4.13930634389686       -1.70122786564792        1.59625270720422
H            5.11603065206148        2.21598998088387        1.20555133942362
H            2.92604636624238        3.28224877833427        0.98684236346395
H            1.49963064394563        4.30908838021657       -0.55611485786280
H           -0.73051753109178        5.35410158765532       -0.67236253197411
H           -2.76525120582607        3.96069096117262       -0.52431097794568
H           -6.25325795964955        3.33037416827225        0.58375884491313
H           -8.66369478336679        3.61525015378633        1.15516917638129
H          -10.10031644440272        1.60955091564822        1.32073615782916
H           -9.20501399276723       -0.59761322998262        0.91096519906586
H           -8.47165524644059       -2.32846979319853        0.37710891056138
H           -7.55466501653404       -4.50874211269078       -0.14920888192331
H           -5.15148894357371       -4.75538007139150       -0.71250825519558
H           -3.69022280770442       -2.80261554210631       -0.68952495858498
H           -1.75319923680925       -0.12621727439428       -2.55396734021530
H            0.03099661824940       -1.73557993601267       -3.12309535549271
H            0.71694446636258       -3.45257079197373       -1.48469737094371
H           -0.39986571863693       -3.56866151582108        0.71507498194604
H           -2.19415981405435       -1.96951303378968        1.27721595809839
H           -0.30773482630651        0.48484455075581        0.02037453666982
H            1.50926309066945       -0.07647989583161       -1.24468028701542
H            3.70118116770003       -1.14279030355945       -1.03552962912960
H            7.95641114360291       -0.54058565668015        1.74245397632154
H           10.00607785723606        0.81809343984923        1.72095593698217

          :  Hamiltonian                  GFN2-xTB          :
         :: gradient norm              0.000123128102 Eh/a0 ::
         :: HOMO-LUMO gap              0.458994051839 eV    ::
         :: SCC energy              -123.211873270435 Eh    ::
         :: -> dispersion             -0.113120392745 Eh    ::
         :: -> Gsolv                  -0.052070419962 Eh    ::
         :: repulsion energy           2.266174288296 Eh    ::

    * Orbital Energies and Occupations

         #    Occupation            Energy/Eh            Energy/eV
      -------------------------------------------------------------
         1        2.0000           -0.6777116             -18.4415
       ...           ...                  ...                  ...
       102        2.0000           -0.4130043             -11.2384
       103        2.0000           -0.4121939             -11.2164
       104        2.0000           -0.4110337             -11.1848
       105        2.0000           -0.4106413             -11.1741
       106        2.0000           -0.4044273             -11.0050
       107        2.0000           -0.3965178             -10.7898
       108        2.0000           -0.3939149             -10.7190
       109        2.0000           -0.3907643             -10.6332
       110        2.0000           -0.3797694             -10.3341
       111        2.0000           -0.3747213             -10.1967
       112        1.8865           -0.3579409              -9.7401
       113        1.1135           -0.3540355              -9.6338
       114        0.9999           -0.2670749              -7.2675 (HOMO)
       115        0.0001           -0.2502076              -6.8085 (LUMO)
       116        0.0000           -0.2474542              -6.7336
       117                         -0.2412693              -6.5653
       118                         -0.2389359              -6.5018
       119                         -0.2342542              -6.3744
       120                         -0.2321219              -6.3164
       121                         -0.2315147              -6.2998
       122                         -0.2292247              -6.2375
       123                         -0.2271202              -6.1803
       124                         -0.2146797              -5.8417
       125                         -0.2056902              -5.5971
       ...                                ...                  ...
       223                          0.7321721              19.9234
      -------------------------------------------------------------
                  HL-Gap            0.0168673 Eh            0.4590 eV

     #   Z          covCN         q      C6AA      α(0)
     1   6 C        2.919    -0.033    28.828     8.805
     2   6 C        2.919    -0.027    28.682     8.782
     3   6 C        2.921    -0.043    29.074     8.842
     4   6 C        2.925     0.064    26.561     8.452
     5   7 N        2.752    -0.050    22.209     6.999
     6   6 C        2.924     0.064    26.558     8.451
     7   6 C        2.922    -0.044    29.087     8.844
     8   6 C        2.919    -0.027    28.686     8.783
     9   6 C        2.919    -0.034    28.836     8.806
    10   6 C        2.919    -0.027    28.684     8.783
    11   6 C        2.921    -0.044    29.081     8.843
    12   6 C        2.924     0.062    26.600     8.458
    13   6 C        2.919    -0.046    29.130     8.851
    14   6 C        2.923    -0.033    28.812     8.802
    15   6 C        2.976     0.007    27.849     8.656
    16   6 C        2.970     0.006    27.874     8.660
    17   6 C        2.921    -0.046    29.144     8.853
    18   6 C        2.909    -0.032    28.807     8.801
    19   6 C        2.925    -0.037    28.929     8.820
    20   6 C        2.966    -0.013    28.338     8.732
    21   6 C        3.130     0.126    25.052     8.195
    22   7 N        1.877    -0.322    29.191     8.009
    23   6 C        3.162     0.083    25.832     8.308
    24   6 C        2.983    -0.008    28.213     8.713
    25   6 C        2.923    -0.030    28.756     8.794
    26   6 C        2.915    -0.036    28.890     8.814
    27   6 C        2.917    -0.030    28.738     8.791
    28   6 C        2.922    -0.039    28.974     8.827
    29   6 C        2.976    -0.002    28.075     8.691
    30   6 C        2.975    -0.009    28.240     8.717
    31   6 C        2.918    -0.034    28.849     8.808
    32   6 C        2.915    -0.039    28.978     8.827
    33   6 C        2.912    -0.035    28.880     8.812
    34   6 C        2.916    -0.041    29.007     8.832
    35   6 C        2.971    -0.020    28.492     8.756
    36   6 C        3.025     0.038    27.116     8.542
    37   7 N        2.809    -0.083    22.847     7.099
    38   6 C        2.908     0.066    26.525     8.445
    39   6 C        2.920    -0.041    29.027     8.835
    40   6 C        2.918    -0.028    28.707     8.786
    41   6 C        2.919    -0.036    28.894     8.815
    42   6 C        2.918    -0.029    28.735     8.790
    43   6 C        2.920    -0.042    29.034     8.836
    44   6 C        2.923    -0.051    29.271     8.872
    45   6 C        2.923    -0.033    28.832     8.806
    46   6 C        2.919    -0.045    29.118     8.849
    47   6 C        2.921    -0.043    29.079     8.843
    48   6 C        2.919    -0.027    28.684     8.783
    49   1 H        0.926     0.039     2.461     2.453
    50   1 H        0.926     0.040     2.444     2.445
    51   1 H        0.926     0.039     2.459     2.452
    52   1 H        0.926     0.039     2.459     2.452
    53   1 H        0.926     0.040     2.443     2.444
    54   1 H        0.926     0.039     2.466     2.456
    55   1 H        0.926     0.040     2.454     2.450
    56   1 H        0.926     0.038     2.470     2.458
    57   1 H        0.926     0.040     2.447     2.446
    58   1 H        0.926     0.042     2.426     2.436
    59   1 H        0.926     0.031     2.567     2.506
    60   1 H        0.926     0.030     2.589     2.516
    61   1 H        0.926     0.041     2.430     2.437
    62   1 H        0.926     0.044     2.402     2.423
    63   1 H        0.926     0.033     2.540     2.492
    64   1 H        0.926     0.034     2.528     2.486
    65   1 H        0.926     0.034     2.527     2.486
    66   1 H        0.926     0.033     2.546     2.495
    67   1 H        0.926     0.028     2.615     2.529
    68   1 H        0.926     0.027     2.632     2.537
    69   1 H        0.926     0.027     2.627     2.534
    70   1 H        0.926     0.030     2.583     2.513
    71   1 H        0.926     0.039     2.467     2.456
    72   1 H        0.926     0.039     2.455     2.450
    73   1 H        0.926     0.039     2.457     2.451
    74   1 H        0.926     0.033     2.538     2.491
    75   1 H        0.926     0.024     2.674     2.557
    76   1 H        0.926     0.038     2.474     2.460
    77   1 H        0.926     0.040     2.452     2.449
    78   1 H        0.926     0.039     2.460     2.453
    79   1 H        0.926     0.041     2.442     2.444

molecular dipole:
                 x           y           z       tot (Debye)
 q only:        3.908      -0.874       0.073
   full:        3.861      -1.239       0.042      10.307

 projected vibrational frequencies (cm⁻¹)
eigval :       -0.00    -0.00    -0.00     0.00     0.00     0.00
eigval :       10.29    10.84    15.32    21.36    35.95    38.53
eigval :       42.17    51.42    55.72    59.61    65.50    71.00
eigval :       75.66    83.41    90.39   101.65   107.43   129.01
eigval :      148.30   156.99   193.05   195.17   205.77   215.01
eigval :      223.87   231.68   237.24   253.98   256.59   279.46
eigval :      300.49   310.29   314.24   328.76   364.92   374.39
eigval :      375.56   379.69   380.34   388.31   389.25   395.29
eigval :      396.64   405.99   413.07   418.85   435.63   455.91
eigval :      473.76   481.04   482.11   495.79   509.37   516.85
eigval :      518.84   538.27   579.56   580.19   582.28   586.77
eigval :      592.57   592.92   599.32   613.31   621.51   630.58
eigval :      634.99   643.02   653.73   658.47   659.23   660.90
eigval :      666.39   684.71   687.58   692.75   717.20   720.44
eigval :      741.23   746.07   754.33   756.03   758.50   762.39
eigval :      767.72   815.20   823.39   834.48   838.10   846.37
eigval :      853.60   865.97   870.08   872.05   872.58   885.94
eigval :      891.08   895.63   896.85   902.10   903.11   909.13
eigval :      910.61   911.34   911.60   914.63   918.15   922.41
eigval :      924.53   927.85   928.25   929.58   930.16   931.37
eigval :      935.50   954.46   978.94   982.35   992.34  1002.41
eigval :     1014.35  1044.58  1074.30  1075.13  1078.93  1080.21
eigval :     1081.23  1086.64  1096.71  1115.22  1119.29  1120.78
eigval :     1122.55  1130.44  1144.23  1151.23  1171.37  1174.13
eigval :     1176.29  1177.24  1177.93  1179.48  1180.00  1182.74
eigval :     1190.71  1192.23  1194.07  1206.35  1212.81  1238.35
eigval :     1242.52  1256.39  1266.44  1268.19  1271.48  1272.85
eigval :     1275.21  1276.27  1284.46  1300.79  1312.01  1313.58
eigval :     1314.10  1321.68  1323.63  1325.90  1336.51  1347.00
eigval :     1347.64  1353.78  1377.20  1391.62  1392.75  1411.00
eigval :     1414.86  1426.06  1430.36  1432.27  1437.01  1438.35
eigval :     1461.24  1461.80  1465.35  1467.76  1475.02  1492.13
eigval :     1498.46  1530.35  1535.47  1543.24  1546.43  1548.32
eigval :     1550.50  1565.71  1569.59  1572.79  1575.89  1582.83
eigval :     1584.22  1592.04  3065.30  3069.67  3071.89  3074.67
eigval :     3075.76  3076.75  3077.44  3077.73  3078.92  3080.08
eigval :     3082.17  3082.54  3083.89  3084.14  3086.20  3086.33
eigval :     3087.21  3089.14  3090.51  3090.97  3093.87  3094.11
eigval :     3094.78  3097.18  3097.32  3097.53  3098.41  3105.00
eigval :     3109.51  3121.09  3123.55

   temp. (K)  partition function   enthalpy   heat capacity  entropy
                                   cal/mol     cal/K/mol   cal/K/mol   J/K/mol
 298.15  VIB  0.339E+18            22346.137    142.437    139.523
         ROT  0.890E+08              888.752      2.981     39.355
         INT  0.301E+26            23234.889    145.418    178.878
         TR   0.147E+29             1481.254      4.968     45.106
         TOT                       24716.1428   150.3861   223.9839   937.1487

       T/K    H(0)-H(T)+PV         H(T)/Eh          T*S/Eh         G(T)/Eh
   ------------------------------------------------------------------------
    298.15    0.393877E-01    0.645943E+00    0.106422E+00    0.539521E+00
   ------------------------------------------------------------------------

         :::::::::::::::::::::::::::::::::::::::::::::::::::::
         ::                  THERMODYNAMIC                  ::
         :::::::::::::::::::::::::::::::::::::::::::::::::::::
         :: total free energy        -120.406177806949 Eh   ::
         ::.................................................::
         :: total energy             -120.945698981563 Eh   ::
         :: zero point energy           0.606555481150 Eh   ::
         :: G(RRHO) w/o ZPVE           -0.067034306537 Eh   ::
         :: G(RRHO) contrib.            0.539521174613 Eh   ::
         :::::::::::::::::::::::::::::::::::::::::::::::::::::

           -------------------------------------------------
          | TOTAL ENERGY             -120.945698981563 Eh   |
          | TOTAL ENTHALPY           -120.299755819669 Eh   |
          | TOTAL FREE ENERGY        -120.406177806949 Eh   |
          | GRADIENT NORM               0.000121976987 Eh/α |
          | HOMO-LUMO GAP               0.458981936523 eV   |
           -------------------------------------------------

 * finished run on 2025/09/07 at 05:28:00.630
