   * xtb version 6.7.1 (edcfbbe) compiled by 'albert@albert-system' on 2024-07-22

   ID    Z sym.   atoms
    1    6 C      1-4, 6-21, 23-36, 38-48
    2    7 N      5, 22, 37
    3    1 H      49-79

          program call               : xtb data2507/toluene/mTPA–PPI/mTPA–PPI_toluene_S0_finalOpt.xtbopt.xyz --gfn 2 --uhf 2 --gbsa toluene --ohess vtight --parallel 40 --molden --ceasefiles --namespace data2507/toluene/mTPA–PPI/mTPA–PPI_toluene_T1_preOpt
      * Solvation model:               GBSA
        Solvent                        toluene
        Solvent mass                       9.2140E+01 g/mol
          :  Hamiltonian                  GFN2-xTB          :
 * total energy  :  -120.9369393 Eh     change       -0.4446973E-07 Eh
 * total energy  :  -120.9411039 Eh     change       -0.4164586E-02 Eh
 * total energy  :  -120.9432323 Eh     change       -0.2128358E-02 Eh
 * total energy  :  -120.9436846 Eh     change       -0.4523364E-03 Eh
 * total energy  :  -120.9441904 Eh     change       -0.5057787E-03 Eh
 * total energy  :  -120.9444093 Eh     change       -0.2188918E-03 Eh
 * total energy  :  -120.9446133 Eh     change       -0.2040531E-03 Eh
 * total energy  :  -120.9447505 Eh     change       -0.1371996E-03 Eh
 * total energy  :  -120.9448468 Eh     change       -0.9625696E-04 Eh
 * total energy  :  -120.9449209 Eh     change       -0.7409838E-04 Eh
 * total energy  :  -120.9452467 Eh     change       -0.3552002E-06 Eh
 * total energy  :  -120.9452470 Eh     change       -0.3324070E-06 Eh
 * total energy  :  -120.9452473 Eh     change       -0.3323327E-06 Eh
 * total energy  :  -120.9452476 Eh     change       -0.2871695E-06 Eh
 * total energy  :  -120.9452479 Eh     change       -0.2933763E-06 Eh
 * total energy  :  -120.9452482 Eh     change       -0.2797772E-06 Eh
 * total energy  :  -120.9452484 Eh     change       -0.2231207E-06 Eh
 * total energy  :  -120.9452486 Eh     change       -0.1676229E-06 Eh
 * total energy  :  -120.9452486 Eh     change       -0.9566321E-09 Eh
   *** GEOMETRY OPTIMIZATION CONVERGED AFTER 68 ITERATIONS ***

 final structure:
================
79
 xtb: 6.7.1 (edcfbbe)
C            7.34205204932950       -3.40421343997548        1.60965742524297
C            6.59166297925801       -2.50262823757272        2.34848338218051
C            6.08621161638610       -1.36169787839710        1.75601760335215
C            6.32364308785165       -1.10959500312389        0.40369260820242
N            5.81710491542159        0.04585714474516       -0.20264048551381
C            6.58535044678994        0.71903631903541       -1.16008638623919
C            7.96848493948761        0.82676328815777       -1.00599287517400
C            8.72343959056866        1.48745448950705       -1.95562976321329
C            8.11594741681433        2.05358254137522       -3.06566097267811
C            6.74228180745931        1.95114029877381       -3.22205701306469
C            5.97861761166770        1.28768892731175       -2.28141674394175
C            4.55420492159037        0.52516833243160        0.14403187650051
C            3.51652060087071       -0.35752012749840        0.45849511642439
C            2.27016945405869        0.12096632258985        0.79586567845404
C            2.00639472891630        1.49318189868339        0.83521400491296
C            0.67543057168617        1.99617916657174        1.18618836406024
C            0.53326293533691        3.19579735039407        1.91131234382199
C           -0.73805313705798        3.69209158268141        2.18855749776904
C           -1.86002147528778        3.01468971965089        1.79063844197331
C           -1.75210752563330        1.76890802509127        1.10031330815903
C           -2.94552850967723        1.12648912455426        0.72402325215228
N           -4.12503503326432        1.77746137326313        0.68249098250746
C           -5.01073147971773        0.93945001299889        0.16960583828969
C           -6.37913948566670        1.20373066826225       -0.13421674685112
C           -6.92097601498651        2.47482536656508        0.06310367977173
C           -8.23465914381372        2.73701454044301       -0.27315985415641
C           -9.00619173156035        1.72188908414033       -0.81977396482409
C           -8.48061264738990        0.45684170833444       -1.01276885027378
C           -7.15837556253031        0.14859398062421       -0.66663521624008
C           -6.58950253836917       -1.18044489748129       -0.81213329451293
C           -7.36222286088323       -2.26355474357057       -1.22792555118987
C           -6.85384633072789       -3.54395000633686       -1.32928334940353
C           -5.52054061479944       -3.79238786668343       -0.98805611800130
C           -4.71791659414850       -2.76319873246449       -0.58385368575183
C           -5.20244116514851       -1.43117193269434       -0.49960527135877
C           -4.42513759861358       -0.34483114414093       -0.09008379812203
N           -3.09896776218351       -0.20687469657231        0.26533054338289
C           -2.09828760193095       -1.18608640027505        0.29403446715417
C           -1.69512328563716       -1.82333195095415       -0.88200017265530
C           -0.68892065039946       -2.76875267946131       -0.84340927649913
C           -0.07422357762182       -3.09030806072959        0.35841714396468
C           -0.47141394229395       -2.45664463336915        1.52726693461335
C           -1.47580543877324       -1.50864545193788        1.50189231174594
C           -0.45295323122681        1.30270186328310        0.79528324716866
C            3.05063574771342        2.36878921258506        0.52473248394588
C            4.29964927973684        1.89932211956629        0.18414627433897
C            7.07731193164010       -2.02197712911175       -0.33675257889386
C            7.58227881400346       -3.15724548283768        0.26688962980449
H            7.73751648042490       -4.29318154137566        2.07721652956781
H            6.40550116411495       -2.68422972617705        3.39676889339461
H            5.51359106512081       -0.65338524220540        2.33642973247725
H            8.44131828663587        0.39744145583345       -0.13495438693556
H            9.79229684541479        1.56842128714096       -1.82368644105780
H            8.70920954900810        2.57069988685682       -3.80446800118216
H            6.26241657840568        2.38356299116522       -4.08766736965986
H            4.91023049754347        1.19625412810898       -2.41120946888184
H            3.69512024185885       -1.42215710056685        0.42590590510492
H            1.48549854690853       -0.57854760454583        1.04184932342810
H            1.40666162389487        3.72116440821170        2.26402942337948
H           -0.83713692997473        4.62333703876605        2.72851621596242
H           -2.84943712594134        3.38876614493286        1.99852601139983
H           -6.28027904138430        3.23897793281644        0.47613839612867
H           -8.65329408824334        3.72029842556064       -0.11913712644540
H          -10.03167312820129        1.91649030792974       -1.09989788423379
H           -9.12095829848218       -0.29577557448239       -1.44429679839024
H           -8.40255530641921       -2.11596770671828       -1.47108841471766
H           -7.48969025711066       -4.35349731074316       -1.65480736958740
H           -5.12862348686553       -4.79797529870189       -1.03790701436727
H           -3.69849677397699       -2.96517880736784       -0.29938276436522
H           -2.17379738880819       -1.56226950326227       -1.81512933585975
H           -0.37795733575055       -3.25297985386480       -1.75735824706023
H            0.71344950244209       -3.82794781198399        0.38311493939143
H            0.00240270759916       -2.70529554538917        2.46579462414078
H           -1.78768666394971       -1.00774023803518        2.40687963803158
H           -0.33687814858157        0.42566013875839        0.17993988519156
H            2.87305124419358        3.43367127431334        0.53498656284976
H            5.09400572811050        2.59403934625638       -0.04616514683499
H            7.25513858729287       -1.83716840946119       -1.38594899179710
H            8.16043841628968       -3.85803123282223       -0.31709266158635

          :  Hamiltonian                  GFN2-xTB          :
         :: gradient norm              0.000032107159 Eh/a0 ::
         :: HOMO-LUMO gap              0.449351215725 eV    ::
         :: SCC energy              -123.210958684650 Eh    ::
         :: -> dispersion             -0.112834221314 Eh    ::
         :: -> Gsolv                  -0.052003482887 Eh    ::
         :: repulsion energy           2.265710116781 Eh    ::

    * Orbital Energies and Occupations

         #    Occupation            Energy/Eh            Energy/eV
      -------------------------------------------------------------
         1        2.0000           -0.6779099             -18.4469
       ...           ...                  ...                  ...
       102        2.0000           -0.4136561             -11.2562
       103        2.0000           -0.4119559             -11.2099
       104        2.0000           -0.4111000             -11.1866
       105        2.0000           -0.4103170             -11.1653
       106        2.0000           -0.4048415             -11.0163
       107        2.0000           -0.3966076             -10.7922
       108        2.0000           -0.3930288             -10.6949
       109        2.0000           -0.3902657             -10.6197
       110        2.0000           -0.3797610             -10.3338
       111        2.0000           -0.3750865             -10.2066
       112        1.8752           -0.3579920              -9.7415
       113        1.1248           -0.3542919              -9.6408
       114        0.9998           -0.2672422              -7.2720 (HOMO)
       115        0.0002           -0.2507292              -6.8227 (LUMO)
       116        0.0000           -0.2476840              -6.7398
       117                         -0.2413845              -6.5684
       118                         -0.2390306              -6.5044
       119                         -0.2342849              -6.3752
       120                         -0.2310805              -6.2880
       121                         -0.2302390              -6.2651
       122                         -0.2292285              -6.2376
       123                         -0.2272447              -6.1836
       124                         -0.2152512              -5.8573
       125                         -0.2059995              -5.6055
       ...                                ...                  ...
       223                          0.7319594              19.9176
      -------------------------------------------------------------
                  HL-Gap            0.0165130 Eh            0.4493 eV

     #   Z          covCN         q      C6AA      α(0)
     1   6 C        2.919    -0.033    28.832     8.805
     2   6 C        2.919    -0.027    28.683     8.782
     3   6 C        2.921    -0.043    29.078     8.843
     4   6 C        2.925     0.064    26.559     8.451
     5   7 N        2.752    -0.050    22.204     6.999
     6   6 C        2.925     0.064    26.559     8.451
     7   6 C        2.921    -0.043    29.080     8.843
     8   6 C        2.919    -0.027    28.683     8.783
     9   6 C        2.919    -0.033    28.827     8.805
    10   6 C        2.919    -0.027    28.681     8.782
    11   6 C        2.921    -0.043    29.075     8.842
    12   6 C        2.924     0.063    26.599     8.458
    13   6 C        2.919    -0.045    29.116     8.849
    14   6 C        2.923    -0.033    28.830     8.805
    15   6 C        2.976     0.008    27.845     8.656
    16   6 C        2.969     0.007    27.870     8.659
    17   6 C        2.921    -0.046    29.145     8.853
    18   6 C        2.909    -0.032    28.806     8.801
    19   6 C        2.925    -0.037    28.928     8.820
    20   6 C        2.966    -0.013    28.327     8.730
    21   6 C        3.133     0.126    25.037     8.191
    22   7 N        1.876    -0.321    29.181     8.008
    23   6 C        3.163     0.083    25.829     8.307
    24   6 C        2.983    -0.008    28.206     8.712
    25   6 C        2.922    -0.030    28.757     8.794
    26   6 C        2.915    -0.035    28.883     8.813
    27   6 C        2.917    -0.030    28.737     8.791
    28   6 C        2.922    -0.039    28.972     8.827
    29   6 C        2.976    -0.002    28.069     8.690
    30   6 C        2.975    -0.009    28.237     8.716
    31   6 C        2.918    -0.034    28.850     8.808
    32   6 C        2.915    -0.039    28.979     8.827
    33   6 C        2.912    -0.035    28.874     8.811
    34   6 C        2.916    -0.041    29.010     8.832
    35   6 C        2.971    -0.019    28.480     8.754
    36   6 C        3.025     0.038    27.134     8.544
    37   7 N        2.809    -0.081    22.817     7.094
    38   6 C        2.908     0.065    26.552     8.449
    39   6 C        2.920    -0.042    29.052     8.839
    40   6 C        2.918    -0.030    28.747     8.792
    41   6 C        2.918    -0.037    28.924     8.819
    42   6 C        2.918    -0.029    28.717     8.788
    43   6 C        2.920    -0.042    29.043     8.838
    44   6 C        2.923    -0.050    29.237     8.867
    45   6 C        2.923    -0.033    28.815     8.803
    46   6 C        2.919    -0.045    29.127     8.850
    47   6 C        2.922    -0.044    29.083     8.844
    48   6 C        2.919    -0.027    28.685     8.783
    49   1 H        0.926     0.039     2.463     2.454
    50   1 H        0.926     0.040     2.447     2.446
    51   1 H        0.926     0.039     2.460     2.453
    52   1 H        0.926     0.040     2.455     2.450
    53   1 H        0.926     0.041     2.438     2.442
    54   1 H        0.926     0.039     2.460     2.453
    55   1 H        0.926     0.040     2.449     2.447
    56   1 H        0.926     0.039     2.467     2.456
    57   1 H        0.926     0.039     2.456     2.451
    58   1 H        0.926     0.038     2.474     2.460
    59   1 H        0.926     0.032     2.560     2.502
    60   1 H        0.926     0.030     2.584     2.514
    61   1 H        0.926     0.041     2.437     2.441
    62   1 H        0.926     0.044     2.398     2.422
    63   1 H        0.926     0.034     2.536     2.490
    64   1 H        0.926     0.034     2.525     2.485
    65   1 H        0.926     0.034     2.524     2.484
    66   1 H        0.926     0.033     2.544     2.494
    67   1 H        0.926     0.028     2.613     2.528
    68   1 H        0.926     0.027     2.631     2.537
    69   1 H        0.926     0.027     2.622     2.532
    70   1 H        0.926     0.033     2.548     2.496
    71   1 H        0.926     0.038     2.474     2.460
    72   1 H        0.926     0.038     2.474     2.460
    73   1 H        0.926     0.038     2.475     2.460
    74   1 H        0.926     0.030     2.593     2.518
    75   1 H        0.926     0.024     2.676     2.558
    76   1 H        0.926     0.042     2.419     2.432
    77   1 H        0.926     0.040     2.445     2.445
    78   1 H        0.926     0.039     2.461     2.453
    79   1 H        0.926     0.040     2.443     2.444

molecular dipole:
                 x           y           z       tot (Debye)
 q only:        3.924      -0.667      -0.334
   full:        3.880      -1.024      -0.436      10.260

 projected vibrational frequencies (cm⁻¹)
eigval :       -0.00    -0.00    -0.00    -0.00     0.00     0.00
eigval :       10.08    10.98    18.20    22.10    32.38    41.86
eigval :       44.44    50.86    59.51    60.03    67.44    71.68
eigval :       77.94    84.41    94.51   106.32   110.12   132.60
eigval :      144.47   159.41   191.69   193.46   207.09   215.59
eigval :      225.82   235.27   237.14   257.87   259.37   278.16
eigval :      293.32   310.68   313.63   343.48   362.93   374.29
eigval :      376.46   377.56   379.75   386.50   388.69   388.79
eigval :      396.17   403.39   412.99   431.19   436.44   457.47
eigval :      473.68   481.46   482.69   499.14   508.14   516.32
eigval :      520.32   538.29   579.38   579.87   581.78   586.85
eigval :      591.53   593.60   603.05   612.48   621.54   630.40
eigval :      636.78   643.03   654.54   658.77   659.55   661.54
eigval :      665.95   684.97   687.17   692.91   717.81   721.18
eigval :      747.20   748.38   754.44   755.92   757.77   766.75
eigval :      767.72   816.12   823.56   835.62   843.56   847.99
eigval :      855.90   866.99   869.97   870.65   871.40   887.47
eigval :      891.96   895.32   895.86   905.37   908.18   908.50
eigval :      910.59   911.35   914.55   916.30   919.47   924.78
eigval :      925.49   926.44   926.72   928.01   929.26   931.55
eigval :      935.14   955.43   978.76   982.63   992.41  1002.39
eigval :     1015.35  1045.02  1073.90  1075.47  1079.30  1080.20
eigval :     1081.03  1087.22  1098.01  1114.73  1119.58  1121.73
eigval :     1123.54  1130.15  1145.65  1151.86  1173.02  1175.34
eigval :     1175.75  1176.98  1177.79  1177.94  1180.20  1182.20
eigval :     1191.29  1192.71  1194.23  1207.34  1213.72  1238.68
eigval :     1244.00  1256.73  1267.19  1268.42  1272.05  1273.26
eigval :     1275.07  1276.28  1284.01  1300.65  1311.80  1314.15
eigval :     1315.19  1321.74  1323.77  1325.81  1335.74  1346.48
eigval :     1348.08  1352.86  1376.40  1391.39  1393.87  1411.07
eigval :     1414.84  1425.81  1430.94  1431.92  1437.20  1438.31
eigval :     1461.02  1461.47  1464.75  1467.33  1475.06  1492.85
eigval :     1498.01  1530.25  1535.28  1542.42  1545.89  1546.32
eigval :     1550.46  1564.96  1569.52  1572.74  1575.85  1582.77
eigval :     1584.60  1592.01  3066.05  3070.07  3071.71  3074.38
eigval :     3074.81  3077.06  3077.43  3077.83  3078.38  3080.89
eigval :     3082.04  3083.04  3083.22  3083.53  3085.97  3086.50
eigval :     3087.27  3089.09  3090.10  3091.87  3094.65  3095.23
eigval :     3096.12  3096.76  3097.58  3097.97  3098.28  3104.96
eigval :     3110.64  3114.77  3121.72

   temp. (K)  partition function   enthalpy   heat capacity  entropy
                                   cal/mol     cal/K/mol   cal/K/mol   J/K/mol
 298.15  VIB  0.212E+18            22288.516    142.502    138.866
         ROT  0.916E+08              888.752      2.981     39.413
         INT  0.195E+26            23177.268    145.483    178.279
         TR   0.147E+29             1481.254      4.968     45.106
         TOT                       24658.5220   150.4513   223.3847   934.6415

       T/K    H(0)-H(T)+PV         H(T)/Eh          T*S/Eh         G(T)/Eh
   ------------------------------------------------------------------------
    298.15    0.392959E-01    0.646066E+00    0.106137E+00    0.539929E+00
   ------------------------------------------------------------------------

         :::::::::::::::::::::::::::::::::::::::::::::::::::::
         ::                  THERMODYNAMIC                  ::
         :::::::::::::::::::::::::::::::::::::::::::::::::::::
         :: total free energy        -120.405319353653 Eh   ::
         ::.................................................::
         :: total energy             -120.945248570446 Eh   ::
         :: zero point energy           0.606770635716 Eh   ::
         :: G(RRHO) w/o ZPVE           -0.066841418923 Eh   ::
         :: G(RRHO) contrib.            0.539929216793 Eh   ::
         :::::::::::::::::::::::::::::::::::::::::::::::::::::

           -------------------------------------------------
          | TOTAL ENERGY             -120.945248570446 Eh   |
          | TOTAL ENTHALPY           -120.299182078689 Eh   |
          | TOTAL FREE ENERGY        -120.405319353653 Eh   |
          | GRADIENT NORM               0.000031922933 Eh/α |
          | HOMO-LUMO GAP               0.449342315405 eV   |
           -------------------------------------------------

 * finished run on 2025/09/07 at 05:20:53.357
