   * xtb version 6.7.1 (edcfbbe) compiled by 'albert@albert-system' on 2024-07-22

   ID    Z sym.   atoms
    1    8 O      1, 3, 15
    2   16 S      2
    3    6 C      4-7, 9-14, 16-35, 37-42
    4    7 N      8, 36
    5    1 H      43-66

          program call               : xtb data2507/gas/3CP-DPS-PXZ/3CP-DPS-PXZ_gas_T1_crest.xyz --gfn 2 --spinpol --tblite --uhf 2 --ohess vtight --parallel 40 --molden --ceasefiles --namespace data2507/gas/3CP-DPS-PXZ/3CP-DPS-PXZ_gas_T1_finalOpt
 * total energy  :  -110.5561564 Eh     change       -0.5059064E-09 Eh
 * total energy  :  -110.5561642 Eh     change       -0.7830743E-05 Eh
 * total energy  :  -110.5561675 Eh     change       -0.3307763E-05 Eh
 * total energy  :  -110.5561692 Eh     change       -0.1707921E-05 Eh
 * total energy  :  -110.5561720 Eh     change       -0.2823432E-05 Eh
 * total energy  :  -110.5561743 Eh     change       -0.2268361E-05 Eh
 * total energy  :  -110.5561770 Eh     change       -0.2671371E-05 Eh
 * total energy  :  -110.5561789 Eh     change       -0.1936107E-05 Eh
 * total energy  :  -110.5561797 Eh     change       -0.7434948E-06 Eh
 * total energy  :  -110.5561803 Eh     change       -0.6511392E-06 Eh
 * total energy  :  -110.5561809 Eh     change       -0.5874878E-06 Eh
 * total energy  :  -110.5561813 Eh     change       -0.3828641E-06 Eh
 * total energy  :  -110.5561817 Eh     change       -0.3767163E-06 Eh
 * total energy  :  -110.5561820 Eh     change       -0.3396617E-06 Eh
 * total energy  :  -110.5561822 Eh     change       -0.2499995E-06 Eh
 * total energy  :  -110.5561824 Eh     change       -0.1851252E-06 Eh
 * total energy  :  -110.5561824 Eh     change        0.2247739E-07 Eh
 * total energy  :  -110.5561825 Eh     change       -0.9794380E-07 Eh
   *** GEOMETRY OPTIMIZATION CONVERGED AFTER 18 ITERATIONS ***

 final structure:
================
66
 xtb: 6.7.1 (edcfbbe)
O           -0.30526523107285        4.27535099583534       -2.11416074836471
S           -0.33960898068996        3.84577976708758       -0.73982672636667
O           -0.49766525658000        4.84839471652094        0.28194091609338
C            1.09677861805346        2.83889822189593       -0.41437506724706
C            1.32889328584587        2.41228533857090        0.88922831158297
C            2.23040215095699        1.39930652912200        1.12576473345236
C            2.88568639661816        0.79757025862306        0.04521837082063
N            3.71244680958922       -0.33948861389445        0.26104603236032
C            3.19994838008883       -1.58215599753246        0.00073955812536
C            1.86412267395399       -1.79909338301270       -0.37226483832047
C            1.41116857267289       -3.06040451542592       -0.64990184471387
C            2.28893839267489       -4.17428117031196       -0.57582746337970
C            3.59797415954384       -3.99786467969820       -0.20073560708887
C            4.07926580275470       -2.72648081243680        0.10436185204700
O            5.36311105574741       -2.58819082231441        0.48884434273351
C            5.83839163730095       -1.36346710444817        0.78699419535711
C            7.16894910287223       -1.23395249470628        1.18365138834821
C            7.68891447449286        0.00191544096863        1.47591988526868
C            6.87915036157093        1.16171028054314        1.36462554869436
C            5.57223785703674        1.06240008987702        0.96649330211379
C            5.00659148104494       -0.18652887114026        0.67804726100518
C            2.68384197824762        1.25742678188442       -1.25900570664084
C            1.78867686830711        2.27790281749518       -1.48561254263737
C           -1.60739598471879        2.59303058833712       -0.51735443893377
C           -2.64014048551591        2.80546657261339        0.38874502019225
C           -3.55910449589422        1.80955411934706        0.66022181160972
C           -3.39698089404201        0.58474317694007        0.02393453922577
C           -2.34991527586375        0.37566865169061       -0.91124293185830
C           -1.45246660323228        1.39569915498934       -1.18443257448206
C           -2.48188256525471       -0.97419977104119       -1.37905226875705
C           -1.74437056808794       -1.75534755314200       -2.25970961798219
C           -2.13333139852991       -3.06450739230840       -2.46332462306835
C           -3.23298368882400       -3.59791836172148       -1.79408631747897
C           -3.98154619587126       -2.83954391881317       -0.91378487333269
C           -3.60734605699783       -1.51762536722743       -0.71858368612453
N           -4.15043455492870       -0.56363654580002        0.12060620979897
C           -5.28356890619745       -0.73905280206800        0.93168421253146
C           -5.22976074884542       -0.42721912703730        2.28665819430194
C           -6.35082031022889       -0.59757750892613        3.07782111151003
C           -7.52492031405442       -1.08735743716669        2.53005778790100
C           -7.57730750160993       -1.40365440252418        1.18257825803604
C           -6.46459064024439       -1.22730734139733        0.38113702726711
H            0.78318264160415        2.88218537985214        1.69193582373332
H            2.41895615877866        1.04074505432687        2.12642220824146
H            1.19362571332265       -0.95501160387462       -0.42911136227836
H            0.38009811126095       -3.21305263464304       -0.92574459563024
H            1.91844882995621       -5.15878657461692       -0.80898479063566
H            4.28074263534966       -4.82981602378329       -0.12650939113831
H            7.76727659710201       -2.12893520446112        1.25191568189406
H            8.71638530338358        0.09925474172667        1.78563880626997
H            7.30260054069170        2.12631338180605        1.59185662343364
H            4.95754392778235        1.94438597540371        0.87067387105928
H            3.21736375078787        0.79141017419839       -2.07400500452819
H            1.59268038702806        2.65518776637755       -2.47682654532801
H           -2.69947258033576        3.76846791022181        0.87026330221066
H           -4.37592677339707        1.98159607379591        1.34397034059138
H           -0.65177226268672        1.26622956997458       -1.89528768758573
H           -0.88434944858244       -1.34424951621080       -2.76626564822311
H           -1.57579493980915       -3.68996259441928       -3.14462800125515
H           -3.50467017627827       -4.62914693360675       -1.96414307637684
H           -4.82124763354338       -3.26737491093652       -0.38758113191332
H           -4.30619864151201       -0.06622201320686        2.71383625563440
H           -6.30479091501259       -0.35368223766700        4.12871157432661
H           -8.39694533056005       -1.22203049988040        3.15168697141924
H           -8.49191195452487       -1.78187903042552        0.75084398601527
H           -6.50666729199462       -1.45201263399876       -0.67411425373574

 projected vibrational frequencies (cm⁻¹)
eigval :       -0.00    -0.00    -0.00     0.00     0.00     0.00
eigval :        4.96     8.37    23.84    29.38    30.33    40.51
eigval :       45.46    54.34    65.15    76.08    81.26    91.20
eigval :       94.05   111.08   117.85   145.22   154.05   169.91
eigval :      182.65   204.99   213.03   229.36   241.87   252.86
eigval :      257.64   267.90   273.34   312.17   336.17   344.71
eigval :      357.07   365.80   369.04   380.26   381.28   383.99
eigval :      392.83   405.07   409.99   411.21   426.72   428.93
eigval :      439.90   451.21   458.49   475.99   502.24   504.36
eigval :      511.69   535.69   536.61   555.55   571.81   573.41
eigval :      586.86   591.82   593.20   601.01   605.22   612.15
eigval :      614.88   635.86   639.92   657.59   671.33   675.85
eigval :      702.93   708.15   725.38   736.71   737.96   763.78
eigval :      777.36   786.85   788.18   802.00   819.64   830.16
eigval :      831.54   833.49   854.17   869.44   873.05   880.99
eigval :      883.10   887.04   887.67   890.64   894.19   895.42
eigval :      898.81   899.42   903.83   906.36   911.59   913.01
eigval :      923.15   923.67   933.47   934.13   985.91   997.67
eigval :     1016.85  1024.39  1041.33  1070.24  1072.08  1079.91
eigval :     1080.83  1108.70  1112.50  1117.05  1117.74  1118.80
eigval :     1124.12  1141.57  1156.55  1158.68  1166.98  1177.11
eigval :     1179.21  1180.86  1181.33  1182.52  1197.79  1217.45
eigval :     1226.65  1228.60  1237.85  1239.98  1243.87  1261.60
eigval :     1270.67  1275.17  1302.32  1313.67  1317.46  1318.13
eigval :     1318.27  1324.55  1338.57  1355.37  1358.95  1365.33
eigval :     1375.84  1377.38  1399.12  1413.07  1417.98  1425.16
eigval :     1428.08  1429.45  1435.67  1452.14  1459.41  1460.45
eigval :     1465.34  1480.54  1481.71  1485.05  1495.24  1545.86
eigval :     1557.51  1569.53  1580.48  1585.45  1593.06  1598.91
eigval :     3079.09  3081.80  3083.54  3084.89  3085.20  3088.04
eigval :     3091.34  3091.69  3092.10  3093.21  3094.35  3095.98
eigval :     3097.78  3099.31  3100.10  3100.28  3101.56  3105.38
eigval :     3105.97  3106.00  3108.49  3110.99  3115.64  3117.22

   temp. (K)  partition function   enthalpy   heat capacity  entropy
                                   cal/mol     cal/K/mol   cal/K/mol   J/K/mol
 298.15  VIB  0.435E+16            19709.861    124.913    123.006
         ROT  0.563E+08              888.752      2.981     38.446
         INT  0.245E+24            20598.614    127.894    161.451
         TR   0.130E+29             1481.254      4.968     44.858
         TOT                       22079.8675   132.8623   206.3089   863.1965

       T/K    H(0)-H(T)+PV         H(T)/Eh          T*S/Eh         G(T)/Eh
   ------------------------------------------------------------------------
    298.15    0.351865E-01    0.522098E+00    0.980240E-01    0.424074E+00
   ------------------------------------------------------------------------

         :::::::::::::::::::::::::::::::::::::::::::::::::::::
         ::                  THERMODYNAMIC                  ::
         :::::::::::::::::::::::::::::::::::::::::::::::::::::
         :: total free energy        -110.132108790478 Eh   ::
         ::.................................................::
         :: total energy             -110.556182524725 Eh   ::
         :: zero point energy           0.486911253798 Eh   ::
         :: G(RRHO) w/o ZPVE           -0.062837519551 Eh   ::
         :: G(RRHO) contrib.            0.424073734247 Eh   ::
         :::::::::::::::::::::::::::::::::::::::::::::::::::::

           -------------------------------------------------
          | TOTAL ENERGY             -110.556182524725 Eh   |
          | TOTAL ENTHALPY           -110.034084762271 Eh   |
          | TOTAL FREE ENERGY        -110.132108790478 Eh   |
          | GRADIENT NORM               0.000070540438 Eh/α |
           -------------------------------------------------

 * finished run on 2025/07/20 at 14:05:59.108
