   * xtb version 6.7.1 (edcfbbe) compiled by 'albert@albert-system' on 2024-07-22

   ID    Z sym.   atoms
    1    8 O      1, 3, 15
    2   16 S      2
    3    6 C      4-7, 9-14, 16-35, 37-42
    4    7 N      8, 36
    5    1 H      43-66

          program call               : xtb data2507/gas/3CP-DPS-PXZ/3CP-DPS-PXZ_gas_S0_crest.xyz --gfn 2 --ohess vtight --parallel 40 --molden --ceasefiles --namespace data2507/gas/3CP-DPS-PXZ/3CP-DPS-PXZ_gas_S0_finalOpt
          :  Hamiltonian                  GFN2-xTB          :
 * total energy  :  -110.6481817 Eh     change       -0.2486487E-08 Eh
 * total energy  :  -110.6481828 Eh     change       -0.1157190E-05 Eh
 * total energy  :  -110.6481844 Eh     change       -0.1524539E-05 Eh
 * total energy  :  -110.6481857 Eh     change       -0.1332051E-05 Eh
 * total energy  :  -110.6481871 Eh     change       -0.1416856E-05 Eh
 * total energy  :  -110.6481886 Eh     change       -0.1449110E-05 Eh
 * total energy  :  -110.6481897 Eh     change       -0.1148323E-05 Eh
 * total energy  :  -110.6481905 Eh     change       -0.8196665E-06 Eh
 * total energy  :  -110.6481912 Eh     change       -0.7030405E-06 Eh
 * total energy  :  -110.6481920 Eh     change       -0.7575282E-06 Eh
 * total energy  :  -110.6481954 Eh     change       -0.8174389E-06 Eh
 * total energy  :  -110.6481962 Eh     change       -0.8510119E-06 Eh
 * total energy  :  -110.6481971 Eh     change       -0.8896016E-06 Eh
 * total energy  :  -110.6481980 Eh     change       -0.8393934E-06 Eh
 * total energy  :  -110.6481987 Eh     change       -0.7108276E-06 Eh
 * total energy  :  -110.6481993 Eh     change       -0.5891285E-06 Eh
 * total energy  :  -110.6481998 Eh     change       -0.5093550E-06 Eh
 * total energy  :  -110.6482003 Eh     change       -0.4722639E-06 Eh
 * total energy  :  -110.6482003 Eh     change       -0.6217888E-08 Eh
   *** GEOMETRY OPTIMIZATION CONVERGED AFTER 22 ITERATIONS ***

 final structure:
================
66
 xtb: 6.7.1 (edcfbbe)
O           -0.29003966052756        4.31156490998541       -1.73810070717601
S           -0.38134227821035        3.76604414056887       -0.40936344226777
O           -0.57306786821775        4.68325591130491        0.68277301374617
C            1.06549398636308        2.73853097443349       -0.11489533957770
C            1.11540943106048        2.01850970153306        1.06498109353612
C            2.07793022542281        1.04046782086133        1.22207101124908
C            2.98033164933055        0.78346741547269        0.19010130825684
N            3.88058131182431       -0.29450518488236        0.30892113876131
C            3.39201924305456       -1.60500319526746        0.30754439074180
C            2.03826615119231       -1.89463178391763        0.19122679475048
C            1.58969423798124       -3.20720620692326        0.18435328641532
C            2.48805309610064       -4.24982358265396        0.28423090668657
C            3.84557245420736       -3.97796858439093        0.37528890719039
C            4.29798425951735       -2.67155202100681        0.38065440233643
O            5.65566977910804       -2.48206581521207        0.44570253625163
C            6.12026371508666       -1.19067698560504        0.38895660455891
C            7.49069830095671       -1.01269646331768        0.41566324467034
C            8.03086426434094        0.26499298058146        0.38986394363008
C            7.19141924376699        1.35966260031631        0.35021743634025
C            5.81566636712605        1.18704872000095        0.32101988281247
C            5.26158916572282       -0.08597405200867        0.32190708879171
C            2.95447727934499        1.55371744564876       -0.97031272892940
C            1.98595295364679        2.52945433483802       -1.12357698746780
C           -1.66787990122865        2.51324198021083       -0.33780573058637
C           -2.86585044598939        2.79972692781479        0.30496860034278
C           -3.84673872896701        1.83534298919706        0.43519235002502
C           -3.58047950290428        0.56618080750193       -0.06654214324615
C           -2.36215688705949        0.28209225834244       -0.73575429993479
C           -1.40397656232837        1.27362911745764       -0.88102346496503
C           -2.41942258660293       -1.09813311562880       -1.12347911030384
C           -1.52411343052235       -1.94934806664314       -1.75911571535774
C           -1.88902906580689       -3.26721296257937       -1.94603402592486
C           -3.12221456692130       -3.74001788610585       -1.50039129049638
C           -4.02754361136417       -2.91248050292667       -0.86424084836057
C           -3.67330037698622       -1.58251125612382       -0.68668577409093
N           -4.36269716874292       -0.56425129453664       -0.05562477996058
C           -5.64527901880168       -0.67394452674954        0.50919853741494
C           -5.86671116711388       -0.27514260246681        1.82331460251603
C           -7.13164924713101       -0.38315056168775        2.37152092921260
C           -8.17657117104034       -0.89609851574008        1.62110795884509
C           -7.95495274939828       -1.29836246080394        0.31446823032063
C           -6.69578173520260       -1.18523015596475       -0.24576392764744
H            0.39131478432242        2.22473598796448        1.83776347715806
H            2.12487772897579        0.45024701106049        2.12481500903976
H            1.32357784952043       -1.09117114957171        0.10224728118810
H            0.53121010181655       -3.39946977569727        0.09524206674859
H            2.14579861428682       -5.27256330989407        0.28319917839817
H            4.57424042835059       -4.77019185284213        0.43864571346737
H            8.11914132779922       -1.88757809117228        0.46245514475854
H            9.10137793648364        0.39392014279420        0.41036393038731
H            7.59717304817100        2.35942216507238        0.34578096881481
H            5.16714496655493        2.04917352921367        0.30676359775803
H            3.66779745959600        1.35682684922468       -1.75674326219913
H            1.90540038547635        3.11402291363250       -2.02680377656954
H           -3.00213949278038        3.79243882032744        0.70334159228399
H           -4.78708253973401        2.06256527048458        0.91278013576245
H           -0.47712705881290        1.08420246244807       -1.39945356571006
H           -0.56344881512030       -1.58580718703142       -2.09080801115003
H           -1.20863981154238       -3.94691289842625       -2.43656212057906
H           -3.37394221239034       -4.77918745260428       -1.65109778566154
H           -4.97207889124454       -3.29276684450940       -0.50622050195355
H           -5.04429026742126        0.10415224877768        2.41111970079343
H           -7.29968805243834       -0.07242687075477        3.39180043968966
H           -9.16159047436779       -0.98231631382503        2.05376992110235
H           -8.76799268689204       -1.69517505867801       -0.27482945173589
H           -6.52186591559488       -1.47835250262156       -1.27028716180252

          :  Hamiltonian                  GFN2-xTB          :
         :: gradient norm              0.000059614883 Eh/a0 ::
         :: HOMO-LUMO gap              2.228879975548 eV    ::
         :: SCC energy              -112.519456465742 Eh    ::
         :: -> dispersion             -0.096230977953 Eh    ::
         :: repulsion energy           1.871256205522 Eh    ::

    * Orbital Energies and Occupations

         #    Occupation            Energy/Eh            Energy/eV
      -------------------------------------------------------------
         1        2.0000           -0.7645171             -20.8036
       ...           ...                  ...                  ...
        89        2.0000           -0.4290959             -11.6763
        90        2.0000           -0.4275900             -11.6353
        91        2.0000           -0.4255648             -11.5802
        92        2.0000           -0.4251799             -11.5697
        93        2.0000           -0.4238037             -11.5323
        94        2.0000           -0.4216181             -11.4728
        95        2.0000           -0.4185302             -11.3888
        96        2.0000           -0.4157247             -11.3124
        97        2.0000           -0.4016410             -10.9292
        98        2.0000           -0.3968913             -10.8000
        99        2.0000           -0.3933556             -10.7037
       100        2.0000           -0.3799696             -10.3395
       101        2.0000           -0.3470146              -9.4427 (HOMO)
       102                         -0.2651047              -7.2139 (LUMO)
       103                         -0.2640003              -7.1838
       104                         -0.2534581              -6.8969
       105                         -0.2504776              -6.8158
       106                         -0.2439716              -6.6388
       107                         -0.2429371              -6.6107
       108                         -0.2409832              -6.5575
       109                         -0.2325044              -6.3268
       110                         -0.2176002              -5.9212
       111                         -0.2123881              -5.7794
       112                         -0.2032858              -5.5317
       ...                                ...                  ...
       197                          1.2197678              33.1916
      -------------------------------------------------------------
                  HL-Gap            0.0819099 Eh            2.2289 eV

     #   Z          covCN         q      C6AA      α(0)
     1   8 O        0.860    -0.540    24.691     6.662
     2  16 S        3.820     0.944   108.274    17.513
     3   8 O        0.860    -0.539    24.665     6.659
     4   6 C        2.971    -0.075    29.876     8.966
     5   6 C        2.963    -0.028    28.691     8.786
     6   6 C        2.924    -0.036    28.899     8.816
     7   6 C        2.923     0.073    26.376     8.422
     8   7 N        2.752    -0.071    22.623     7.064
     9   6 C        2.923     0.042    27.068     8.532
    10   6 C        2.923    -0.061    29.516     8.909
    11   6 C        2.919    -0.039    28.962     8.825
    12   6 C        2.919    -0.040    28.992     8.830
    13   6 C        2.920    -0.056    29.393     8.891
    14   6 C        2.883     0.126    25.244     8.237
    15   8 O        1.709    -0.254    18.206     5.761
    16   6 C        2.883     0.125    25.263     8.240
    17   6 C        2.920    -0.056    29.383     8.889
    18   6 C        2.919    -0.040    28.986     8.829
    19   6 C        2.919    -0.038    28.942     8.822
    20   6 C        2.923    -0.060    29.490     8.905
    21   6 C        2.921     0.042    27.064     8.531
    22   6 C        2.923    -0.037    28.918     8.819
    23   6 C        2.951    -0.025    28.626     8.775
    24   6 C        2.971    -0.085    30.120     9.002
    25   6 C        2.957    -0.028    28.705     8.788
    26   6 C        2.911    -0.046    29.152     8.854
    27   6 C        3.073     0.051    26.772     8.484
    28   6 C        3.074    -0.011    28.223     8.710
    29   6 C        2.955    -0.035    28.880     8.814
    30   6 C        3.065    -0.016    28.333     8.728
    31   6 C        2.912    -0.031    28.764     8.794
    32   6 C        2.920    -0.038    28.950     8.823
    33   6 C        2.924    -0.031    28.771     8.796
    34   6 C        2.909    -0.048    29.201     8.861
    35   6 C        3.079     0.048    26.832     8.492
    36   7 N        2.803    -0.036    21.929     6.955
    37   6 C        2.914     0.063    26.592     8.456
    38   6 C        2.922    -0.042    29.041     8.837
    39   6 C        2.920    -0.027    28.665     8.780
    40   6 C        2.919    -0.031    28.770     8.796
    41   6 C        2.920    -0.027    28.667     8.780
    42   6 C        2.922    -0.041    29.013     8.833
    43   1 H        0.926     0.053     2.285     2.364
    44   1 H        0.926     0.056     2.242     2.342
    45   1 H        0.926     0.030     2.593     2.518
    46   1 H        0.926     0.037     2.491     2.468
    47   1 H        0.926     0.039     2.460     2.453
    48   1 H        0.926     0.052     2.292     2.367
    49   1 H        0.926     0.052     2.297     2.370
    50   1 H        0.926     0.040     2.448     2.447
    51   1 H        0.926     0.039     2.466     2.456
    52   1 H        0.926     0.035     2.519     2.482
    53   1 H        0.926     0.057     2.233     2.337
    54   1 H        0.926     0.071     2.078     2.254
    55   1 H        0.926     0.062     2.175     2.306
    56   1 H        0.926     0.047     2.354     2.399
    57   1 H        0.926     0.036     2.500     2.473
    58   1 H        0.926     0.035     2.512     2.479
    59   1 H        0.926     0.035     2.510     2.477
    60   1 H        0.926     0.036     2.501     2.473
    61   1 H        0.926     0.034     2.532     2.489
    62   1 H        0.926     0.042     2.422     2.434
    63   1 H        0.926     0.041     2.435     2.440
    64   1 H        0.926     0.040     2.447     2.446
    65   1 H        0.926     0.041     2.437     2.441
    66   1 H        0.926     0.044     2.402     2.424

molecular dipole:
                 x           y           z       tot (Debye)
 q only:       -1.079      -2.431       0.527
   full:       -1.187      -2.301       0.543       6.724

 projected vibrational frequencies (cm⁻¹)
eigval :       -0.00    -0.00    -0.00     0.00     0.00     0.00
eigval :        6.33    10.65    19.94    32.05    34.04    44.21
eigval :       50.06    53.10    57.22    64.62    80.94    94.53
eigval :      109.46   115.60   119.21   150.26   156.62   172.52
eigval :      194.14   207.87   215.19   241.44   248.16   253.30
eigval :      260.58   272.13   273.40   305.10   341.06   349.07
eigval :      363.20   365.69   373.15   380.08   393.05   398.22
eigval :      407.01   413.59   422.93   429.24   430.07   446.06
eigval :      448.94   474.51   486.49   504.48   510.63   522.08
eigval :      527.05   537.70   550.76   560.42   575.38   586.51
eigval :      588.62   592.20   600.31   603.71   613.20   642.02
eigval :      657.51   660.67   662.47   671.67   678.31   688.21
eigval :      709.73   718.46   728.46   764.42   777.49   779.71
eigval :      782.11   800.58   803.47   814.03   821.90   854.84
eigval :      865.16   866.30   871.77   875.92   879.20   883.70
eigval :      897.98   899.16   899.84   904.60   907.97   912.73
eigval :      914.43   914.95   916.35   918.67   921.43   924.30
eigval :      925.21   930.52   934.13   934.35   998.35  1005.54
eigval :     1017.72  1070.36  1080.09  1084.14  1089.38  1091.07
eigval :     1101.08  1108.18  1113.79  1117.56  1118.46  1124.69
eigval :     1129.10  1142.35  1167.12  1174.78  1175.87  1177.33
eigval :     1180.02  1180.81  1187.97  1197.88  1200.89  1219.38
eigval :     1223.34  1238.15  1240.64  1242.69  1248.47  1261.52
eigval :     1272.28  1275.72  1303.94  1308.34  1310.74  1316.92
eigval :     1317.56  1339.38  1355.22  1355.42  1359.85  1366.73
eigval :     1395.01  1413.92  1424.16  1428.99  1435.41  1441.95
eigval :     1459.45  1464.21  1482.62  1483.75  1489.34  1505.10
eigval :     1565.60  1567.29  1572.40  1575.40  1580.98  1582.88
eigval :     1585.68  1589.97  1590.64  1595.56  1603.18  1611.00
eigval :     3081.67  3082.86  3084.53  3086.35  3086.92  3090.29
eigval :     3090.99  3091.65  3092.44  3093.35  3095.04  3096.43
eigval :     3096.92  3097.64  3098.92  3100.37  3102.24  3102.30
eigval :     3103.61  3105.48  3105.97  3111.85  3113.39  3114.07

   temp. (K)  partition function   enthalpy   heat capacity  entropy
                                   cal/mol     cal/K/mol   cal/K/mol   J/K/mol
 298.15  VIB  0.163E+16            19339.072    122.753    120.475
         ROT  0.574E+08              888.752      2.981     38.484
         INT  0.938E+23            20227.825    125.734    158.959
         TR   0.130E+29             1481.254      4.968     44.858
         TOT                       21709.0786   130.7019   203.8164   852.7679

       T/K    H(0)-H(T)+PV         H(T)/Eh          T*S/Eh         G(T)/Eh
   ------------------------------------------------------------------------
    298.15    0.345956E-01    0.526482E+00    0.968398E-01    0.429643E+00
   ------------------------------------------------------------------------

         :::::::::::::::::::::::::::::::::::::::::::::::::::::
         ::                  THERMODYNAMIC                  ::
         :::::::::::::::::::::::::::::::::::::::::::::::::::::
         :: total free energy        -110.218557539099 Eh   ::
         ::.................................................::
         :: total energy             -110.648200260219 Eh   ::
         :: zero point energy           0.491886863277 Eh   ::
         :: G(RRHO) w/o ZPVE           -0.062244142157 Eh   ::
         :: G(RRHO) contrib.            0.429642721120 Eh   ::
         :::::::::::::::::::::::::::::::::::::::::::::::::::::

           -------------------------------------------------
          | TOTAL ENERGY             -110.648200260219 Eh   |
          | TOTAL ENTHALPY           -110.121717778106 Eh   |
          | TOTAL FREE ENERGY        -110.218557539099 Eh   |
          | GRADIENT NORM               0.000059614078 Eh/α |
          | HOMO-LUMO GAP               2.228880650503 eV   |
           -------------------------------------------------

 * finished run on 2025/07/20 at 13:57:24.989
