   * xtb version 6.7.1 (edcfbbe) compiled by 'albert@albert-system' on 2024-07-22

   ID    Z sym.   atoms
    1    8 O      1, 3, 15
    2   16 S      2
    3    6 C      4-7, 9-14, 16-35, 37-42
    4    7 N      8, 36
    5    1 H      43-66

          program call               : xtb data2507/gas/3CP-DPS-PXZ/3CP-DPS-PXZ.xyz --gfn 2 --ohess vtight --parallel 40 --molden --ceasefiles --namespace data2507/gas/3CP-DPS-PXZ/3CP-DPS-PXZ_gas_S0_preOpt
          :  Hamiltonian                  GFN2-xTB          :
 * total energy  :  -110.6296846 Eh     change       -0.2791879E-08 Eh
 * total energy  :  -110.6418806 Eh     change       -0.1219599E-01 Eh
 * total energy  :  -110.6449888 Eh     change       -0.3108179E-02 Eh
 * total energy  :  -110.6456450 Eh     change       -0.6562130E-03 Eh
 * total energy  :  -110.6460552 Eh     change       -0.4101392E-03 Eh
 * total energy  :  -110.6462195 Eh     change       -0.1642867E-03 Eh
 * total energy  :  -110.6463514 Eh     change       -0.1319685E-03 Eh
 * total energy  :  -110.6464645 Eh     change       -0.1130921E-03 Eh
 * total energy  :  -110.6465705 Eh     change       -0.1059443E-03 Eh
 * total energy  :  -110.6466644 Eh     change       -0.9390702E-04 Eh
 * total energy  :  -110.6479221 Eh     change       -0.5350327E-06 Eh
 * total energy  :  -110.6479224 Eh     change       -0.3134571E-06 Eh
 * total energy  :  -110.6479226 Eh     change       -0.2067598E-06 Eh
 * total energy  :  -110.6479228 Eh     change       -0.1949530E-06 Eh
 * total energy  :  -110.6479230 Eh     change       -0.2050668E-06 Eh
 * total energy  :  -110.6479232 Eh     change       -0.2010802E-06 Eh
 * total energy  :  -110.6479234 Eh     change       -0.1980578E-06 Eh
 * total energy  :  -110.6479236 Eh     change       -0.1679692E-06 Eh
 * total energy  :  -110.6479236 Eh     change       -0.1700744E-07 Eh
   *** GEOMETRY OPTIMIZATION CONVERGED AFTER 81 ITERATIONS ***

 final structure:
================
66
 xtb: 6.7.1 (edcfbbe)
O           -0.00457998088756        3.08056823724434       -3.38031919240819
S           -0.01254673705978        3.16293978446216       -1.94331712923025
O            0.04995809757881        4.46212755923530       -1.32654826134435
C            1.34822874175564        2.16996809464580       -1.31474208192103
C            1.82658740833576        2.40802246918801       -0.04011992613318
C            2.83631082434155        1.61293611896168        0.46846493489143
C            3.36445931861226        0.58032471525414       -0.30577372065233
N            4.39367050463482       -0.23153202140119        0.20928255848022
C            4.19634416649537       -1.60501969249580        0.38132876109695
C            2.97671033677849       -2.21827284429904        0.12449014335283
C            2.81423576162573       -3.58303690675307        0.31043170480178
C            3.86301404008662       -4.35497874370943        0.76662402868791
C            5.07738864868440       -3.75238840970189        1.05975964458849
C            5.24382999479224       -2.39182878889408        0.87886957292157
O            6.46202661142039       -1.86438354965037        1.22460138407527
C            6.64010846095004       -0.51389385946423        1.05316000450665
C            7.87732699237267        0.00135473279840        1.39262946814314
C            8.14607313748085        1.35053889322898        1.21679793675902
C            7.17515658281534        2.17274674927639        0.68225952728044
C            5.93172641954650        1.66137545974733        0.34244739529349
C            5.63594502504836        0.31923092426452        0.54317305019295
C            2.87546761465778        0.35477766355524       -1.59196706853710
C            1.86197263589456        1.14976786250337       -2.09280033236477
C           -1.43677202642113        2.28070097654673       -1.31245895673389
C           -1.99903566699555        2.68806236264144       -0.10818702528344
C           -3.06848840410519        2.00557139880625        0.43587924868030
C           -3.54813891939117        0.89659096177996       -0.25307441689118
C           -2.98260109022101        0.49512442137626       -1.49143206320313
C           -1.90932419133435        1.19672150613481       -2.02046762127430
C           -3.74466411080376       -0.63587508360222       -1.93935772625247
C           -3.66604875489136       -1.45981441662708       -3.05517474004885
C           -4.56874234249276       -2.49706001652151       -3.17280835636969
C           -5.53069569972980       -2.72620791295446       -2.19058562118312
C           -5.62825353814013       -1.92036225622191       -1.07261992178227
C           -4.73751005278428       -0.86242068334424       -0.95944972895214
N           -4.60310398928560        0.07040615205351        0.05168964878364
C           -5.41928810110759        0.16466202121011        1.19193941035548
C           -4.84616764546107        0.21144513563261        2.45864326819362
C           -5.65419953173438        0.30787688805466        3.57670646014191
C           -7.03192058118859        0.34833464298270        3.44130838784963
C           -7.60284954937816        0.29707810109258        2.18049350188587
C           -6.80292111197067        0.21031085945779        1.05589493115253
H            1.40856419673074        3.22144051932448        0.53139848137469
H            3.22113375318367        1.78101173984346        1.46325843109254
H            2.14264869785761       -1.62480148495208       -0.21628903433672
H            1.85667716990351       -4.03260848263402        0.09708231352683
H            3.74380740933320       -5.41748434626185        0.90783515648450
H            5.91116101677777       -4.32223216667185        1.43737145063548
H            8.61970493045115       -0.67326177507504        1.78804407667880
H            9.11301344707558        1.74422814125343        1.48706419930182
H            7.37515802317640        3.22044237028215        0.51957104603064
H            5.18942178728212        2.31246535237402       -0.09163540076032
H            3.30044149602191       -0.43740683722788       -2.19008153662655
H            1.47807671860418        1.01192086255798       -3.09114483045773
H           -1.59240235873919        3.56393184992558        0.37147438463987
H           -3.52606991651217        2.33233531764959        1.35677532570214
H           -1.46189739993064        0.93612165795132       -2.96582203182679
H           -2.91285638441164       -1.28768056405313       -3.80844604178896
H           -4.52894421693988       -3.14811581409158       -4.03297886105425
H           -6.21405017299660       -3.55444558098471       -2.30463631245852
H           -6.36654450063304       -2.11473285754339       -0.30959890831041
H           -3.77239450294378        0.15887187635476        2.55986583352791
H           -5.20566313990302        0.34397926760714        4.55822801598456
H           -7.65940624816872        0.41969283347797        4.31657485496308
H           -8.67636270731960        0.33266452485924        2.07074485908344
H           -7.24190339639408        0.19117308951735        0.06967344703518

          :  Hamiltonian                  GFN2-xTB          :
         :: gradient norm              0.000083079795 Eh/a0 ::
         :: HOMO-LUMO gap              2.208676609254 eV    ::
         :: SCC energy              -112.519970241894 Eh    ::
         :: -> dispersion             -0.092095940050 Eh    ::
         :: repulsion energy           1.872046611381 Eh    ::

    * Orbital Energies and Occupations

         #    Occupation            Energy/Eh            Energy/eV
      -------------------------------------------------------------
         1        2.0000           -0.7627972             -20.7568
       ...           ...                  ...                  ...
        89        2.0000           -0.4268424             -11.6150
        90        2.0000           -0.4265638             -11.6074
        91        2.0000           -0.4253340             -11.5739
        92        2.0000           -0.4246945             -11.5565
        93        2.0000           -0.4233891             -11.5210
        94        2.0000           -0.4205570             -11.4439
        95        2.0000           -0.4181419             -11.3782
        96        2.0000           -0.4152023             -11.2982
        97        2.0000           -0.3993235             -10.8661
        98        2.0000           -0.3952068             -10.7541
        99        2.0000           -0.3927146             -10.6863
       100        2.0000           -0.3788710             -10.3096
       101        2.0000           -0.3465444              -9.4300 (HOMO)
       102                         -0.2653772              -7.2213 (LUMO)
       103                         -0.2625047              -7.1431
       104                         -0.2507230              -6.8225
       105                         -0.2482130              -6.7542
       106                         -0.2438387              -6.6352
       107                         -0.2410673              -6.5598
       108                         -0.2406463              -6.5483
       109                         -0.2319956              -6.3129
       110                         -0.2171086              -5.9078
       111                         -0.2112120              -5.7474
       112                         -0.2018391              -5.4923
       ...                                ...                  ...
       197                          1.2079522              32.8701
      -------------------------------------------------------------
                  HL-Gap            0.0811672 Eh            2.2087 eV

     #   Z          covCN         q      C6AA      α(0)
     1   8 O        0.860    -0.540    24.685     6.661
     2  16 S        3.823     0.937   108.466    17.529
     3   8 O        0.860    -0.540    24.695     6.663
     4   6 C        2.970    -0.079    29.966     8.979
     5   6 C        2.955    -0.027    28.681     8.784
     6   6 C        2.923    -0.038    28.947     8.823
     7   6 C        2.921     0.072    26.400     8.426
     8   7 N        2.751    -0.070    22.588     7.059
     9   6 C        2.922     0.042    27.070     8.532
    10   6 C        2.924    -0.061    29.514     8.909
    11   6 C        2.919    -0.039    28.965     8.826
    12   6 C        2.919    -0.040    28.991     8.830
    13   6 C        2.920    -0.056    29.393     8.891
    14   6 C        2.884     0.126    25.245     8.237
    15   8 O        1.709    -0.253    18.198     5.760
    16   6 C        2.884     0.125    25.258     8.239
    17   6 C        2.920    -0.056    29.384     8.889
    18   6 C        2.919    -0.039    28.980     8.828
    19   6 C        2.919    -0.038    28.941     8.822
    20   6 C        2.924    -0.060    29.489     8.905
    21   6 C        2.922     0.041    27.071     8.532
    22   6 C        2.923    -0.037    28.931     8.821
    23   6 C        2.954    -0.027    28.667     8.782
    24   6 C        2.972    -0.087    30.182     9.012
    25   6 C        2.962    -0.034    28.835     8.808
    26   6 C        2.911    -0.047    29.178     8.857
    27   6 C        3.075     0.051    26.779     8.485
    28   6 C        3.072    -0.011    28.225     8.711
    29   6 C        2.956    -0.032    28.802     8.803
    30   6 C        3.066    -0.015    28.310     8.725
    31   6 C        2.912    -0.031    28.768     8.795
    32   6 C        2.920    -0.038    28.944     8.823
    33   6 C        2.924    -0.031    28.769     8.796
    34   6 C        2.910    -0.049    29.206     8.862
    35   6 C        3.079     0.048    26.842     8.494
    36   7 N        2.803    -0.036    21.932     6.956
    37   6 C        2.914     0.063    26.587     8.455
    38   6 C        2.922    -0.042    29.042     8.838
    39   6 C        2.920    -0.027    28.671     8.781
    40   6 C        2.919    -0.031    28.773     8.796
    41   6 C        2.920    -0.027    28.666     8.780
    42   6 C        2.922    -0.041    29.011     8.833
    43   1 H        0.926     0.062     2.181     2.309
    44   1 H        0.926     0.056     2.251     2.346
    45   1 H        0.926     0.032     2.563     2.503
    46   1 H        0.926     0.036     2.500     2.473
    47   1 H        0.926     0.039     2.456     2.451
    48   1 H        0.926     0.052     2.293     2.368
    49   1 H        0.926     0.052     2.295     2.369
    50   1 H        0.926     0.040     2.445     2.445
    51   1 H        0.926     0.039     2.459     2.452
    52   1 H        0.926     0.036     2.498     2.472
    53   1 H        0.926     0.056     2.243     2.342
    54   1 H        0.926     0.064     2.149     2.292
    55   1 H        0.926     0.058     2.217     2.328
    56   1 H        0.926     0.045     2.382     2.414
    57   1 H        0.926     0.056     2.246     2.344
    58   1 H        0.926     0.039     2.468     2.457
    59   1 H        0.926     0.036     2.509     2.477
    60   1 H        0.926     0.036     2.506     2.476
    61   1 H        0.926     0.033     2.542     2.493
    62   1 H        0.926     0.041     2.438     2.442
    63   1 H        0.926     0.040     2.445     2.445
    64   1 H        0.926     0.040     2.450     2.448
    65   1 H        0.926     0.041     2.437     2.441
    66   1 H        0.926     0.044     2.396     2.421

molecular dipole:
                 x           y           z       tot (Debye)
 q only:       -1.223      -1.960       1.656
   full:       -1.320      -1.844       1.663       7.147

 projected vibrational frequencies (cm⁻¹)
eigval :       -0.00    -0.00    -0.00    -0.00     0.00     0.00
eigval :       -2.48     7.44     8.83    28.64    31.57    46.36
eigval :       50.23    55.52    60.55    62.99    81.99    96.20
eigval :      115.59   116.98   119.58   140.44   158.53   178.77
eigval :      194.87   197.55   219.81   238.84   247.62   259.83
eigval :      264.29   271.39   282.94   309.29   337.05   348.48
eigval :      365.93   373.02   373.71   380.10   390.75   399.73
eigval :      407.00   409.01   421.66   426.41   430.83   445.63
eigval :      449.79   475.08   481.96   506.75   510.33   519.38
eigval :      522.73   537.25   548.89   561.22   573.08   586.59
eigval :      588.48   591.58   601.94   604.07   612.20   643.03
eigval :      658.01   661.32   662.92   671.72   677.54   686.03
eigval :      709.62   718.52   726.77   764.30   777.18   779.30
eigval :      779.83   801.04   805.18   813.36   822.63   855.69
eigval :      864.68   867.05   870.82   874.35   880.71   883.62
eigval :      897.78   898.85   899.02   905.21   908.49   911.87
eigval :      912.91   914.71   915.51   917.60   923.11   923.77
eigval :      924.06   929.97   933.90   934.43   998.07  1005.45
eigval :     1016.77  1069.64  1079.61  1080.68  1090.47  1091.66
eigval :     1100.23  1108.41  1114.52  1117.56  1118.24  1123.98
eigval :     1129.59  1142.48  1168.13  1174.94  1175.55  1177.23
eigval :     1179.56  1180.80  1188.42  1197.21  1201.72  1212.87
eigval :     1223.66  1237.46  1240.31  1243.29  1250.49  1262.10
eigval :     1272.03  1275.45  1304.55  1309.74  1310.02  1317.36
eigval :     1317.57  1337.66  1354.68  1355.41  1359.22  1367.83
eigval :     1395.66  1414.73  1424.09  1428.87  1435.39  1441.96
eigval :     1459.88  1465.33  1482.93  1484.07  1488.75  1504.79
eigval :     1565.39  1567.75  1572.67  1575.43  1581.08  1582.47
eigval :     1585.86  1589.18  1590.86  1595.62  1603.12  1610.66
eigval :     3081.62  3082.34  3084.32  3087.65  3088.70  3090.43
eigval :     3091.17  3091.79  3091.96  3093.57  3094.56  3096.09
eigval :     3098.42  3100.41  3101.12  3102.03  3104.96  3107.25
eigval :     3107.65  3107.94  3111.24  3111.68  3113.71  3114.31

   temp. (K)  partition function   enthalpy   heat capacity  entropy
                                   cal/mol     cal/K/mol   cal/K/mol   J/K/mol
 298.15  VIB  0.128E+17            19350.617    122.791    122.369
         ROT  0.678E+08              888.752      2.981     38.816
         INT  0.867E+24            20239.370    125.772    161.185
         TR   0.130E+29             1481.254      4.968     44.858
         TOT                       21720.6237   130.7401   206.0427   862.0828

       T/K    H(0)-H(T)+PV         H(T)/Eh          T*S/Eh         G(T)/Eh
   ------------------------------------------------------------------------
    298.15    0.346140E-01    0.526516E+00    0.978976E-01    0.428619E+00
   ------------------------------------------------------------------------

         :::::::::::::::::::::::::::::::::::::::::::::::::::::
         ::                  THERMODYNAMIC                  ::
         :::::::::::::::::::::::::::::::::::::::::::::::::::::
         :: total free energy        -110.219304721712 Eh   ::
         ::.................................................::
         :: total energy             -110.647923630515 Eh   ::
         :: zero point energy           0.491902447602 Eh   ::
         :: G(RRHO) w/o ZPVE           -0.063283538800 Eh   ::
         :: G(RRHO) contrib.            0.428618908803 Eh   ::
         :::::::::::::::::::::::::::::::::::::::::::::::::::::

           -------------------------------------------------
          | TOTAL ENERGY             -110.647923630515 Eh   |
          | TOTAL ENTHALPY           -110.121407165751 Eh   |
          | TOTAL FREE ENERGY        -110.219304721712 Eh   |
          | GRADIENT NORM               0.000082984459 Eh/α |
          | HOMO-LUMO GAP               2.208671488535 eV   |
           -------------------------------------------------

 * finished run on 2025/07/20 at 13:49:53.142
