   * xtb version 6.7.1 (edcfbbe) compiled by 'albert@albert-system' on 2024-07-22

   ID    Z sym.   atoms
    1    8 O      1, 3, 15
    2   16 S      2
    3    6 C      4-7, 9-14, 16-35, 37-42
    4    7 N      8, 36
    5    1 H      43-66

          program call               : xtb data2507/gas/3CP-DPS-PXZ/3CP-DPS-PXZ_gas_S0_finalOpt.xtbopt.xyz --gfn 2 --spinpol --tblite --uhf 2 --ohess vtight --parallel 40 --molden --ceasefiles --namespace data2507/gas/3CP-DPS-PXZ/3CP-DPS-PXZ_gas_T1_preOpt
 * total energy  :  -110.5477858 Eh     change       -0.3090703E-07 Eh
 * total energy  :  -110.5540412 Eh     change       -0.6255416E-02 Eh
 * total energy  :  -110.5556630 Eh     change       -0.1621829E-02 Eh
 * total energy  :  -110.5557630 Eh     change       -0.1000089E-03 Eh
 * total energy  :  -110.5558290 Eh     change       -0.6594802E-04 Eh
 * total energy  :  -110.5558615 Eh     change       -0.3249732E-04 Eh
 * total energy  :  -110.5559201 Eh     change       -0.5861825E-04 Eh
 * total energy  :  -110.5559597 Eh     change       -0.3958574E-04 Eh
 * total energy  :  -110.5559861 Eh     change       -0.2640372E-04 Eh
 * total energy  :  -110.5560039 Eh     change       -0.1780695E-04 Eh
 * total energy  :  -110.5561131 Eh     change       -0.1040839E-05 Eh
 * total energy  :  -110.5561138 Eh     change       -0.7188033E-06 Eh
 * total energy  :  -110.5561144 Eh     change       -0.5628267E-06 Eh
 * total energy  :  -110.5561150 Eh     change       -0.6430803E-06 Eh
 * total energy  :  -110.5561156 Eh     change       -0.5687981E-06 Eh
 * total energy  :  -110.5561162 Eh     change       -0.5869820E-06 Eh
 * total energy  :  -110.5561168 Eh     change       -0.5901479E-06 Eh
 * total energy  :  -110.5561175 Eh     change       -0.7233752E-06 Eh
 * total energy  :  -110.5561175 Eh     change       -0.8854769E-08 Eh
   *** GEOMETRY OPTIMIZATION CONVERGED AFTER 44 ITERATIONS ***

 final structure:
================
66
 xtb: 6.7.1 (edcfbbe)
O           -0.30982322997635        4.30846487182500       -1.80361102498310
S           -0.36874041028139        3.77528360281574       -0.46656398845996
O           -0.56825757684027        4.70103920686928        0.61889022475947
C            1.08467457699163        2.77988877056422       -0.18057056741844
C            1.23976057376107        2.18353035085206        1.06768443314088
C            2.18427335729795        1.19744329228804        1.23830216016901
C            2.97097440832775        0.80227779462520        0.14994053964871
N            3.85920558996301       -0.29956309410676        0.28634441553562
C            3.34457935563487       -1.57033429677935        0.25806902437041
C            1.97455346840804       -1.84321320346197        0.13665128554839
C            1.51691022954899       -3.13367429619684        0.09290897433979
C            2.42499664397919       -4.22227819739163        0.15705336153444
C            3.77351231405305       -3.98970236695783        0.25943162436456
C            4.26377887587820       -2.68522580135499        0.31206172328914
O            5.59488502188216       -2.49436238206807        0.39059344677458
C            6.08453341740348       -1.24005419214682        0.42639154372585
C            7.46326663881605       -1.05380465659251        0.49972200019693
C            7.99174210822289        0.21239490230006        0.54801129752983
C            7.13467514101851        1.34465294954416        0.53015122720997
C            5.77750742564956        1.18932178052656        0.44928137363618
C            5.20656696153721       -0.09061242484133        0.38596568478112
C            2.84680077026667        1.43791553067891       -1.08959560232665
C            1.89663324833085        2.42067015446745       -1.25300825489528
C           -1.64694003239941        2.51258048311772       -0.36840098325147
C           -2.83624261858197        2.79534253379441        0.29294287487341
C           -3.80877545884341        1.82539710871350        0.44792875775702
C           -3.54505666826358        0.55574617229356       -0.05172754085796
C           -2.33640917706203        0.27422696427399       -0.73926319199847
C           -1.38473415163502        1.26948522394240       -0.90373502727480
C           -2.39475823730132       -1.10657840035059       -1.12335510246198
C           -1.50863617531272       -1.95453557616365       -1.77615108943701
C           -1.87106076064244       -3.27454415146145       -1.95517016805346
C           -3.09238518334997       -3.75296985903542       -1.48459483465674
C           -3.98979153709211       -2.92791489726958       -0.83307140491511
C           -3.63935420159658       -1.59588957853876       -0.66499959136917
N           -4.32285509020320       -0.57973820821929       -0.02494952902703
C           -5.60181870331115       -0.68928898738476        0.54549757018598
C           -5.82217908212866       -0.27771726085022        1.85612321985703
C           -7.08543137258496       -0.38436035629847        2.40822731769611
C           -8.13060774894757       -0.90872675401293        1.66593858914365
C           -7.91039716146647       -1.32395185041773        0.36304690953563
C           -6.65312718988457       -1.21217541032891       -0.20115725924294
H            0.60275674143811        2.50223688697011        1.87733015798710
H            2.31461277361439        0.70733248776174        2.19128686975396
H            1.27891437337044       -1.01996836817929        0.08035399837299
H            0.45999288243752       -3.32628981685496        0.00260224704482
H            2.04861792618833       -5.23122555845327        0.11893504559613
H            4.48504188197610       -4.79954211001001        0.30009796547708
H            8.09330312762013       -1.92923793927162        0.51992888127458
H            9.05826870864434        0.35435912359421        0.60447791344622
H            7.56326400123560        2.33213300949607        0.58202677359640
H            5.12434175257959        2.04853931102289        0.43710517990875
H            3.47817802117049        1.13008114373878       -1.90966888528478
H            1.74413449135900        2.91567994395278       -2.19892451900663
H           -2.97285575625879        3.79062898151870        0.68455045529186
H           -4.74199379538373        2.05107634025337        0.94021790402565
H           -0.46373981621732        1.08029119644080       -1.43255158193785
H           -0.55672140446714       -1.58635387263627       -2.12761406104845
H           -1.19757743691444       -3.95129237479092       -2.45959661002190
H           -3.34206606415596       -4.79369744770566       -1.62843665247563
H           -4.92567257483460       -3.31237508335595       -0.45707431962960
H           -4.99985111092995        0.11058309067043        2.43811081729058
H           -7.25235718454477       -0.06322986289704        3.42554272640023
H           -9.11447084804451       -0.99338774153156        2.10165146537507
H           -8.72349214683288       -1.72941500298304       -0.22041911161255
H           -6.48087475343323       -1.51458942200826       -1.22327741991377

 projected vibrational frequencies (cm⁻¹)
eigval :       -0.00    -0.00     0.00     0.00     0.00     0.00
eigval :        4.77     9.67    20.06    28.69    31.92    39.77
eigval :       43.61    53.13    65.14    76.65    79.96    92.24
eigval :       95.26   107.33   117.05   147.86   153.83   168.71
eigval :      181.16   207.36   212.34   229.50   239.17   250.97
eigval :      257.66   266.61   271.22   314.06   336.11   346.00
eigval :      357.85   365.62   367.46   377.73   380.29   381.19
eigval :      393.15   407.27   411.03   411.94   428.22   428.87
eigval :      441.64   449.15   457.70   476.23   501.38   503.35
eigval :      513.98   535.00   537.06   556.13   573.02   573.21
eigval :      586.84   591.63   592.82   600.94   604.48   612.34
eigval :      613.59   635.49   639.41   656.45   671.26   676.70
eigval :      702.43   708.61   725.89   734.56   738.88   763.96
eigval :      777.39   786.26   787.47   801.76   819.20   827.91
eigval :      831.70   833.18   853.80   870.45   874.02   881.08
eigval :      883.17   886.66   888.34   890.97   893.03   894.14
eigval :      898.35   899.69   903.50   906.14   910.92   912.77
eigval :      923.42   923.70   933.53   934.11   984.96   997.86
eigval :     1017.58  1023.50  1041.40  1069.94  1070.66  1080.09
eigval :     1082.57  1107.86  1112.87  1116.81  1117.82  1117.95
eigval :     1124.30  1142.35  1156.43  1157.43  1167.37  1176.70
eigval :     1178.97  1180.20  1180.64  1181.59  1197.62  1219.22
eigval :     1225.04  1226.48  1236.53  1239.11  1243.47  1261.44
eigval :     1270.71  1274.93  1302.40  1309.81  1311.52  1317.68
eigval :     1317.99  1324.93  1337.54  1355.68  1359.28  1364.77
eigval :     1366.25  1376.46  1398.86  1412.25  1416.59  1424.04
eigval :     1428.22  1429.77  1435.45  1451.94  1458.10  1462.04
eigval :     1464.60  1479.03  1481.79  1483.86  1490.23  1543.80
eigval :     1554.11  1575.44  1581.38  1585.42  1593.27  1597.63
eigval :     3079.22  3081.74  3083.59  3084.71  3086.13  3088.58
eigval :     3091.41  3091.95  3093.30  3093.37  3093.65  3095.83
eigval :     3096.66  3098.05  3099.20  3099.81  3101.68  3105.59
eigval :     3106.33  3107.80  3108.18  3111.58  3115.16  3117.33

   temp. (K)  partition function   enthalpy   heat capacity  entropy
                                   cal/mol     cal/K/mol   cal/K/mol   J/K/mol
 298.15  VIB  0.500E+16            19728.353    124.874    123.127
         ROT  0.569E+08              888.752      2.981     38.468
         INT  0.285E+24            20617.105    127.855    161.596
         TR   0.130E+29             1481.254      4.968     44.858
         TOT                       22098.3593   132.8230   206.4532   863.8004

       T/K    H(0)-H(T)+PV         H(T)/Eh          T*S/Eh         G(T)/Eh
   ------------------------------------------------------------------------
    298.15    0.352160E-01    0.521980E+00    0.980926E-01    0.423887E+00
   ------------------------------------------------------------------------

         :::::::::::::::::::::::::::::::::::::::::::::::::::::
         ::                  THERMODYNAMIC                  ::
         :::::::::::::::::::::::::::::::::::::::::::::::::::::
         :: total free energy        -110.132230497047 Eh   ::
         ::.................................................::
         :: total energy             -110.556117498443 Eh   ::
         :: zero point energy           0.486763622764 Eh   ::
         :: G(RRHO) w/o ZPVE           -0.062876621368 Eh   ::
         :: G(RRHO) contrib.            0.423887001396 Eh   ::
         :::::::::::::::::::::::::::::::::::::::::::::::::::::

           -------------------------------------------------
          | TOTAL ENERGY             -110.556117498443 Eh   |
          | TOTAL ENTHALPY           -110.034137898519 Eh   |
          | TOTAL FREE ENERGY        -110.132230497047 Eh   |
          | GRADIENT NORM               0.000064978921 Eh/α |
           -------------------------------------------------

 * finished run on 2025/07/20 at 13:57:32.873
