   * xtb version 6.7.1 (edcfbbe) compiled by 'albert@albert-system' on 2024-07-22

   ID    Z sym.   atoms
    1    6 C      1-54
    2    1 H      55-92

          program call               : xtb data2507/toluene/PABP/PABP_toluene_T1_crest.xyz --gfn 2 --uhf 2 --gbsa toluene --ohess vtight --parallel 40 --molden --ceasefiles --namespace data2507/toluene/PABP/PABP_toluene_T1_finalOpt
      * Solvation model:               GBSA
        Solvent                        toluene
        Solvent mass                       9.2140E+01 g/mol
          :  Hamiltonian                  GFN2-xTB          :
 * total energy  :  -135.0060795 Eh     change       -0.2430909E-09 Eh
 * total energy  :  -135.0061136 Eh     change       -0.3413577E-04 Eh
 * total energy  :  -135.0061341 Eh     change       -0.2046877E-04 Eh
 * total energy  :  -135.0061471 Eh     change       -0.1294146E-04 Eh
 * total energy  :  -135.0061634 Eh     change       -0.1637428E-04 Eh
 * total energy  :  -135.0061714 Eh     change       -0.7926919E-05 Eh
 * total energy  :  -135.0061792 Eh     change       -0.7824798E-05 Eh
 * total energy  :  -135.0061884 Eh     change       -0.9207622E-05 Eh
 * total energy  :  -135.0061950 Eh     change       -0.6665408E-05 Eh
 * total energy  :  -135.0061990 Eh     change       -0.3952443E-05 Eh
 * total energy  :  -135.0062025 Eh     change       -0.3455817E-05 Eh
 * total energy  :  -135.0062051 Eh     change       -0.2610231E-05 Eh
 * total energy  :  -135.0062065 Eh     change       -0.1383102E-05 Eh
 * total energy  :  -135.0062077 Eh     change       -0.1232425E-05 Eh
 * total energy  :  -135.0062087 Eh     change       -0.1023164E-05 Eh
 * total energy  :  -135.0062093 Eh     change       -0.6408557E-06 Eh
 * total energy  :  -135.0062094 Eh     change       -0.2751685E-07 Eh
   *** GEOMETRY OPTIMIZATION CONVERGED AFTER 17 ITERATIONS ***

 final structure:
================
92
 xtb: 6.7.1 (edcfbbe)
C           -0.70455824651844       -1.69752162662156        1.78635517246264
C           -1.44338565072740       -0.81640030907769        0.82372648511644
C           -2.82939675256825       -0.80013007149032        0.80104056976586
C           -3.53429838147178       -0.00084965438028       -0.09317501586409
C           -5.01266810224219       -0.00025543323603       -0.08908561565995
C           -5.70938855303793        1.14204675406566        0.33332928473730
C           -5.03404295641750        2.30436380832997        0.79099332572252
C           -5.71967520384148        3.41542503651523        1.17685956144657
C           -7.12789365635718        3.43461715659797        1.12791344558823
C           -7.81471493574625        2.33254449398777        0.71948423808204
C           -7.13949200255320        1.14659608368430        0.32687849283015
C           -7.83948261093936       -0.00093103174412       -0.07184697742373
C           -9.31985303967029       -0.00138748030774       -0.06111522082835
C          -10.03428217027744        0.06439341131382       -1.25351731272435
C          -11.41789471479935        0.06738930019959       -1.24183375269887
C          -12.10393523007397        0.00009622905383       -0.04026566042602
C          -11.40008296505555       -0.06838269646987        1.15091940654963
C          -10.01645887093709       -0.06686694646133        1.14182738102424
C           -7.14390495484535       -1.14778653367324       -0.48003888510477
C           -7.82323455014363       -2.33397182979962       -0.86473951835880
C           -7.14078857019483       -3.43562603768866       -1.28158695249164
C           -5.73324375839747       -3.41583883942985       -1.34717057627331
C           -5.04352935144037       -2.30460092713406       -0.96917757695381
C           -5.71396835240659       -1.14253245080711       -0.50377014093605
C           -2.82500986695788        0.79549927147883       -0.98574037790376
C           -1.44283096310295        0.79118126753067       -0.97037631157330
C           -0.74284558014332       -0.00382471585941       -0.07195164149457
C            0.73811562654483        0.01180057129931       -0.07286540677767
C            1.44066181106915       -0.94842756773370       -0.79239121866244
C            2.82003109855568       -0.96327152194603       -0.79936887965421
C            3.54203955980300       -0.00081582369543       -0.08727300660816
C            5.00155589701914       -0.00613062844863       -0.08159441623391
C            5.72095204128610        1.16257282548351       -0.48022202487065
C            5.06906383084170        2.30066316090370       -0.96353195533779
C            5.76932866316440        3.46568915756416       -1.27528142274052
C            7.13593011297921        3.50998979852704       -1.10639225590909
C            7.81889320169159        2.36975208130533       -0.68502567358063
C            7.14763761674501        1.17280467642678       -0.41748192065185
C            7.85008676242195       -0.01995848363942       -0.06798160645728
C            9.31262106552608       -0.02765007742874       -0.05828110757656
C           10.03951789561679        0.29682053686242       -1.20756187035478
C           11.42083565831558        0.27939048688918       -1.19792762546714
C           12.10851241639341       -0.04797175527739       -0.03949871036282
C           11.40080456891988       -0.36460331222529        1.10982877790660
C           10.01943549461514       -0.36165210056839        1.10086097375498
C            7.13276551078005       -1.20610588690302        0.27384032660513
C            7.78964405696185       -2.40983524590417        0.54662099327641
C            7.09182398452594       -3.54308766956232        0.96247548739922
C            5.72447376031664       -3.48482844353328        1.12039760062109
C            5.03866334894084       -2.31274982182465        0.80288084047543
C            5.70584184390818       -1.18169562653378        0.32396962547223
C            2.82546545165431        0.96749482286865        0.62283867695140
C            1.44204723568603        0.98554881968846        0.64392082081167
C            0.70311804606296        2.03382786385483        1.42139499987948
H            0.08305835778059       -1.14290247542303        2.29408514709589
H           -1.38228648472022       -2.11235896156969        2.52870274346701
H           -0.23097573340205       -2.52174558266849        1.25236604425928
H           -3.38106979444117       -1.41719117625181        1.49726077387715
H           -3.95492047281500        2.29085447295421        0.82974264808740
H           -5.18988401654652        4.29168085786186        1.52196133938886
H           -7.65665815348823        4.32973463901503        1.42249459841723
H           -8.89431310083201        2.34428826518615        0.68660927582671
H           -9.49678592260605        0.11782319816354       -2.19001404271871
H          -11.96254385258006        0.12138084407617       -2.17367567659588
H          -13.18432876569084        0.00042515436304       -0.03221964987171
H          -11.93079985903505       -0.12223166114672        2.09081764752132
H           -9.46510216068842       -0.12038339474974        2.07018138261627
H           -8.90237896066925       -2.34621508158115       -0.81919235149876
H           -7.67258992156019       -4.33079561666179       -1.57050739082886
H           -5.20720731708444       -4.29183757703713       -1.69866282298057
H           -3.96496972628531       -2.29045541560025       -1.02110644141309
H           -3.36053563791825        1.41269857868930       -1.69303780212376
H           -0.89340601624501        1.40978465867567       -1.66651859363919
H            0.89126864521354       -1.68884987361061       -1.35740853868661
H            3.35159701248612       -1.70147972362600       -1.38239757290217
H            3.99931109279772        2.27986301334640       -1.10391467773092
H            5.23108389751468        4.32993206818718       -1.63600267659297
H            7.68742809902877        4.41591692507640       -1.31108095281814
H            8.89005822307839        2.41623726380583       -0.56107981243903
H            9.50653196810824        0.53476769620410       -2.11735266562177
H           11.96571067790016        0.52023503495524       -2.09970516771676
H           13.18859250730620       -0.05637943990493       -0.03253719436312
H           11.92991256500927       -0.61326365370478        2.01888288475940
H            9.47082829469735       -0.59195294042126        2.00328368734683
H            8.86119958743774       -2.46732013181440        0.43103743280044
H            7.63249051565574       -4.45452795428104        1.17152787897322
H            5.17450631407027       -4.34330129324270        1.47713145684315
H            3.96807203440091       -2.28115260435773        0.93477211336540
H            3.37368623792065        1.70090791605148        1.19800065026532
H           -0.07154357083077        1.58274160635712        2.03958584365262
H            1.38373047505811        2.59447086748130        2.05770154118535
H            0.21304765649501        2.73035343838091        0.74076986297255

          :  Hamiltonian                  GFN2-xTB          :
         :: gradient norm              0.000186348524 Eh/a0 ::
         :: HOMO-LUMO gap              0.222113347022 eV    ::
         :: SCC energy              -137.625419111068 Eh    ::
         :: -> dispersion             -0.132037578370 Eh    ::
         :: -> Gsolv                  -0.053863408821 Eh    ::
         :: repulsion energy           2.619209735998 Eh    ::

    * Orbital Energies and Occupations

         #    Occupation            Energy/Eh            Energy/eV
      -------------------------------------------------------------
         1        2.0000           -0.6523524             -17.7514
       ...           ...                  ...                  ...
       116        2.0000           -0.4001237             -10.8879
       117        2.0000           -0.3993605             -10.8672
       118        2.0000           -0.3986198             -10.8470
       119        2.0000           -0.3971546             -10.8071
       120        2.0000           -0.3969337             -10.8011
       121        2.0000           -0.3966422             -10.7932
       122        2.0000           -0.3950897             -10.7509
       123        2.0000           -0.3927228             -10.6865
       124        2.0000           -0.3870381             -10.5318
       125        2.0000           -0.3860271             -10.5043
       126        1.9889           -0.3558903              -9.6843
       127        1.0111           -0.3473575              -9.4521
       128        0.9866           -0.2858391              -7.7781 (HOMO)
       129        0.0134           -0.2776767              -7.5560 (LUMO)
       130                         -0.2292518              -6.2383
       131                         -0.2255306              -6.1370
       132                         -0.2254716              -6.1354
       133                         -0.2249700              -6.1217
       134                         -0.2233283              -6.0771
       135                         -0.2232583              -6.0752
       136                         -0.2230990              -6.0708
       137                         -0.2203377              -5.9957
       138                         -0.2194031              -5.9703
       139                         -0.2186847              -5.9507
       ...                                ...                  ...
       254                          0.7157978              19.4778
      -------------------------------------------------------------
                  HL-Gap            0.0081624 Eh            0.2221 eV

     #   Z          covCN         q      C6AA      α(0)
     1   6 C        3.757    -0.105    22.557     6.771
     2   6 C        2.968     0.012    27.738     8.639
     3   6 C        2.929    -0.044    29.087     8.845
     4   6 C        2.975     0.010    27.781     8.646
     5   6 C        2.976    -0.006    28.173     8.707
     6   6 C        2.983     0.005    27.910     8.666
     7   6 C        2.917    -0.035    28.880     8.813
     8   6 C        2.914    -0.032    28.794     8.799
     9   6 C        2.914    -0.032    28.789     8.798
    10   6 C        2.917    -0.035    28.882     8.813
    11   6 C        2.983     0.005    27.910     8.666
    12   6 C        2.977    -0.008    28.206     8.712
    13   6 C        2.977     0.016    27.659     8.627
    14   6 C        2.924    -0.033    28.812     8.803
    15   6 C        2.918    -0.031    28.765     8.795
    16   6 C        2.920    -0.033    28.818     8.803
    17   6 C        2.918    -0.031    28.765     8.795
    18   6 C        2.924    -0.033    28.812     8.803
    19   6 C        2.983     0.005    27.910     8.666
    20   6 C        2.917    -0.035    28.882     8.813
    21   6 C        2.914    -0.032    28.789     8.798
    22   6 C        2.914    -0.032    28.793     8.799
    23   6 C        2.917    -0.035    28.878     8.812
    24   6 C        2.983     0.005    27.909     8.666
    25   6 C        2.923    -0.039    28.959     8.825
    26   6 C        2.922    -0.036    28.888     8.814
    27   6 C        2.982     0.002    27.981     8.677
    28   6 C        2.982     0.003    27.954     8.673
    29   6 C        2.920    -0.035    28.883     8.813
    30   6 C        2.922    -0.038    28.940     8.822
    31   6 C        2.972     0.011    27.763     8.643
    32   6 C        2.972    -0.011    28.297     8.726
    33   6 C        2.976     0.008    27.846     8.656
    34   6 C        2.921    -0.040    28.987     8.829
    35   6 C        2.913    -0.033    28.817     8.803
    36   6 C        2.913    -0.033    28.825     8.804
    37   6 C        2.921    -0.040    28.983     8.828
    38   6 C        2.977     0.007    27.852     8.657
    39   6 C        2.973    -0.012    28.303     8.727
    40   6 C        2.974     0.015    27.669     8.628
    41   6 C        2.924    -0.032    28.809     8.802
    42   6 C        2.917    -0.031    28.768     8.795
    43   6 C        2.919    -0.033    28.820     8.803
    44   6 C        2.917    -0.031    28.768     8.795
    45   6 C        2.924    -0.032    28.808     8.802
    46   6 C        2.977     0.007    27.852     8.657
    47   6 C        2.921    -0.040    28.982     8.828
    48   6 C        2.913    -0.033    28.825     8.804
    49   6 C        2.913    -0.033    28.818     8.803
    50   6 C        2.921    -0.040    28.989     8.829
    51   6 C        2.976     0.008    27.847     8.656
    52   6 C        2.928    -0.044    29.085     8.844
    53   6 C        2.967     0.013    27.731     8.638
    54   6 C        3.758    -0.105    22.561     6.772
    55   1 H        0.925     0.045     2.383     2.414
    56   1 H        0.925     0.042     2.422     2.434
    57   1 H        0.924     0.047     2.361     2.403
    58   1 H        0.925     0.029     2.595     2.519
    59   1 H        0.926     0.033     2.550     2.497
    60   1 H        0.926     0.029     2.598     2.520
    61   1 H        0.926     0.029     2.607     2.525
    62   1 H        0.926     0.030     2.592     2.518
    63   1 H        0.926     0.029     2.602     2.523
    64   1 H        0.926     0.031     2.574     2.509
    65   1 H        0.926     0.030     2.582     2.513
    66   1 H        0.926     0.031     2.572     2.508
    67   1 H        0.926     0.029     2.600     2.521
    68   1 H        0.926     0.030     2.592     2.518
    69   1 H        0.926     0.028     2.608     2.525
    70   1 H        0.926     0.029     2.602     2.522
    71   1 H        0.926     0.033     2.551     2.498
    72   1 H        0.926     0.027     2.631     2.536
    73   1 H        0.925     0.027     2.629     2.536
    74   1 H        0.925     0.028     2.616     2.529
    75   1 H        0.926     0.030     2.587     2.515
    76   1 H        0.926     0.034     2.532     2.488
    77   1 H        0.926     0.029     2.606     2.525
    78   1 H        0.926     0.028     2.616     2.529
    79   1 H        0.926     0.031     2.573     2.508
    80   1 H        0.926     0.031     2.569     2.507
    81   1 H        0.926     0.031     2.570     2.507
    82   1 H        0.926     0.030     2.582     2.513
    83   1 H        0.926     0.031     2.569     2.506
    84   1 H        0.926     0.031     2.568     2.506
    85   1 H        0.926     0.031     2.572     2.508
    86   1 H        0.926     0.028     2.615     2.529
    87   1 H        0.926     0.029     2.606     2.524
    88   1 H        0.926     0.033     2.538     2.491
    89   1 H        0.925     0.032     2.553     2.499
    90   1 H        0.925     0.045     2.378     2.411
    91   1 H        0.925     0.042     2.418     2.432
    92   1 H        0.924     0.047     2.355     2.400

molecular dipole:
                 x           y           z       tot (Debye)
 q only:       -0.071       0.030       0.281
   full:       -0.071       0.023       0.241       0.641

 projected vibrational frequencies (cm⁻¹)
eigval :       -0.00    -0.00    -0.00    -0.00     0.00     0.00
eigval :        7.26    10.01    12.58    17.15    25.08    35.42
eigval :       40.03    43.03    45.49    58.63    61.36    63.49
eigval :       70.48    72.29    75.60    79.12    81.71    85.71
eigval :       91.04    92.17   110.64   120.21   164.95   171.00
eigval :      179.08   183.45   192.36   196.94   199.82   215.26
eigval :      223.11   224.08   227.22   231.21   239.66   242.92
eigval :      252.72   290.39   337.19   340.92   361.09   367.06
eigval :      369.58   372.22   380.34   385.35   392.20   393.95
eigval :      398.59   403.71   407.30   412.80   419.06   428.16
eigval :      437.01   446.73   456.89   457.70   466.88   468.90
eigval :      474.67   485.36   514.72   534.05   552.86   555.68
eigval :      569.44   578.65   581.26   582.79   585.40   586.45
eigval :      596.91   597.55   603.75   615.88   618.04   625.58
eigval :      630.72   646.48   663.94   671.44   673.61   675.27
eigval :      691.02   697.85   700.79   702.33   714.05   716.95
eigval :      732.00   739.13   742.35   754.48   757.97   759.25
eigval :      772.93   774.21   823.10   829.02   831.37   834.39
eigval :      839.78   844.74   872.80   874.71   877.34   879.55
eigval :      883.51   886.95   891.80   892.65   896.48   898.17
eigval :      900.21   902.81   904.46   907.43   907.89   910.78
eigval :      916.28   916.65   923.65   924.87   926.99   927.37
eigval :      930.35   931.68   932.79   933.13   936.03   943.60
eigval :      982.80   985.59   992.79   994.17   999.22  1022.30
eigval :     1023.03  1030.11  1032.87  1080.98  1081.31  1081.40
eigval :     1082.62  1100.20  1102.98  1110.85  1117.75  1118.69
eigval :     1124.38  1130.55  1133.59  1144.65  1161.38  1177.09
eigval :     1178.61  1179.29  1180.05  1180.15  1181.71  1182.57
eigval :     1188.09  1190.29  1194.71  1199.98  1214.10  1217.34
eigval :     1229.08  1229.63  1236.60  1250.69  1256.03  1256.81
eigval :     1259.42  1263.60  1271.48  1280.68  1281.18  1285.47
eigval :     1296.69  1304.88  1306.07  1309.19  1309.52  1311.28
eigval :     1320.74  1343.31  1348.39  1364.02  1365.17  1371.86
eigval :     1372.33  1383.59  1401.33  1405.34  1406.32  1407.72
eigval :     1410.75  1415.02  1421.26  1423.28  1425.98  1428.08
eigval :     1442.15  1458.71  1462.09  1471.04  1472.60  1473.49
eigval :     1475.68  1481.60  1482.60  1485.21  1489.86  1505.45
eigval :     1520.03  1523.13  1524.98  1525.44  1526.87  1535.21
eigval :     1553.95  1558.70  1559.41  1578.69  1581.16  1581.87
eigval :     1598.05  1599.22  1604.60  1619.44  2997.45  2998.34
eigval :     3020.95  3021.76  3038.30  3038.82  3063.30  3064.40
eigval :     3065.48  3065.76  3065.98  3066.26  3066.28  3067.61
eigval :     3068.17  3068.28  3071.43  3071.63  3073.24  3074.66
eigval :     3075.22  3075.31  3077.37  3077.65  3078.30  3079.36
eigval :     3080.59  3080.74  3085.66  3085.89  3087.13  3087.53
eigval :     3090.04  3091.24  3092.47  3092.85  3095.35  3096.76

   temp. (K)  partition function   enthalpy   heat capacity  entropy
                                   cal/mol     cal/K/mol   cal/K/mol   J/K/mol
 298.15  VIB  0.179E+22            26388.972    164.797    166.933
         ROT  0.142E+09              888.752      2.981     40.282
         INT  0.254E+30            27277.724    167.778    207.215
         TR   0.174E+29             1481.254      4.968     45.441
         TOT                       28758.9781   172.7461   252.6560  1057.1126

       T/K    H(0)-H(T)+PV         H(T)/Eh          T*S/Eh         G(T)/Eh
   ------------------------------------------------------------------------
    298.15    0.458303E-01    0.765470E+00    0.120045E+00    0.645425E+00
   ------------------------------------------------------------------------

         :::::::::::::::::::::::::::::::::::::::::::::::::::::
         ::                  THERMODYNAMIC                  ::
         :::::::::::::::::::::::::::::::::::::::::::::::::::::
         :: total free energy        -134.360784729604 Eh   ::
         ::.................................................::
         :: total energy             -135.006209376122 Eh   ::
         :: zero point energy           0.719639306793 Eh   ::
         :: G(RRHO) w/o ZPVE           -0.074214660275 Eh   ::
         :: G(RRHO) contrib.            0.645424646518 Eh   ::
         :::::::::::::::::::::::::::::::::::::::::::::::::::::

           -------------------------------------------------
          | TOTAL ENERGY             -135.006209376122 Eh   |
          | TOTAL ENTHALPY           -134.240739720500 Eh   |
          | TOTAL FREE ENERGY        -134.360784729604 Eh   |
          | GRADIENT NORM               0.000186318864 Eh/α |
          | HOMO-LUMO GAP               0.222110276629 eV   |
           -------------------------------------------------

 * finished run on 2025/07/19 at 00:50:02.511
