   * xtb version 6.7.1 (edcfbbe) compiled by 'albert@albert-system' on 2024-07-22

   ID    Z sym.   atoms
    1    6 C      1-54
    2    1 H      55-92

          program call               : xtb data2507/toluene/PABP/PABP_toluene_S0_crest.xyz --gfn 2 --gbsa toluene --ohess vtight --parallel 40 --molden --ceasefiles --namespace data2507/toluene/PABP/PABP_toluene_S0_finalOpt
      * Solvation model:               GBSA
        Solvent                        toluene
        Solvent mass                       9.2140E+01 g/mol
          :  Hamiltonian                  GFN2-xTB          :
 * total energy  :  -135.0755292 Eh     change       -0.1003002E-08 Eh
 * total energy  :  -135.0755656 Eh     change       -0.3644935E-04 Eh
 * total energy  :  -135.0755799 Eh     change       -0.1427484E-04 Eh
 * total energy  :  -135.0755950 Eh     change       -0.1503994E-04 Eh
 * total energy  :  -135.0756012 Eh     change       -0.6209935E-05 Eh
 * total energy  :  -135.0756071 Eh     change       -0.5933698E-05 Eh
 * total energy  :  -135.0756125 Eh     change       -0.5387319E-05 Eh
 * total energy  :  -135.0756183 Eh     change       -0.5810320E-05 Eh
 * total energy  :  -135.0756253 Eh     change       -0.7015946E-05 Eh
 * total energy  :  -135.0756328 Eh     change       -0.7497666E-05 Eh
 * total energy  :  -135.0756551 Eh     change       -0.2113224E-06 Eh
 * total energy  :  -135.0756553 Eh     change       -0.1507026E-06 Eh
 * total energy  :  -135.0756554 Eh     change       -0.1480443E-06 Eh
 * total energy  :  -135.0756556 Eh     change       -0.2124974E-06 Eh
 * total energy  :  -135.0756559 Eh     change       -0.2758806E-06 Eh
 * total energy  :  -135.0756562 Eh     change       -0.2407820E-06 Eh
 * total energy  :  -135.0756564 Eh     change       -0.2211035E-06 Eh
 * total energy  :  -135.0756566 Eh     change       -0.2385780E-06 Eh
 * total energy  :  -135.0756566 Eh     change       -0.1675346E-08 Eh
   *** GEOMETRY OPTIMIZATION CONVERGED AFTER 44 ITERATIONS ***

 final structure:
================
92
 xtb: 6.7.1 (edcfbbe)
C           -0.71536504389964       -1.57204179083358        1.95483226103526
C           -1.44722806174715       -0.76183115264513        0.92678239997621
C           -2.83353649983583       -0.74369459059480        0.89729135690656
C           -3.53106539195834       -0.01543144682657       -0.06001046275908
C           -5.01122891826884       -0.01276642611183       -0.06651276548415
C           -5.71104979539182        0.72508400848159        0.89809352994173
C           -5.03611306018727        1.49759207174033        1.88033323758516
C           -5.72353213232468        2.19618658086764        2.82440990901008
C           -7.13278735577534        2.16260123448024        2.84731189166081
C           -7.81814823529984        1.44828942819389        1.91332196302293
C           -7.14110617894527        0.71995422047707        0.89916037500127
C           -7.83669450875418       -0.00480823132431       -0.07888235318661
C           -9.31697437369399       -0.00167294980378       -0.08503984585022
C          -10.01895449053808        1.13021010835305       -0.48823200413269
C          -11.40259418316751        1.13076214132393       -0.49600261561779
C          -12.10127707526536        0.00304245645201       -0.09726941300880
C          -11.40997189320111       -1.12701059447763        0.30767283188793
C          -10.02634469647366       -1.13109769248598        0.31212496929087
C           -7.13659461477294       -0.73311929877523       -1.05108519724720
C           -7.80868820032043       -1.45666817600423       -2.07191718298416
C           -7.11908023353218       -2.17423984261912       -3.00026602070013
C           -5.71032358931567       -2.21615859649751       -2.96463715391820
C           -5.02735823853848       -1.52222191754116       -2.01390246967105
C           -5.70665276541666       -0.74636766402886       -1.03737524199559
C           -2.81770164837190        0.70992916262320       -1.00726941898668
C           -1.43563582387826        0.70731448590230       -0.98233429642554
C           -0.74178383627938       -0.02009294663548       -0.02403565593744
C            0.74028180045700       -0.00660957734318       -0.02588408525937
C            1.43731757035869       -1.00078286525348       -0.69970616837683
C            2.81947443008515       -1.00793794926169       -0.71962844959800
C            3.53030051670713       -0.01113164885343       -0.06057215500623
C            5.00928724295531       -0.00874783855222       -0.06913015325474
C            5.70309635017587        0.97312080206737       -0.79117018260210
C            5.02400305801766        1.96328467513600       -1.54992978417135
C            5.70632017384608        2.92671260499988       -2.22697005286788
C            7.11499156892605        2.96174523062620       -2.18667100445725
C            7.80493626281390        2.01676006281456       -1.49165393470948
C            7.13321782842238        0.98252329774601       -0.78698082353933
C            7.83561441656025       -0.00831767792880       -0.08681742744791
C            9.31592555043381       -0.00940167091857       -0.09820869543601
C           10.01190514799266       -0.38933371153747       -1.24180983145591
C           11.39551434339820       -0.39246433485910       -1.25136181227897
C           12.10008158842991       -0.01232046659246       -0.12087876529887
C           11.41476854837255        0.36926622085104        1.02088788938691
C           10.03116994234272        0.36903861762841        1.03392819695265
C            7.14248361682649       -0.99850264216061        0.62341409629139
C            7.82314979022141       -2.03152170680230        1.32126957272711
C            7.14212017514585       -2.97504986368431        2.02699757139865
C            5.73405703791581       -2.94034924067145        2.08474164496949
C            5.04319563034917       -1.97848105157773        1.41419062815815
C            5.71256827221121       -0.98939114754894        0.64548933800209
C            2.82848018278973        0.98575361524869        0.60922681697717
C            1.44247849665273        1.00423183695811        0.63593649256644
C            0.70377550153281        2.09290635796959        1.35555680640028
H           -0.26520352674360       -2.44927311416275        1.48934514485115
H            0.08904198531510       -0.99288178325014        2.40531169476284
H           -1.39296603213016       -1.90743169797971        2.73648652400162
H           -3.39028810165609       -1.31130778715035        1.63060696706156
H           -3.95645981761317        1.52028761359231        1.86217397636131
H           -5.19588587638464        2.77973081725964        3.56513169296002
H           -7.66311183743775        2.71167677365350        3.61211366740795
H           -8.89788880354590        1.42361555171138        1.93068376341917
H           -9.47185027780393        2.00892299310809       -0.80012701212596
H          -11.93736845321068        2.01457872109477       -0.81347573808209
H          -13.18161604145333        0.00479602022854       -0.10215062553229
H          -11.95051950079996       -2.00902201753336        0.62033619305875
H           -9.48495072400698       -2.01172725646601        0.62851819353549
H           -8.88805137675630       -1.42545144639225       -2.09943868341772
H           -7.64556309218849       -2.71934973638899       -3.77053864668885
H           -5.17930156399967       -2.80197598570929       -3.70117060806915
H           -3.94793071718640       -1.55052127102584       -1.98672906144411
H           -3.34946028562307        1.27856974703316       -1.75687824724634
H           -0.88123571138084        1.27375208389795       -1.71792351418191
H            0.88572032966948       -1.77496750347919       -1.21503777782113
H            3.35354324739756       -1.78344778022728       -1.25009310968789
H            3.94485056696437        1.93671480810907       -1.58147056835526
H            5.17433532117920        3.67329231250289       -2.79903684281477
H            7.64093623481242        3.74277549045377       -2.71678076547084
H            8.88448194050597        2.04055899680622       -1.46409984949737
H            9.46009382642334       -0.68664361156787       -2.12263621093410
H           11.92557289610969       -0.69177663518860       -2.14430788345078
H           13.18040253689915       -0.01348214652426       -0.12958088474792
H           11.96002317860259        0.66742625444759        1.90501252088542
H            9.49447850033052        0.66746989383692        1.92365400556895
H            8.90226363101326       -2.05532138834463        1.28018252683648
H            7.67484545700579       -3.75479810894853        2.55218713724510
H            5.20942240762778       -3.68594150330106        2.66479620578331
H            3.96446836717945       -1.95246938842124        1.45814359563424
H            3.38241826971415        1.75939703383228        1.12356873888518
H            0.16366083215154        2.71653367948389        0.64309402056809
H           -0.03039342103858        1.67284674443306        2.04161475026913
H            1.39159680847024        2.72215581457777        1.91529012238869

          :  Hamiltonian                  GFN2-xTB          :
         :: gradient norm              0.000056455279 Eh/a0 ::
         :: HOMO-LUMO gap              2.135575232908 eV    ::
         :: SCC energy              -137.714060038528 Eh    ::
         :: -> dispersion             -0.131830930990 Eh    ::
         :: -> Gsolv                  -0.054006764938 Eh    ::
         :: repulsion energy           2.638403424194 Eh    ::

    * Orbital Energies and Occupations

         #    Occupation            Energy/Eh            Energy/eV
      -------------------------------------------------------------
         1        2.0000           -0.6525250             -17.7561
       ...           ...                  ...                  ...
       115        2.0000           -0.4038160             -10.9884
       116        2.0000           -0.4005291             -10.8990
       117        2.0000           -0.3984685             -10.8429
       118        2.0000           -0.3975204             -10.8171
       119        2.0000           -0.3970775             -10.8050
       120        2.0000           -0.3970392             -10.8040
       121        2.0000           -0.3967165             -10.7952
       122        2.0000           -0.3951608             -10.7529
       123        2.0000           -0.3946552             -10.7391
       124        2.0000           -0.3861172             -10.5068
       125        2.0000           -0.3853873             -10.4869
       126        2.0000           -0.3563993              -9.6981
       127        2.0000           -0.3560662              -9.6891 (HOMO)
       128                         -0.2775853              -7.5535 (LUMO)
       129                         -0.2774430              -7.5496
       130                         -0.2294000              -6.2423
       131                         -0.2293382              -6.2406
       132                         -0.2233645              -6.0781
       133                         -0.2233401              -6.0774
       134                         -0.2230846              -6.0704
       135                         -0.2230814              -6.0704
       136                         -0.2222661              -6.0482
       137                         -0.2192660              -5.9665
       138                         -0.2190124              -5.9596
       ...                                ...                  ...
       254                          0.7163618              19.4932
      -------------------------------------------------------------
                  HL-Gap            0.0784809 Eh            2.1356 eV

     #   Z          covCN         q      C6AA      α(0)
     1   6 C        3.757    -0.105    22.555     6.771
     2   6 C        2.968     0.012    27.738     8.639
     3   6 C        2.929    -0.044    29.091     8.845
     4   6 C        2.976     0.010    27.780     8.646
     5   6 C        2.977    -0.006    28.162     8.705
     6   6 C        2.984     0.005    27.910     8.666
     7   6 C        2.917    -0.035    28.867     8.811
     8   6 C        2.914    -0.032    28.789     8.798
     9   6 C        2.914    -0.032    28.787     8.798
    10   6 C        2.917    -0.035    28.877     8.812
    11   6 C        2.983     0.005    27.909     8.666
    12   6 C        2.977    -0.008    28.203     8.711
    13   6 C        2.977     0.015    27.661     8.627
    14   6 C        2.924    -0.033    28.813     8.803
    15   6 C        2.918    -0.031    28.765     8.795
    16   6 C        2.920    -0.033    28.817     8.803
    17   6 C        2.918    -0.031    28.765     8.795
    18   6 C        2.924    -0.033    28.813     8.803
    19   6 C        2.983     0.005    27.909     8.666
    20   6 C        2.917    -0.035    28.878     8.812
    21   6 C        2.914    -0.032    28.786     8.798
    22   6 C        2.914    -0.032    28.789     8.798
    23   6 C        2.917    -0.035    28.864     8.810
    24   6 C        2.984     0.005    27.911     8.666
    25   6 C        2.923    -0.039    28.965     8.826
    26   6 C        2.923    -0.036    28.891     8.814
    27   6 C        2.982     0.001    27.988     8.678
    28   6 C        2.982     0.001    27.987     8.678
    29   6 C        2.922    -0.036    28.891     8.815
    30   6 C        2.923    -0.039    28.962     8.825
    31   6 C        2.975     0.010    27.786     8.647
    32   6 C        2.977    -0.006    28.166     8.706
    33   6 C        2.983     0.005    27.910     8.666
    34   6 C        2.917    -0.035    28.871     8.811
    35   6 C        2.914    -0.032    28.791     8.799
    36   6 C        2.914    -0.032    28.787     8.798
    37   6 C        2.917    -0.035    28.879     8.812
    38   6 C        2.983     0.005    27.910     8.666
    39   6 C        2.977    -0.008    28.203     8.711
    40   6 C        2.977     0.016    27.660     8.627
    41   6 C        2.924    -0.033    28.812     8.803
    42   6 C        2.918    -0.031    28.765     8.795
    43   6 C        2.920    -0.033    28.817     8.803
    44   6 C        2.918    -0.031    28.766     8.795
    45   6 C        2.924    -0.033    28.812     8.803
    46   6 C        2.983     0.005    27.910     8.666
    47   6 C        2.917    -0.035    28.879     8.812
    48   6 C        2.914    -0.032    28.787     8.798
    49   6 C        2.914    -0.032    28.792     8.799
    50   6 C        2.917    -0.035    28.873     8.812
    51   6 C        2.983     0.005    27.911     8.666
    52   6 C        2.929    -0.044    29.090     8.845
    53   6 C        2.968     0.012    27.745     8.640
    54   6 C        3.757    -0.105    22.554     6.771
    55   1 H        0.924     0.047     2.364     2.404
    56   1 H        0.925     0.045     2.384     2.415
    57   1 H        0.925     0.042     2.423     2.434
    58   1 H        0.925     0.028     2.609     2.526
    59   1 H        0.926     0.032     2.556     2.500
    60   1 H        0.926     0.030     2.593     2.518
    61   1 H        0.926     0.029     2.603     2.523
    62   1 H        0.926     0.030     2.587     2.515
    63   1 H        0.926     0.029     2.600     2.521
    64   1 H        0.926     0.031     2.573     2.508
    65   1 H        0.926     0.030     2.581     2.512
    66   1 H        0.926     0.031     2.572     2.508
    67   1 H        0.926     0.029     2.599     2.521
    68   1 H        0.926     0.030     2.585     2.514
    69   1 H        0.926     0.029     2.603     2.523
    70   1 H        0.926     0.029     2.602     2.522
    71   1 H        0.926     0.031     2.572     2.508
    72   1 H        0.926     0.026     2.647     2.544
    73   1 H        0.925     0.026     2.638     2.540
    74   1 H        0.925     0.027     2.635     2.539
    75   1 H        0.926     0.026     2.639     2.540
    76   1 H        0.926     0.032     2.554     2.499
    77   1 H        0.926     0.029     2.600     2.522
    78   1 H        0.926     0.029     2.605     2.524
    79   1 H        0.926     0.030     2.588     2.516
    80   1 H        0.926     0.029     2.602     2.522
    81   1 H        0.926     0.031     2.573     2.509
    82   1 H        0.926     0.030     2.581     2.512
    83   1 H        0.926     0.031     2.572     2.508
    84   1 H        0.926     0.029     2.598     2.521
    85   1 H        0.926     0.030     2.588     2.516
    86   1 H        0.926     0.029     2.605     2.524
    87   1 H        0.926     0.029     2.596     2.520
    88   1 H        0.926     0.032     2.553     2.499
    89   1 H        0.925     0.029     2.603     2.523
    90   1 H        0.925     0.046     2.365     2.405
    91   1 H        0.925     0.045     2.381     2.413
    92   1 H        0.925     0.042     2.426     2.436

molecular dipole:
                 x           y           z       tot (Debye)
 q only:       -0.013       0.045       0.295
   full:       -0.011       0.036       0.250       0.644

 projected vibrational frequencies (cm⁻¹)
eigval :       -0.00    -0.00    -0.00     0.00     0.00     0.00
eigval :      -13.55     8.01     8.12    10.55    20.27    21.17
eigval :       36.62    38.96    41.77    48.96    51.64    56.01
eigval :       66.84    67.26    72.81    75.40    75.99    82.32
eigval :       84.58    84.95   105.30   106.36   161.64   164.86
eigval :      174.08   178.56   195.44   197.89   199.08   211.65
eigval :      213.14   219.02   221.55   223.04   231.17   241.29
eigval :      241.70   291.52   337.07   341.56   367.30   368.23
eigval :      376.43   377.08   381.70   390.68   392.95   398.78
eigval :      400.48   409.08   410.38   424.16   430.13   440.11
eigval :      444.54   445.12   456.55   457.47   459.72   467.86
eigval :      475.89   486.79   514.67   538.89   553.93   557.28
eigval :      578.37   578.51   585.86   585.95   588.20   597.03
eigval :      597.27   598.88   615.38   619.91   621.55   630.04
eigval :      631.36   649.57   667.96   675.17   675.89   690.95
eigval :      691.52   700.77   701.85   704.23   715.12   732.06
eigval :      738.32   740.60   759.41   761.53   771.75   772.11
eigval :      773.30   773.40   827.41   828.27   831.17   832.73
eigval :      871.58   872.04   873.23   873.76   882.06   885.29
eigval :      886.15   889.60   896.18   896.28   905.30   906.80
eigval :      910.35   910.54   915.05   915.79   915.95   916.11
eigval :      918.27   919.90   924.88   925.18   925.34   925.46
eigval :      931.51   931.89   932.08   933.50   934.56   936.66
eigval :      982.50   986.42   994.28   998.47   998.84  1021.08
eigval :     1021.57  1029.75  1032.41  1080.35  1080.59  1080.89
eigval :     1081.04  1081.82  1082.03  1116.79  1117.21  1127.44
eigval :     1133.79  1133.81  1144.03  1144.85  1159.83  1179.67
eigval :     1180.10  1181.19  1181.95  1182.73  1182.82  1186.67
eigval :     1189.62  1193.80  1193.98  1214.15  1215.07  1225.27
eigval :     1228.44  1230.09  1242.34  1255.47  1255.75  1258.43
eigval :     1260.77  1262.29  1263.15  1279.53  1279.73  1296.04
eigval :     1304.40  1305.55  1309.09  1309.24  1324.70  1332.12
eigval :     1348.52  1348.81  1368.06  1375.14  1383.40  1384.20
eigval :     1401.29  1406.94  1410.05  1412.26  1419.28  1419.69
eigval :     1426.02  1426.20  1428.28  1428.67  1442.68  1444.12
eigval :     1464.15  1470.58  1472.60  1474.88  1477.20  1484.82
eigval :     1486.99  1489.66  1493.01  1512.18  1524.97  1525.00
eigval :     1528.82  1529.71  1541.40  1541.90  1559.25  1560.88
eigval :     1578.43  1578.52  1597.80  1597.87  1600.18  1600.68
eigval :     1606.98  1607.12  1621.22  1621.46  2996.20  2999.39
eigval :     3019.59  3022.51  3037.49  3039.12  3062.92  3063.89
eigval :     3064.62  3065.43  3065.83  3066.17  3066.23  3066.32
eigval :     3067.31  3067.33  3067.49  3067.59  3073.35  3073.51
eigval :     3074.23  3074.48  3074.66  3074.74  3077.09  3077.36
eigval :     3077.57  3078.05  3084.45  3085.10  3085.33  3085.36
eigval :     3087.31  3087.45  3089.04  3089.42  3091.14  3091.32

   temp. (K)  partition function   enthalpy   heat capacity  entropy
                                   cal/mol     cal/K/mol   cal/K/mol   J/K/mol
 298.15  VIB  0.207E+23            26481.713    162.842    169.014
         ROT  0.141E+09              888.752      2.981     40.275
         INT  0.293E+31            27370.466    165.823    209.290
         TR   0.174E+29             1481.254      4.968     45.441
         TOT                       28851.7196   170.7912   254.7308  1065.7938

       T/K    H(0)-H(T)+PV         H(T)/Eh          T*S/Eh         G(T)/Eh
   ------------------------------------------------------------------------
    298.15    0.459781E-01    0.767804E+00    0.121031E+00    0.646773E+00
   ------------------------------------------------------------------------

         :::::::::::::::::::::::::::::::::::::::::::::::::::::
         ::                  THERMODYNAMIC                  ::
         :::::::::::::::::::::::::::::::::::::::::::::::::::::
         :: total free energy        -134.428883540233 Eh   ::
         ::.................................................::
         :: total energy             -135.075656611872 Eh   ::
         :: zero point energy           0.721825769659 Eh   ::
         :: G(RRHO) w/o ZPVE           -0.075052698020 Eh   ::
         :: G(RRHO) contrib.            0.646773071639 Eh   ::
         :::::::::::::::::::::::::::::::::::::::::::::::::::::

           -------------------------------------------------
          | TOTAL ENERGY             -135.075656611872 Eh   |
          | TOTAL ENTHALPY           -134.307852700446 Eh   |
          | TOTAL FREE ENERGY        -134.428883540233 Eh   |
          | GRADIENT NORM               0.000056451837 Eh/α |
          | HOMO-LUMO GAP               2.135575234722 eV   |
           -------------------------------------------------

 * finished run on 2025/07/19 at 00:44:32.721
