   * xtb version 6.7.1 (edcfbbe) compiled by 'albert@albert-system' on 2024-07-22

   ID    Z sym.   atoms
    1    6 C      1-54
    2    1 H      55-92

          program call               : xtb data2507/toluene/PABP/PABP_toluene_S0_finalOpt.xtbopt.xyz --gfn 2 --uhf 2 --gbsa toluene --ohess vtight --parallel 40 --molden --ceasefiles --namespace data2507/toluene/PABP/PABP_toluene_T1_preOpt
      * Solvation model:               GBSA
        Solvent                        toluene
        Solvent mass                       9.2140E+01 g/mol
          :  Hamiltonian                  GFN2-xTB          :
 * total energy  :  -134.9994720 Eh     change       -0.9364953E-08 Eh
 * total energy  :  -135.0026160 Eh     change       -0.3143989E-02 Eh
 * total energy  :  -135.0034151 Eh     change       -0.7991072E-03 Eh
 * total energy  :  -135.0035926 Eh     change       -0.1775501E-03 Eh
 * total energy  :  -134.9997185 Eh     change        0.3874100E-02 Eh
 * total energy  :  -135.0042337 Eh     change       -0.4515190E-02 Eh
 * total energy  :  -135.0044115 Eh     change       -0.1777197E-03 Eh
 * total energy  :  -135.0049180 Eh     change       -0.5065078E-03 Eh
 * total energy  :  -135.0050323 Eh     change       -0.1143240E-03 Eh
 * total energy  :  -135.0051097 Eh     change       -0.7741600E-04 Eh
 * total energy  :  -135.0061857 Eh     change       -0.1404633E-05 Eh
 * total energy  :  -135.0061871 Eh     change       -0.1348795E-05 Eh
 * total energy  :  -135.0061884 Eh     change       -0.1301594E-05 Eh
 * total energy  :  -135.0061897 Eh     change       -0.1289192E-05 Eh
 * total energy  :  -135.0061910 Eh     change       -0.1329247E-05 Eh
 * total energy  :  -135.0061924 Eh     change       -0.1430516E-05 Eh
 * total energy  :  -135.0061940 Eh     change       -0.1603012E-05 Eh
 * total energy  :  -135.0061959 Eh     change       -0.1856887E-05 Eh
 * total energy  :  -135.0061959 Eh     change       -0.4467751E-08 Eh
   *** GEOMETRY OPTIMIZATION CONVERGED AFTER 122 ITERATIONS ***

 final structure:
================
92
 xtb: 6.7.1 (edcfbbe)
C           -0.72729663772863       -1.42380257337819        2.10139608426405
C           -1.45355245254866       -0.69723039843065        1.00884643281632
C           -2.83970111508411       -0.68360248521699        0.97002419717131
C           -3.53284804671168       -0.02486497698692       -0.03948958516563
C           -5.01279728482116       -0.02468072926413       -0.05434829922329
C           -5.71897335916457        0.76898664827027        0.86059736166341
C           -5.05045668503832        1.60106305965925        1.79707750481265
C           -5.74361393363561        2.35502339382387        2.69380407906930
C           -7.15232306020831        2.31783971977031        2.71370253885280
C           -7.83183977650787        1.54542061235917        1.82196096767654
C           -7.14905090725174        0.76113034075478        0.85487067067840
C           -7.83872899869823       -0.02094720183091       -0.08315017757703
C           -9.31845992118473       -0.01985002919840       -0.09826646919375
C          -10.01951192264487        1.09709588494347       -0.54323569101995
C          -11.40301848344183        1.09549424783093       -0.56015146644766
C          -12.10313893770261       -0.01933585453973       -0.12897277491108
C          -11.41310855884239       -1.13432746127657        0.31777201781636
C          -10.02958124351064       -1.13638046340743        0.33151402505955
C           -7.13204293549038       -0.80442910201312       -1.00729980910298
C           -7.79686706771611       -1.58564615763308       -1.98925170537742
C           -7.10116918921711       -2.35900247863726       -2.86761039261776
C           -5.69330546323863       -2.40037526890560       -2.81846725080166
C           -5.01667459554405       -1.64921778024691       -1.90686920210887
C           -5.70218131191326       -0.81612234680100       -0.98373798215819
C           -2.81480013286084        0.63546427598295       -1.03005891215262
C           -1.43312730925659        0.63662391958794       -0.99739741681816
C           -0.74336931962997       -0.02313513105453        0.01205679388161
C            0.73746349866919       -0.01089187489521        0.01369798079605
C            1.43763919154593       -1.09770237804492       -0.49836076030017
C            2.81695613930838       -1.11157260346566       -0.51298591743388
C            3.54014904419197       -0.02082881060922       -0.02233650235397
C            5.00053332083914       -0.01806456670816       -0.04110258502613
C            5.70196555814579        1.03115439087724       -0.71059626356386
C            5.02994715520523        2.03205254398592       -1.41805903035911
C            5.71499883785827        3.09149276736424       -2.01237350312117
C            7.08645529876628        3.16657808402893       -1.90600953064458
C            7.78696565065655        2.15300539114103       -1.25283091637494
C            7.12978667209827        1.05359363943471       -0.69241446443708
C            7.84803826206049       -0.02324598112312       -0.08956022984131
C            9.31060619227640       -0.02594931246059       -0.11349183417205
C           10.00839721305457        0.01605041860983       -1.32422458532227
C           11.38970590826273        0.00645190587993       -1.34421255937594
C           12.10640699854276       -0.03260793574602       -0.15811494002777
C           11.42776242283307       -0.06815028495748        1.05026828790910
C           10.04653581446710       -0.07121249524379        1.07432904028222
C            7.14692107915843       -1.09700288405623        0.53823647722706
C            7.81813622874789       -2.19965966156765        1.07512969618596
C            7.13597495744053       -3.20958527864099        1.75305600754320
C            5.76970571896382       -3.12733218551208        1.90895985665865
C            5.06919473429588       -2.06472482207976        1.33858791938970
C            5.72080126591726       -1.06829340650183        0.60621031814072
C            2.82679126040997        1.06892267397141        0.48514323473547
C            1.44330091294117        1.08786686153464        0.51551637036342
C            0.70711347779639        2.26642192074374        1.07986660997595
H           -0.27537018476902       -2.33582867883626        1.71096499347733
H            0.07463881131135       -0.80960990859973        2.50799670894831
H           -1.40924910417031       -1.69513704315672        2.90377181645383
H           -3.39992277778751       -1.19843377549455        1.73880298356002
H           -3.97082120161046        1.62531756132421        1.78284271367437
H           -5.22020664919953        2.98394129054214        3.39958202436038
H           -7.68777375139491        2.90942570038816        3.44236860834208
H           -8.91145651025479        1.51720154757463        1.83872895564029
H           -9.47156654966887        1.96568718493538       -0.88098414016519
H          -11.93660944967344        1.96758191242956       -0.91039275008134
H          -13.18341844355681       -0.01925359704094       -0.14102678896988
H          -11.95464562262880       -2.00632148161125        0.65584483096009
H           -9.48952898062423       -2.00523676772926        0.68103945016224
H           -8.87579996004301       -1.55403195284304       -2.02878328140580
H           -7.62294778820018       -2.94794428784878       -3.60824185768128
H           -5.15706393774956       -3.02987751097468       -3.51404428260411
H           -3.93748855632114       -1.67570979546909       -1.87112455257240
H           -3.34290195431565        1.15089591494481       -1.81965485931040
H           -0.87545902659392        1.15079668783273       -1.76801358345135
H            0.88619620568752       -1.93786630119128       -0.89740215968827
H            3.34713079937247       -1.95282356210776       -0.93568738839363
H            3.95608340805503        1.98468841687015       -1.51276424411290
H            5.16154203907476        3.85234076301370       -2.54302262823592
H            7.62790304809515        3.99708429845520       -2.33468149742447
H            8.86133607779488        2.22351223075316       -1.17783846858279
H            9.45284949348566        0.02764819754418       -2.25138023810692
H           11.91168477243469        0.02699982623237       -2.29042376822609
H           13.18644555222948       -0.03525235731663       -0.17525874665212
H           11.97954933927442       -0.09130580579552        1.97933373846932
H            9.52063429761036       -0.08056573701121        2.01861166666148
H            8.88866887023340       -2.27618215594896        0.96113082383869
H            7.68813169951723       -4.04295803104464        2.16205142776662
H            5.23189486878301       -3.88505747201401        2.45976566210704
H            3.99951696839110       -2.01167303109577        1.47099686608823
H            3.37764638920960        1.90507927603597        0.89348974263062
H            0.19589847158779        2.80852321292830        0.28437143085062
H           -0.05026817744984        1.94216142846528        1.79201082984179
H            1.39289311933531        2.94828923825255        1.57697822651497

          :  Hamiltonian                  GFN2-xTB          :
         :: gradient norm              0.000059774663 Eh/a0 ::
         :: HOMO-LUMO gap              0.223225187287 eV    ::
         :: SCC energy              -137.625660757620 Eh    ::
         :: -> dispersion             -0.131909278517 Eh    ::
         :: -> Gsolv                  -0.053878685572 Eh    ::
         :: repulsion energy           2.619464868677 Eh    ::

    * Orbital Energies and Occupations

         #    Occupation            Energy/Eh            Energy/eV
      -------------------------------------------------------------
         1        2.0000           -0.6524237             -17.7534
       ...           ...                  ...                  ...
       116        2.0000           -0.3998198             -10.8796
       117        2.0000           -0.3991550             -10.8616
       118        2.0000           -0.3987380             -10.8502
       119        2.0000           -0.3976309             -10.8201
       120        2.0000           -0.3970544             -10.8044
       121        2.0000           -0.3967067             -10.7949
       122        2.0000           -0.3953113             -10.7570
       123        2.0000           -0.3929826             -10.6936
       124        2.0000           -0.3878030             -10.5527
       125        2.0000           -0.3848020             -10.4710
       126        1.9896           -0.3561663              -9.6918
       127        1.0104           -0.3475103              -9.4562
       128        0.9868           -0.2857895              -7.7767 (HOMO)
       129        0.0132           -0.2775861              -7.5535 (LUMO)
       130                         -0.2292970              -6.2395
       131                         -0.2265799              -6.1656
       132                         -0.2254587              -6.1350
       133                         -0.2252761              -6.1301
       134                         -0.2233959              -6.0789
       135                         -0.2232668              -6.0754
       136                         -0.2230589              -6.0697
       137                         -0.2204000              -5.9974
       138                         -0.2192820              -5.9670
       139                         -0.2176675              -5.9230
       ...                                ...                  ...
       254                          0.7156462              19.4737
      -------------------------------------------------------------
                  HL-Gap            0.0082034 Eh            0.2232 eV

     #   Z          covCN         q      C6AA      α(0)
     1   6 C        3.757    -0.105    22.558     6.772
     2   6 C        2.968     0.012    27.735     8.638
     3   6 C        2.929    -0.044    29.088     8.845
     4   6 C        2.976     0.011    27.774     8.645
     5   6 C        2.977    -0.006    28.168     8.706
     6   6 C        2.984     0.005    27.909     8.666
     7   6 C        2.917    -0.035    28.872     8.811
     8   6 C        2.914    -0.032    28.791     8.799
     9   6 C        2.914    -0.032    28.789     8.798
    10   6 C        2.917    -0.035    28.882     8.813
    11   6 C        2.983     0.005    27.909     8.666
    12   6 C        2.976    -0.008    28.207     8.712
    13   6 C        2.977     0.015    27.662     8.627
    14   6 C        2.924    -0.033    28.812     8.803
    15   6 C        2.918    -0.031    28.766     8.795
    16   6 C        2.920    -0.033    28.817     8.803
    17   6 C        2.918    -0.031    28.767     8.795
    18   6 C        2.924    -0.033    28.812     8.803
    19   6 C        2.983     0.005    27.909     8.666
    20   6 C        2.917    -0.035    28.883     8.813
    21   6 C        2.914    -0.032    28.789     8.798
    22   6 C        2.914    -0.032    28.791     8.799
    23   6 C        2.917    -0.035    28.870     8.811
    24   6 C        2.983     0.005    27.910     8.666
    25   6 C        2.922    -0.039    28.962     8.825
    26   6 C        2.923    -0.035    28.881     8.813
    27   6 C        2.982     0.001    27.987     8.678
    28   6 C        2.982     0.003    27.958     8.673
    29   6 C        2.920    -0.035    28.879     8.813
    30   6 C        2.922    -0.038    28.939     8.822
    31   6 C        2.972     0.011    27.761     8.643
    32   6 C        2.972    -0.011    28.294     8.725
    33   6 C        2.976     0.008    27.846     8.656
    34   6 C        2.921    -0.040    28.988     8.829
    35   6 C        2.913    -0.033    28.815     8.802
    36   6 C        2.913    -0.033    28.825     8.804
    37   6 C        2.921    -0.040    28.984     8.829
    38   6 C        2.976     0.007    27.852     8.657
    39   6 C        2.973    -0.012    28.302     8.726
    40   6 C        2.974     0.015    27.668     8.628
    41   6 C        2.924    -0.032    28.808     8.802
    42   6 C        2.917    -0.031    28.768     8.795
    43   6 C        2.919    -0.033    28.819     8.803
    44   6 C        2.917    -0.031    28.768     8.795
    45   6 C        2.924    -0.032    28.808     8.802
    46   6 C        2.977     0.007    27.851     8.657
    47   6 C        2.921    -0.040    28.984     8.828
    48   6 C        2.913    -0.033    28.824     8.804
    49   6 C        2.913    -0.033    28.816     8.803
    50   6 C        2.921    -0.040    28.987     8.829
    51   6 C        2.976     0.008    27.847     8.656
    52   6 C        2.928    -0.044    29.084     8.844
    53   6 C        2.967     0.013    27.732     8.638
    54   6 C        3.758    -0.105    22.561     6.772
    55   1 H        0.925     0.047     2.356     2.400
    56   1 H        0.925     0.045     2.388     2.417
    57   1 H        0.925     0.042     2.419     2.432
    58   1 H        0.925     0.029     2.604     2.523
    59   1 H        0.926     0.032     2.558     2.501
    60   1 H        0.926     0.029     2.596     2.519
    61   1 H        0.926     0.029     2.605     2.524
    62   1 H        0.926     0.030     2.586     2.515
    63   1 H        0.926     0.029     2.598     2.521
    64   1 H        0.926     0.031     2.574     2.509
    65   1 H        0.926     0.030     2.582     2.513
    66   1 H        0.926     0.031     2.573     2.509
    67   1 H        0.926     0.029     2.597     2.520
    68   1 H        0.926     0.030     2.584     2.514
    69   1 H        0.926     0.029     2.606     2.524
    70   1 H        0.926     0.029     2.604     2.523
    71   1 H        0.926     0.031     2.572     2.508
    72   1 H        0.926     0.026     2.641     2.541
    73   1 H        0.925     0.027     2.629     2.536
    74   1 H        0.925     0.028     2.612     2.528
    75   1 H        0.926     0.030     2.591     2.517
    76   1 H        0.926     0.034     2.536     2.490
    77   1 H        0.926     0.029     2.607     2.525
    78   1 H        0.926     0.028     2.615     2.529
    79   1 H        0.926     0.031     2.571     2.508
    80   1 H        0.926     0.031     2.569     2.506
    81   1 H        0.926     0.031     2.569     2.507
    82   1 H        0.926     0.030     2.581     2.512
    83   1 H        0.926     0.031     2.568     2.506
    84   1 H        0.926     0.031     2.566     2.505
    85   1 H        0.926     0.031     2.571     2.508
    86   1 H        0.926     0.028     2.614     2.528
    87   1 H        0.926     0.029     2.605     2.524
    88   1 H        0.926     0.033     2.542     2.493
    89   1 H        0.925     0.032     2.557     2.500
    90   1 H        0.925     0.048     2.348     2.396
    91   1 H        0.925     0.045     2.384     2.415
    92   1 H        0.925     0.042     2.418     2.431

molecular dipole:
                 x           y           z       tot (Debye)
 q only:       -0.071       0.076       0.274
   full:       -0.067       0.061       0.230       0.630

 projected vibrational frequencies (cm⁻¹)
eigval :       -0.00    -0.00    -0.00    -0.00     0.00     0.00
eigval :       -8.33     7.74     9.05    16.20    20.05    22.74
eigval :       30.54    39.59    45.79    51.57    57.57    63.88
eigval :       69.55    73.73    78.36    80.52    82.32    84.99
eigval :       92.98   106.22   107.75   123.40   164.35   168.22
eigval :      178.96   182.11   194.44   198.70   198.88   213.45
eigval :      221.64   223.83   226.58   229.69   237.74   241.18
eigval :      251.36   291.27   336.59   340.32   359.01   364.87
eigval :      367.95   375.48   380.79   385.53   390.20   394.06
eigval :      398.64   403.52   406.51   413.37   418.06   425.74
eigval :      439.24   445.31   455.26   458.06   465.48   469.64
eigval :      471.47   487.21   513.75   535.02   552.87   554.69
eigval :      569.74   578.30   581.03   582.89   585.55   586.18
eigval :      596.69   597.13   604.06   615.73   618.10   625.35
eigval :      630.02   646.79   664.22   671.57   672.17   673.03
eigval :      691.19   697.60   700.97   703.16   714.06   717.03
eigval :      732.02   738.78   740.33   752.72   754.12   756.21
eigval :      772.29   773.77   823.34   827.92   831.02   832.97
eigval :      840.17   844.18   871.20   872.08   874.62   875.13
eigval :      881.96   885.52   888.49   891.67   894.17   895.16
eigval :      898.21   900.96   901.09   905.06   908.06   910.44
eigval :      915.51   916.62   920.69   921.80   923.00   926.04
eigval :      926.48   927.96   929.45   932.39   932.64   943.49
eigval :      982.78   985.55   992.75   994.46   999.03  1022.64
eigval :     1023.10  1030.75  1032.69  1079.98  1081.47  1081.58
eigval :     1082.21  1100.28  1103.19  1110.45  1116.95  1119.10
eigval :     1124.55  1130.69  1133.81  1144.61  1160.81  1176.41
eigval :     1178.04  1179.53  1180.11  1180.44  1182.12  1183.08
eigval :     1187.93  1190.08  1193.99  1200.00  1214.17  1217.47
eigval :     1228.83  1229.11  1236.32  1250.95  1255.62  1257.07
eigval :     1259.58  1263.45  1271.83  1279.75  1281.90  1285.79
eigval :     1296.51  1304.02  1305.74  1309.49  1309.96  1311.24
eigval :     1321.14  1343.85  1349.00  1364.69  1365.70  1371.38
eigval :     1372.36  1383.81  1402.32  1405.48  1406.50  1407.92
eigval :     1410.94  1415.19  1421.68  1423.35  1425.68  1428.17
eigval :     1442.76  1459.06  1462.19  1471.46  1473.17  1474.27
eigval :     1475.94  1481.32  1483.12  1485.53  1489.03  1506.14
eigval :     1519.77  1523.31  1525.65  1526.09  1526.96  1536.22
eigval :     1554.31  1559.38  1559.42  1578.23  1581.37  1582.09
eigval :     1597.45  1599.80  1604.75  1619.65  2997.86  3000.30
eigval :     3020.82  3021.47  3039.31  3039.87  3063.71  3064.15
eigval :     3065.31  3065.87  3066.03  3066.09  3066.19  3067.49
eigval :     3067.76  3067.85  3070.94  3071.37  3073.55  3074.60
eigval :     3074.71  3075.11  3077.38  3077.46  3077.86  3079.35
eigval :     3080.25  3080.64  3084.71  3085.88  3087.25  3087.42
eigval :     3089.36  3090.99  3092.81  3093.30  3095.78  3097.17

   temp. (K)  partition function   enthalpy   heat capacity  entropy
                                   cal/mol     cal/K/mol   cal/K/mol   J/K/mol
 298.15  VIB  0.778E+22            26456.659    164.405    167.757
         ROT  0.142E+09              888.752      2.981     40.285
         INT  0.110E+31            27345.411    167.386    208.041
         TR   0.174E+29             1481.254      4.968     45.441
         TOT                       28826.6651   172.3544   253.4828  1060.5718

       T/K    H(0)-H(T)+PV         H(T)/Eh          T*S/Eh         G(T)/Eh
   ------------------------------------------------------------------------
    298.15    0.459382E-01    0.765306E+00    0.120438E+00    0.644868E+00
   ------------------------------------------------------------------------

         :::::::::::::::::::::::::::::::::::::::::::::::::::::
         ::                  THERMODYNAMIC                  ::
         :::::::::::::::::::::::::::::::::::::::::::::::::::::
         :: total free energy        -134.361328185029 Eh   ::
         ::.................................................::
         :: total energy             -135.006195893019 Eh   ::
         :: zero point energy           0.719367327828 Eh   ::
         :: G(RRHO) w/o ZPVE           -0.074499619839 Eh   ::
         :: G(RRHO) contrib.            0.644867707990 Eh   ::
         :::::::::::::::::::::::::::::::::::::::::::::::::::::

           -------------------------------------------------
          | TOTAL ENERGY             -135.006195893019 Eh   |
          | TOTAL ENTHALPY           -134.240890350226 Eh   |
          | TOTAL FREE ENERGY        -134.361328185029 Eh   |
          | GRADIENT NORM               0.000059775051 Eh/α |
          | HOMO-LUMO GAP               0.223225560356 eV   |
           -------------------------------------------------

 * finished run on 2025/07/19 at 00:44:47.315
