   * xtb version 6.7.1 (edcfbbe) compiled by 'albert@albert-system' on 2024-07-22

   ID    Z sym.   atoms
    1    6 C      1-54
    2    1 H      55-92

          program call               : xtb data2507/toluene/PABP/PABP.xyz --gfn 2 --gbsa toluene --ohess vtight --parallel 40 --molden --ceasefiles --namespace data2507/toluene/PABP/PABP_toluene_S0_preOpt
      * Solvation model:               GBSA
        Solvent                        toluene
        Solvent mass                       9.2140E+01 g/mol
          :  Hamiltonian                  GFN2-xTB          :
 * total energy  :  -135.0507927 Eh     change       -0.1558732E-08 Eh
 * total energy  :  -135.0695096 Eh     change       -0.1871690E-01 Eh
 * total energy  :  -135.0745449 Eh     change       -0.5035363E-02 Eh
 * total energy  :  -135.0750967 Eh     change       -0.5517913E-03 Eh
 * total energy  :  -135.0753739 Eh     change       -0.2771419E-03 Eh
 * total energy  :  -135.0754718 Eh     change       -0.9795649E-04 Eh
 * total energy  :  -135.0755382 Eh     change       -0.6634793E-04 Eh
 * total energy  :  -135.0755864 Eh     change       -0.4824556E-04 Eh
 * total energy  :  -135.0756181 Eh     change       -0.3168006E-04 Eh
 * total energy  :  -135.0756258 Eh     change       -0.7664248E-05 Eh
 * total energy  :  -135.0757136 Eh     change       -0.1426513E-05 Eh
 * total energy  :  -135.0757151 Eh     change       -0.1456879E-05 Eh
 * total energy  :  -135.0757162 Eh     change       -0.1151343E-05 Eh
 * total energy  :  -135.0757173 Eh     change       -0.1028643E-05 Eh
 * total energy  :  -135.0757182 Eh     change       -0.9364119E-06 Eh
 * total energy  :  -135.0757189 Eh     change       -0.6726788E-06 Eh
 * total energy  :  -135.0757193 Eh     change       -0.3959263E-06 Eh
 * total energy  :  -135.0757195 Eh     change       -0.2452498E-06 Eh
 * total energy  :  -135.0757196 Eh     change       -0.6532994E-07 Eh
   *** GEOMETRY OPTIMIZATION CONVERGED AFTER 40 ITERATIONS ***

 final structure:
================
92
 xtb: 6.7.1 (edcfbbe)
C           -0.71468466815092        1.62175307841163        1.87604441635046
C           -1.44765525634024        0.74477412577983        0.90526220423166
C           -2.83390744398950        0.71125687823251        0.88731868776226
C           -3.52869350772467       -0.09952544343360       -0.00271863452634
C           -5.01062597283483       -0.11438034041153       -0.00192039479396
C           -5.71600012582712        0.72997720832642       -0.86879963033136
C           -5.04736479621284        1.61658120872292       -1.75403238941526
C           -5.74241925863289        2.43442210785422       -2.59070073171686
C           -7.15269149565767        2.41662001874598       -2.59431654967123
C           -7.83173423094081        1.58247240234972       -1.76044637761231
C           -7.14587046008776        0.71334005725935       -0.87096342106567
C           -7.83344803397516       -0.14742887609320       -0.00587835018147
C           -9.31596448013702       -0.16736243805170       -0.00913117954418
C          -10.00657636207545       -1.02203589745036       -0.86204082630994
C          -11.39031308401757       -1.04171821358537       -0.86278155135254
C          -12.09835793416054       -0.20814890286547       -0.01274053719418
C          -11.41721497641710        0.64586799662737        0.83896518947586
C          -10.03352916712294        0.66688288469151        0.84170062377495
C           -7.12822486416743       -0.99056883756868        0.86244284853079
C           -7.79611017211903       -1.87451759164326        1.75099761471531
C           -7.10019587792813       -2.69132028872631        2.58809608889010
C           -5.68990912061622       -2.67601102011282        2.58849725541559
C           -5.01174564603597       -1.84358133175690        1.75235682260451
C           -5.69837809803232       -0.97377582074552        0.86427460714025
C           -2.81533176824522       -0.89405567474287       -0.89189147646810
C           -1.43310064575689       -0.86915174945426       -0.88355671353544
C           -0.74108720453937       -0.05647108128682        0.00479772226461
C            0.74106558298416       -0.05656979827081       -0.00454135181577
C            1.43307776178112       -0.86249731693023        0.88994698619886
C            2.81530162025441       -0.88733927745219        0.89847944343883
C            3.52868625226380       -0.09981337864862        0.00310416965158
C            5.01059246109314       -0.11469777834290        0.00246906066371
C            5.69852283881250       -0.97474370079635       -0.86295841958108
C            5.01210097785691       -1.84554061782829       -1.75023774440174
C            5.69045300703262       -2.67861033932659       -2.58559078170785
C            7.10073914162468       -2.69374906859620       -2.58503501710097
C            7.79646101007666       -1.87616510620981       -1.74854096562682
C            7.12837271995262       -0.99152733642838       -0.86082690553659
C            7.83342471758475       -0.14777094762926        0.00702814408933
C            9.31594032857615       -0.16775820218945        0.01066880658455
C           10.00627814180225       -1.02279667827373        0.86343411498402
C           11.39001434866107       -1.04247960507644        0.86461081403598
C           12.09833220145746       -0.20857600995261        0.01512491823362
C           11.41746309665731        0.64580163349505       -0.83643652532779
C           10.03377781992356        0.66683969012415       -0.83958669345102
C            7.14567912111835        0.71362957463049        0.87135145502248
C            7.83139081670517        1.58337943494381        1.76035095425801
C            7.15221286600076        2.41834528646219        2.59329208716514
C            5.74195304936354        2.43658119976557        2.58896838169639
C            5.04704421816947        1.61808813880918        1.75281384155768
C            5.71581305918926        0.73034324192164        0.86882860190034
C            2.83389281628046        0.70409878280156       -0.89314133951013
C            1.44764405372246        0.73773874788086       -0.91111283853596
C            0.71471113959469        1.60751027046159       -1.88839024729609
H           -0.19132097189207        1.01326486284167        2.61348073067646
H            0.03261068831086        2.22503473563261        1.36245753695655
H           -1.40415134623076        2.28089240562818        2.39801867967718
H           -3.39248771668516        1.32822890824755        1.57811299912592
H           -3.96714842032119        1.62784853940528       -1.74804628496019
H           -5.22047675465089        3.10449035751607       -3.25870437100764
H           -7.68824989608324        3.07291324170163       -3.26523181319748
H           -8.91206583713872        1.56809035027484       -1.76054930006087
H           -9.45150145333296       -1.67155662091479       -1.52440384529362
H          -11.91760567190527       -1.70954158941135       -1.52905913192479
H          -13.17865568414112       -0.22419382952746       -0.01378703070072
H          -11.96556886727707        1.29774039490522        1.50401122788416
H           -9.49941003224229        1.33207793578145        1.50567310686630
H           -8.87646657514124       -1.88549657246454        1.74797403332344
H           -7.62212267515176       -3.35880898482332        3.25870713347103
H           -5.15424682983192       -3.33265329323243        3.25900253095204
H           -3.93150719672688       -1.83043968542387        1.74898340135427
H           -3.34652222344077       -1.52954953800559       -1.58613172217701
H           -0.87766633755474       -1.49044271344385       -1.57260069720433
H            0.87765548884881       -1.47850671750999        1.58372141902907
H            3.34648348153102       -1.51745956757701        1.59760427150153
H            3.93185981914887       -1.83277342111771       -1.74676257947623
H            5.15493383549650       -3.33616159730495       -3.25531366554585
H            7.62281849201596       -3.36172162704212       -3.25504590290658
H            8.87682073177863       -1.88693139608536       -1.74546626682708
H            9.45099143060112       -1.67250695536051        1.52543405036695
H           11.91709284686584       -1.71052710230918        1.53083420031755
H           13.17862885271609       -0.22464222161426        0.01648964412213
H           11.96602837167694        1.29785230902191       -1.50113353765753
H            9.49987181611758        1.33224907661437       -1.50351749401887
H            8.91172237721747        1.56892325279082        1.76071731820449
H            7.68765493974076        3.07519359490298        3.26375313693917
H            5.21988850653893        3.10740379314493        3.25612328001308
H            3.96683360678034        1.62960024018343        1.74642645024702
H            3.39246793073389        1.31561255547426       -1.58876875274848
H           -0.03369821308212        2.21340529420641       -1.37954642680588
H            1.40401609286645        2.26387171139760       -2.41407356133171
H            0.19268387704004        0.99360857510095       -2.62229103421500

          :  Hamiltonian                  GFN2-xTB          :
         :: gradient norm              0.000130158213 Eh/a0 ::
         :: HOMO-LUMO gap              2.186102080617 eV    ::
         :: SCC energy              -137.715462460605 Eh    ::
         :: -> dispersion             -0.131509607487 Eh    ::
         :: -> Gsolv                  -0.054782925429 Eh    ::
         :: repulsion energy           2.639742879846 Eh    ::

    * Orbital Energies and Occupations

         #    Occupation            Energy/Eh            Energy/eV
      -------------------------------------------------------------
         1        2.0000           -0.6527862             -17.7632
       ...           ...                  ...                  ...
       115        2.0000           -0.4037365             -10.9862
       116        2.0000           -0.4012281             -10.9180
       117        2.0000           -0.3979545             -10.8289
       118        2.0000           -0.3977851             -10.8243
       119        2.0000           -0.3973482             -10.8124
       120        2.0000           -0.3969785             -10.8023
       121        2.0000           -0.3969137             -10.8006
       122        2.0000           -0.3957904             -10.7700
       123        2.0000           -0.3950270             -10.7492
       124        2.0000           -0.3863919             -10.5143
       125        2.0000           -0.3840782             -10.4513
       126        2.0000           -0.3572934              -9.7224
       127        2.0000           -0.3572863              -9.7223 (HOMO)
       128                         -0.2769485              -7.5362 (LUMO)
       129                         -0.2769228              -7.5355
       130                         -0.2295756              -6.2471
       131                         -0.2295709              -6.2469
       132                         -0.2231251              -6.0715
       133                         -0.2231153              -6.0713
       134                         -0.2230303              -6.0690
       135                         -0.2229740              -6.0674
       136                         -0.2229731              -6.0674
       137                         -0.2192565              -5.9663
       138                         -0.2190594              -5.9609
       ...                                ...                  ...
       254                          0.7157260              19.4759
      -------------------------------------------------------------
                  HL-Gap            0.0803378 Eh            2.1861 eV

     #   Z          covCN         q      C6AA      α(0)
     1   6 C        3.757    -0.105    22.553     6.771
     2   6 C        2.968     0.012    27.737     8.639
     3   6 C        2.928    -0.044    29.093     8.846
     4   6 C        2.976     0.011    27.775     8.645
     5   6 C        2.978    -0.006    28.159     8.704
     6   6 C        2.984     0.005    27.910     8.666
     7   6 C        2.917    -0.034    28.855     8.809
     8   6 C        2.914    -0.031    28.783     8.798
     9   6 C        2.914    -0.031    28.780     8.797
    10   6 C        2.917    -0.035    28.863     8.810
    11   6 C        2.984     0.005    27.910     8.666
    12   6 C        2.977    -0.007    28.197     8.710
    13   6 C        2.977     0.016    27.651     8.626
    14   6 C        2.924    -0.033    28.815     8.803
    15   6 C        2.919    -0.030    28.760     8.794
    16   6 C        2.920    -0.033    28.821     8.804
    17   6 C        2.919    -0.030    28.761     8.794
    18   6 C        2.924    -0.033    28.816     8.803
    19   6 C        2.984     0.005    27.910     8.666
    20   6 C        2.917    -0.035    28.864     8.810
    21   6 C        2.914    -0.031    28.780     8.797
    22   6 C        2.914    -0.031    28.783     8.797
    23   6 C        2.917    -0.034    28.852     8.808
    24   6 C        2.984     0.005    27.910     8.666
    25   6 C        2.922    -0.039    28.969     8.826
    26   6 C        2.923    -0.036    28.885     8.814
    27   6 C        2.982     0.001    27.995     8.679
    28   6 C        2.982     0.001    27.995     8.679
    29   6 C        2.923    -0.036    28.885     8.814
    30   6 C        2.922    -0.039    28.969     8.826
    31   6 C        2.976     0.011    27.775     8.645
    32   6 C        2.978    -0.006    28.159     8.704
    33   6 C        2.984     0.005    27.910     8.666
    34   6 C        2.917    -0.034    28.852     8.808
    35   6 C        2.914    -0.031    28.783     8.797
    36   6 C        2.914    -0.031    28.780     8.797
    37   6 C        2.917    -0.035    28.864     8.810
    38   6 C        2.984     0.005    27.910     8.666
    39   6 C        2.977    -0.007    28.197     8.710
    40   6 C        2.977     0.016    27.651     8.626
    41   6 C        2.924    -0.033    28.815     8.803
    42   6 C        2.919    -0.030    28.760     8.794
    43   6 C        2.920    -0.033    28.821     8.804
    44   6 C        2.919    -0.030    28.761     8.794
    45   6 C        2.924    -0.033    28.816     8.803
    46   6 C        2.984     0.005    27.910     8.666
    47   6 C        2.917    -0.035    28.863     8.810
    48   6 C        2.914    -0.031    28.780     8.797
    49   6 C        2.914    -0.031    28.783     8.798
    50   6 C        2.917    -0.034    28.855     8.809
    51   6 C        2.984     0.005    27.910     8.666
    52   6 C        2.928    -0.044    29.093     8.846
    53   6 C        2.968     0.012    27.737     8.639
    54   6 C        3.757    -0.105    22.553     6.771
    55   1 H        0.925     0.047     2.361     2.403
    56   1 H        0.925     0.045     2.385     2.415
    57   1 H        0.925     0.042     2.425     2.435
    58   1 H        0.925     0.028     2.619     2.531
    59   1 H        0.926     0.031     2.567     2.505
    60   1 H        0.926     0.030     2.589     2.516
    61   1 H        0.926     0.029     2.598     2.521
    62   1 H        0.926     0.029     2.599     2.521
    63   1 H        0.926     0.028     2.612     2.527
    64   1 H        0.926     0.031     2.571     2.508
    65   1 H        0.926     0.030     2.580     2.512
    66   1 H        0.926     0.031     2.570     2.507
    67   1 H        0.926     0.028     2.609     2.526
    68   1 H        0.926     0.029     2.597     2.520
    69   1 H        0.926     0.029     2.598     2.521
    70   1 H        0.926     0.029     2.596     2.519
    71   1 H        0.926     0.031     2.576     2.510
    72   1 H        0.926     0.025     2.656     2.549
    73   1 H        0.925     0.026     2.637     2.539
    74   1 H        0.925     0.026     2.637     2.539
    75   1 H        0.926     0.025     2.656     2.549
    76   1 H        0.926     0.031     2.576     2.510
    77   1 H        0.926     0.029     2.596     2.519
    78   1 H        0.926     0.029     2.599     2.521
    79   1 H        0.926     0.029     2.598     2.520
    80   1 H        0.926     0.028     2.612     2.527
    81   1 H        0.926     0.031     2.571     2.508
    82   1 H        0.926     0.030     2.580     2.512
    83   1 H        0.926     0.031     2.570     2.507
    84   1 H        0.926     0.028     2.609     2.526
    85   1 H        0.926     0.029     2.599     2.521
    86   1 H        0.926     0.029     2.598     2.521
    87   1 H        0.926     0.030     2.589     2.516
    88   1 H        0.926     0.031     2.567     2.505
    89   1 H        0.925     0.028     2.619     2.531
    90   1 H        0.925     0.045     2.386     2.415
    91   1 H        0.925     0.042     2.425     2.435
    92   1 H        0.925     0.047     2.361     2.403

molecular dipole:
                 x           y           z       tot (Debye)
 q only:       -0.000       0.294      -0.001
   full:       -0.000       0.250      -0.001       0.635

 projected vibrational frequencies (cm⁻¹)
eigval :       -0.00    -0.00    -0.00     0.00     0.00     0.00
eigval :       -8.77     9.43    10.12    14.51    19.97    20.26
eigval :       23.98    25.76    32.68    50.26    50.37    62.90
eigval :       63.58    66.96    79.26    79.96    81.37    83.12
eigval :       84.85    85.37   103.77   103.82   159.98   163.39
eigval :      172.39   176.35   195.66   198.04   198.98   214.15
eigval :      214.46   217.77   219.60   225.07   230.82   235.53
eigval :      236.29   289.65   338.69   340.60   365.78   365.80
eigval :      377.00   378.93   381.32   391.75   393.12   398.01
eigval :      399.38   408.39   409.76   425.20   432.70   443.58
eigval :      446.38   446.53   459.05   459.07   462.05   467.75
eigval :      474.39   487.12   514.94   538.26   554.23   556.26
eigval :      578.58   578.68   586.04   586.06   588.76   599.10
eigval :      599.27   599.84   615.87   619.92   622.72   631.50
eigval :      633.26   650.06   668.57   674.36   674.61   693.38
eigval :      693.40   700.64   702.21   704.58   715.36   732.70
eigval :      741.97   743.56   756.27   756.31   772.72   772.92
eigval :      774.63   774.86   827.03   828.20   830.09   832.50
eigval :      872.76   872.76   874.56   874.60   878.91   878.96
eigval :      884.37   885.66   894.73   894.75   902.95   902.96
eigval :      910.74   910.76   917.24   917.28   917.75   917.78
eigval :      918.93   919.47   927.68   927.73   928.02   928.05
eigval :      929.91   929.94   931.43   931.45   933.29   933.31
eigval :      982.41   986.55   994.22   998.94   999.22  1021.49
eigval :     1021.96  1030.32  1033.04  1076.02  1076.10  1077.21
eigval :     1077.29  1082.17  1082.19  1116.72  1116.76  1127.75
eigval :     1134.11  1134.11  1143.46  1144.36  1159.34  1177.50
eigval :     1177.55  1179.32  1179.89  1181.50  1181.68  1185.62
eigval :     1188.63  1193.92  1193.93  1213.53  1214.31  1224.20
eigval :     1224.33  1224.81  1241.38  1252.85  1253.73  1256.61
eigval :     1260.42  1263.17  1263.20  1279.50  1279.51  1296.19
eigval :     1303.29  1303.58  1307.66  1307.66  1325.89  1333.06
eigval :     1348.57  1348.59  1368.75  1375.75  1383.68  1383.71
eigval :     1401.68  1407.32  1410.27  1412.81  1420.03  1420.39
eigval :     1426.70  1426.72  1428.15  1428.16  1444.68  1446.18
eigval :     1464.33  1471.51  1473.14  1475.45  1477.90  1484.07
eigval :     1488.25  1491.58  1494.66  1512.98  1525.04  1525.04
eigval :     1532.37  1532.39  1543.34  1543.42  1559.52  1561.73
eigval :     1579.03  1579.04  1599.18  1599.18  1601.73  1601.88
eigval :     1607.21  1607.21  1621.88  1621.88  2999.78  3000.39
eigval :     3019.26  3019.56  3039.53  3039.69  3063.05  3063.31
eigval :     3064.56  3065.01  3066.09  3066.11  3066.54  3066.57
eigval :     3067.90  3067.91  3068.03  3068.04  3073.14  3073.15
eigval :     3073.67  3073.68  3073.90  3073.92  3077.30  3077.85
eigval :     3077.88  3078.17  3082.50  3082.51  3082.69  3082.74
eigval :     3087.33  3087.35  3087.98  3087.99  3089.89  3089.94

   temp. (K)  partition function   enthalpy   heat capacity  entropy
                                   cal/mol     cal/K/mol   cal/K/mol   J/K/mol
 298.15  VIB  0.386E+23            26513.850    162.463    168.958
         ROT  0.707E+08              888.752      2.981     38.897
         INT  0.273E+31            27402.603    165.444    207.855
         TR   0.174E+29             1481.254      4.968     45.441
         TOT                       28883.8567   170.4117   253.2965  1059.7927

       T/K    H(0)-H(T)+PV         H(T)/Eh          T*S/Eh         G(T)/Eh
   ------------------------------------------------------------------------
    298.15    0.460294E-01    0.767754E+00    0.120349E+00    0.647405E+00
   ------------------------------------------------------------------------

         :::::::::::::::::::::::::::::::::::::::::::::::::::::
         ::                  THERMODYNAMIC                  ::
         :::::::::::::::::::::::::::::::::::::::::::::::::::::
         :: total free energy        -134.428314536533 Eh   ::
         ::.................................................::
         :: total energy             -135.075719580835 Eh   ::
         :: zero point energy           0.721725044212 Eh   ::
         :: G(RRHO) w/o ZPVE           -0.074319999910 Eh   ::
         :: G(RRHO) contrib.            0.647405044302 Eh   ::
         :::::::::::::::::::::::::::::::::::::::::::::::::::::

           -------------------------------------------------
          | TOTAL ENERGY             -135.075719580835 Eh   |
          | TOTAL ENTHALPY           -134.307965181088 Eh   |
          | TOTAL FREE ENERGY        -134.428314536533 Eh   |
          | GRADIENT NORM               0.000130152910 Eh/α |
          | HOMO-LUMO GAP               2.186102140852 eV   |
           -------------------------------------------------

 * finished run on 2025/07/19 at 00:38:43.489
