   * xtb version 6.7.1 (edcfbbe) compiled by 'albert@albert-system' on 2024-07-22

   ID    Z sym.   atoms
    1    6 C      1, 2, 4-49
    2    7 N      3
    3    1 H      50-86

          program call               : xtb data2507/toluene/2CzTPE/2CzTPE_toluene_T1_crest.xyz --gfn 2 --uhf 2 --gbsa toluene --ohess vtight --parallel 40 --molden --ceasefiles --namespace data2507/toluene/2CzTPE/2CzTPE_toluene_T1_finalOpt
      * Solvation model:               GBSA
        Solvent                        toluene
        Solvent mass                       9.2140E+01 g/mol
          :  Hamiltonian                  GFN2-xTB          :
 * total energy  :  -124.5506055 Eh     change       -0.2548788E-08 Eh
 * total energy  :  -124.5506374 Eh     change       -0.3195440E-04 Eh
 * total energy  :  -124.5506514 Eh     change       -0.1399533E-04 Eh
 * total energy  :  -124.5506570 Eh     change       -0.5544213E-05 Eh
 * total energy  :  -124.5506625 Eh     change       -0.5548373E-05 Eh
 * total energy  :  -124.5506658 Eh     change       -0.3238619E-05 Eh
 * total energy  :  -124.5506699 Eh     change       -0.4148195E-05 Eh
 * total energy  :  -124.5506744 Eh     change       -0.4487942E-05 Eh
 * total energy  :  -124.5506779 Eh     change       -0.3470816E-05 Eh
 * total energy  :  -124.5506809 Eh     change       -0.3053271E-05 Eh
 * total energy  :  -124.5507306 Eh     change       -0.4041171E-06 Eh
 * total energy  :  -124.5507310 Eh     change       -0.3667355E-06 Eh
 * total energy  :  -124.5507314 Eh     change       -0.4455068E-06 Eh
 * total energy  :  -124.5507318 Eh     change       -0.3716208E-06 Eh
 * total energy  :  -124.5507322 Eh     change       -0.4161859E-06 Eh
 * total energy  :  -124.5507327 Eh     change       -0.5373041E-06 Eh
 * total energy  :  -124.5507333 Eh     change       -0.5289583E-06 Eh
 * total energy  :  -124.5507337 Eh     change       -0.4474961E-06 Eh
 * total energy  :  -124.5507337 Eh     change       -0.5827701E-08 Eh
   *** GEOMETRY OPTIMIZATION CONVERGED AFTER 44 ITERATIONS ***

 final structure:
================
86
 xtb: 6.7.1 (edcfbbe)
C            8.65689636378182       -3.43406674899348       -0.81361159373234
C            8.88665771142682       -2.65582073279625        0.48207718654898
N            9.25295920070254       -1.28651447316215        0.22892495351623
C           10.53095279948863       -0.81903322577177        0.03851237950148
C           11.74231338619408       -1.49615940698828        0.09492104092998
C           12.89961693717983       -0.77500011015140       -0.12771108511101
C           12.86539741959322        0.59120386577629       -0.40250612406753
C           11.66612706744366        1.27220431393968       -0.46376197317482
C           10.48790200774065        0.56903035543825       -0.24435818098350
C            9.10274856403003        0.93806411091942       -0.23814195171567
C            8.42220317022418        2.13202468250471       -0.44562989723927
C            7.04677248057004        2.13790244291609       -0.36499956504578
C            6.32113086264459        0.96802000663760       -0.08983491432312
C            4.85638607332735        1.01071710252530       -0.01841931697671
C            4.19551127647753        2.07509748477518        0.59887946049943
C            2.82209269068193        2.10492886495178        0.67536144253599
C            2.03285759307777        1.07930202176856        0.13031733947070
C            0.60258018117692        1.16743552873243        0.24587152044590
C           -0.30486253499251        0.28026382643524       -0.23523720014496
C           -1.72379514574616        0.36501594070710       -0.11658918641951
C           -2.39917832543380        1.38467259732969        0.59078484558538
C           -3.76038307816003        1.42572839255890        0.66411342339383
C           -4.57384055763141        0.43521585228981        0.04731353011454
C           -5.97726830193876        0.43818847567010        0.15588162648569
C           -6.73715031223758       -0.79382901495429       -0.07012683767214
C           -7.88022034021783       -0.73937492101443       -0.93128625719910
C           -7.95712577653002        0.22186420448686       -1.95931306782398
C           -9.06169637162448        0.30246179091707       -2.77643385735978
C          -10.13653321649231       -0.55869743700548       -2.59511586482760
C          -10.09099800273690       -1.50032739251563       -1.57540754467120
C           -8.98667551431079       -1.59501097740280       -0.75795420983276
C           -6.32981194902100       -1.99319852580707        0.59614219228996
C           -6.59407229505436       -3.26943619162737        0.05691863669625
C           -6.16354816491507       -4.41148106830890        0.69439518149421
C           -5.46177273088154       -4.33153640130492        1.89051286719712
C           -5.17949132384548       -3.08439906672695        2.43337068604668
C           -5.59621257245948       -1.93610460441679        1.79928555624171
C           -6.73264656190820        1.62392842337290        0.49817160260799
C           -7.91862640084988        1.51923695891727        1.24158976263141
C           -8.66136963157387        2.63780513245090        1.55311591658265
C           -8.25600027432205        3.89252963189956        1.12037674453523
C           -7.09997188951160        4.01283280791642        0.36311377837697
C           -6.34626833160775        2.89924483822810        0.05607837385331
C           -3.88849140950247       -0.60338185315531       -0.64182599767436
C           -2.52800619264628       -0.62650734940968       -0.72340474259471
C            2.70398147099676        0.01822351159225       -0.49589505277419
C            4.07815588627017       -0.01441683285359       -0.56225090251499
C            6.99156340202969       -0.23377494035654        0.11466030845256
C            8.37565594486813       -0.24405564057706        0.04656927687476
H            9.56257937197791       -3.44018377639034       -1.41584443775189
H            8.37802462735285       -4.45997290454833       -0.58783321503130
H            7.86121537714254       -2.97320030855331       -1.39452284056142
H            9.68528877056742       -3.12382953180982        1.06364201400970
H            7.97744886396590       -2.66225153484876        1.08948567227533
H           11.78943736142303       -2.55470105164672        0.30220776626302
H           13.85371825432014       -1.28113752840795       -0.08991259670292
H           13.79280378745588        1.11923178948921       -0.57120723585305
H           11.63996432351746        2.33046734383653       -0.67882661977906
H            8.96435649623108        3.03936072151460       -0.66865642856560
H            6.50630745400346        3.05600266575021       -0.54347961861794
H            4.77338285615515        2.87257877393285        1.04378988275820
H            2.33486378330152        2.93504808215181        1.16873085634885
H            0.24879222000138        2.04351046030434        0.77337278159082
H            0.05133012013063       -0.58896318212157       -0.77320709627764
H           -1.82691212765861        2.14396145350144        1.10219271966208
H           -4.23746017345466        2.19509774759069        1.25347945869826
H           -7.11884369753277        0.88347382734933       -2.12083176542597
H           -9.09070508798373        1.03956984505716       -3.56644838435151
H          -11.00338326065529       -0.49096165379148       -3.23562888434187
H          -10.93233903796484       -2.15990577000798       -1.41506118252870
H           -8.98387426638493       -2.30166172443962        0.05903122481431
H           -7.09904714164073       -3.34468782183456       -0.89503953824494
H           -6.36717306726175       -5.37776363584075        0.25454461289359
H           -5.13104261999730       -5.23063452732774        2.38889387651970
H           -4.63054206590681       -3.01368651796130        3.36178716446266
H           -5.38531615304191       -0.97232386321255        2.23907768420318
H           -8.23466148501754        0.54729850176966        1.59251522680811
H           -9.56395499477133        2.53557885784882        2.13871609824547
H           -8.84109349145115        4.76731281149308        1.36317074991682
H           -6.78905502729019        4.98406946303367        0.00445171516689
H           -5.47052113487250        2.99941770038370       -0.56879736982053
H           -4.46883329134418       -1.36714956628554       -1.13800055481891
H           -2.04209718243534       -1.42092264970845       -1.27396179779657
H            2.14021341651162       -0.79002729944033       -0.93619372329791
H            4.56566888159438       -0.83732244386342       -1.06568414208847
H            6.43377708143163       -1.12884789413181        0.34462809118192

          :  Hamiltonian                  GFN2-xTB          :
         :: gradient norm              0.000053327606 Eh/a0 ::
         :: HOMO-LUMO gap              0.940155772154 eV    ::
         :: SCC energy              -126.931590677223 Eh    ::
         :: -> dispersion             -0.113264526392 Eh    ::
         :: -> Gsolv                  -0.052355400766 Eh    ::
         :: repulsion energy           2.380856945954 Eh    ::

    * Orbital Energies and Occupations

         #    Occupation            Energy/Eh            Energy/eV
      -------------------------------------------------------------
         1        2.0000           -0.6715183             -18.2729
       ...           ...                  ...                  ...
       106        2.0000           -0.4060535             -11.0493
       107        2.0000           -0.4049694             -11.0198
       108        2.0000           -0.4033218             -10.9749
       109        2.0000           -0.4028213             -10.9613
       110        2.0000           -0.4019969             -10.9389
       111        2.0000           -0.4018712             -10.9355
       112        2.0000           -0.3997914             -10.8789
       113        2.0000           -0.3960756             -10.7778
       114        2.0000           -0.3783964             -10.2967
       115        2.0000           -0.3643775              -9.9152
       116        2.0000           -0.3595184              -9.7830
       117        1.0000           -0.3371374              -9.1740
       118        1.0000           -0.2991727              -8.1409 (HOMO)
       119                         -0.2646225              -7.2007 (LUMO)
       120                         -0.2416013              -6.5743
       121                         -0.2281356              -6.2079
       122                         -0.2221202              -6.0442
       123                         -0.2203962              -5.9973
       124                         -0.2194079              -5.9704
       125                         -0.2184870              -5.9453
       126                         -0.2183732              -5.9422
       127                         -0.2172398              -5.9114
       128                         -0.2146839              -5.8418
       129                         -0.2013112              -5.4780
       ...                                ...                  ...
       233                          0.7508868              20.4327
      -------------------------------------------------------------
                  HL-Gap            0.0345502 Eh            0.9402 eV

     #   Z          covCN         q      C6AA      α(0)
     1   6 C        3.752    -0.110    22.667     6.789
     2   6 C        3.738     0.004    20.598     6.476
     3   7 N        2.796    -0.050    22.211     7.000
     4   6 C        3.082     0.046    26.882     8.500
     5   6 C        2.909    -0.054    29.349     8.883
     6   6 C        2.923    -0.036    28.906     8.817
     7   6 C        2.919    -0.045    29.115     8.848
     8   6 C        2.912    -0.036    28.890     8.814
     9   6 C        3.069    -0.021    28.451     8.746
    10   6 C        3.070    -0.022    28.490     8.752
    11   6 C        2.910    -0.036    28.900     8.815
    12   6 C        2.924    -0.048    29.201     8.862
    13   6 C        2.978     0.003    27.943     8.671
    14   6 C        2.977     0.008    27.845     8.656
    15   6 C        2.920    -0.036    28.895     8.815
    16   6 C        2.926    -0.037    28.922     8.819
    17   6 C        2.968     0.010    27.782     8.646
    18   6 C        2.902    -0.041    29.026     8.834
    19   6 C        2.902    -0.040    28.995     8.829
    20   6 C        2.967     0.010    27.779     8.645
    21   6 C        2.915    -0.035    28.877     8.812
    22   6 C        2.916    -0.037    28.911     8.817
    23   6 C        2.969     0.012    27.745     8.640
    24   6 C        2.969    -0.005    28.154     8.703
    25   6 C        2.970    -0.007    28.203     8.711
    26   6 C        2.971     0.015    27.685     8.631
    27   6 C        2.924    -0.034    28.852     8.809
    28   6 C        2.915    -0.030    28.751     8.793
    29   6 C        2.919    -0.033    28.818     8.803
    30   6 C        2.915    -0.031    28.765     8.795
    31   6 C        2.922    -0.035    28.871     8.811
    32   6 C        2.970     0.016    27.661     8.627
    33   6 C        2.922    -0.035    28.878     8.812
    34   6 C        2.915    -0.030    28.760     8.794
    35   6 C        2.919    -0.033    28.813     8.802
    36   6 C        2.915    -0.030    28.743     8.791
    37   6 C        2.923    -0.033    28.834     8.806
    38   6 C        2.973     0.015    27.670     8.628
    39   6 C        2.924    -0.033    28.829     8.805
    40   6 C        2.916    -0.030    28.753     8.793
    41   6 C        2.919    -0.032    28.806     8.801
    42   6 C        2.916    -0.031    28.766     8.795
    43   6 C        2.923    -0.034    28.844     8.807
    44   6 C        2.917    -0.035    28.875     8.812
    45   6 C        2.921    -0.036    28.885     8.813
    46   6 C        2.920    -0.036    28.902     8.816
    47   6 C        2.921    -0.036    28.904     8.816
    48   6 C        2.915    -0.059    29.459     8.900
    49   6 C        3.079     0.045    26.897     8.503
    50   1 H        0.925     0.046     2.368     2.407
    51   1 H        0.925     0.051     2.313     2.378
    52   1 H        0.925     0.046     2.371     2.408
    53   1 H        0.924     0.052     2.296     2.369
    54   1 H        0.924     0.052     2.297     2.370
    55   1 H        0.926     0.029     2.607     2.525
    56   1 H        0.926     0.026     2.637     2.540
    57   1 H        0.926     0.023     2.683     2.561
    58   1 H        0.926     0.026     2.647     2.544
    59   1 H        0.926     0.027     2.633     2.538
    60   1 H        0.926     0.026     2.639     2.541
    61   1 H        0.926     0.030     2.583     2.514
    62   1 H        0.925     0.029     2.602     2.522
    63   1 H        0.925     0.034     2.533     2.489
    64   1 H        0.925     0.034     2.534     2.489
    65   1 H        0.926     0.032     2.556     2.500
    66   1 H        0.926     0.034     2.534     2.489
    67   1 H        0.926     0.028     2.609     2.526
    68   1 H        0.926     0.029     2.602     2.523
    69   1 H        0.926     0.030     2.590     2.517
    70   1 H        0.926     0.030     2.580     2.512
    71   1 H        0.926     0.034     2.530     2.488
    72   1 H        0.926     0.034     2.530     2.487
    73   1 H        0.926     0.031     2.579     2.511
    74   1 H        0.926     0.030     2.587     2.515
    75   1 H        0.926     0.029     2.602     2.522
    76   1 H        0.926     0.028     2.618     2.530
    77   1 H        0.926     0.028     2.613     2.528
    78   1 H        0.926     0.029     2.594     2.519
    79   1 H        0.926     0.030     2.583     2.513
    80   1 H        0.926     0.031     2.570     2.507
    81   1 H        0.926     0.034     2.528     2.486
    82   1 H        0.926     0.027     2.622     2.532
    83   1 H        0.925     0.028     2.618     2.530
    84   1 H        0.926     0.032     2.553     2.499
    85   1 H        0.926     0.031     2.575     2.509
    86   1 H        0.926     0.031     2.569     2.506

molecular dipole:
                 x           y           z       tot (Debye)
 q only:       -0.147      -0.938       0.124
   full:       -0.163      -0.960       0.152       2.504

 projected vibrational frequencies (cm⁻¹)
eigval :       -0.00    -0.00    -0.00    -0.00     0.00     0.00
eigval :        3.05    12.63    13.97    17.15    23.83    26.96
eigval :       38.22    45.38    51.06    52.81    59.37    60.38
eigval :       63.36    72.18    80.77    87.00    95.69   101.60
eigval :      105.94   116.87   137.13   149.26   166.33   177.06
eigval :      195.09   202.01   209.87   212.86   218.58   244.02
eigval :      251.33   263.39   273.23   276.73   285.20   297.15
eigval :      307.54   320.99   357.47   368.13   368.40   371.77
eigval :      374.05   379.95   387.43   390.55   392.44   398.86
eigval :      423.99   434.11   438.64   452.47   464.42   469.52
eigval :      476.79   508.62   517.04   532.83   534.28   540.76
eigval :      561.89   575.11   580.41   583.22   584.17   585.62
eigval :      594.73   597.78   604.10   612.12   620.68   621.70
eigval :      658.35   658.84   663.75   673.23   674.71   678.61
eigval :      684.66   694.29   712.82   740.94   742.17   747.01
eigval :      751.34   768.97   773.25   783.32   807.83   813.11
eigval :      814.77   823.56   829.43   836.55   850.45   855.08
eigval :      855.69   861.69   862.93   865.67   867.59   869.20
eigval :      882.33   893.75   896.64   899.48   900.93   907.62
eigval :      914.24   916.19   918.22   918.43   919.40   920.87
eigval :      921.60   921.96   923.53   927.36   928.75   938.85
eigval :      940.87   958.72   969.04   974.73   982.31   990.12
eigval :      998.79  1001.98  1008.06  1063.61  1072.74  1077.74
eigval :     1078.74  1078.94  1080.79  1086.64  1107.42  1120.30
eigval :     1122.79  1131.95  1134.55  1141.56  1147.24  1156.93
eigval :     1163.51  1170.27  1177.70  1178.77  1179.14  1183.92
eigval :     1192.10  1192.39  1196.19  1205.57  1219.67  1224.45
eigval :     1231.84  1238.46  1249.79  1254.14  1270.27  1272.90
eigval :     1274.08  1276.40  1281.69  1286.42  1290.05  1295.48
eigval :     1306.46  1314.99  1317.03  1322.32  1323.94  1324.64
eigval :     1326.28  1328.27  1340.06  1347.83  1352.53  1359.09
eigval :     1366.76  1369.47  1401.89  1407.99  1418.74  1425.06
eigval :     1428.72  1432.83  1436.53  1439.90  1444.25  1453.45
eigval :     1454.59  1461.00  1465.44  1471.72  1476.32  1483.79
eigval :     1484.97  1496.92  1499.07  1501.79  1537.29  1539.30
eigval :     1540.57  1552.61  1561.13  1566.37  1576.79  1580.11
eigval :     1584.52  1587.01  1598.62  1608.07  1613.04  2960.64
eigval :     2971.67  3037.91  3042.85  3045.07  3050.52  3057.19
eigval :     3059.16  3063.31  3064.75  3065.10  3065.38  3066.80
eigval :     3066.85  3067.08  3067.56  3069.98  3071.62  3073.01
eigval :     3075.17  3077.26  3077.81  3079.68  3080.06  3080.20
eigval :     3080.58  3081.97  3082.98  3084.03  3085.35  3085.43
eigval :     3088.16  3088.80  3089.12  3089.53  3090.11  3091.03

   temp. (K)  partition function   enthalpy   heat capacity  entropy
                                   cal/mol     cal/K/mol   cal/K/mol   J/K/mol
 298.15  VIB  0.217E+21            24403.686    151.409    155.179
         ROT  0.154E+09              888.752      2.981     40.446
         INT  0.334E+29            25292.438    154.390    195.626
         TR   0.152E+29             1481.254      4.968     45.173
         TOT                       26773.6920   159.3584   240.7990  1007.5030

       T/K    H(0)-H(T)+PV         H(T)/Eh          T*S/Eh         G(T)/Eh
   ------------------------------------------------------------------------
    298.15    0.426666E-01    0.722302E+00    0.114411E+00    0.607891E+00
   ------------------------------------------------------------------------

         :::::::::::::::::::::::::::::::::::::::::::::::::::::
         ::                  THERMODYNAMIC                  ::
         :::::::::::::::::::::::::::::::::::::::::::::::::::::
         :: total free energy        -123.942842835878 Eh   ::
         ::.................................................::
         :: total energy             -124.550733734230 Eh   ::
         :: zero point energy           0.679635675555 Eh   ::
         :: G(RRHO) w/o ZPVE           -0.071744777203 Eh   ::
         :: G(RRHO) contrib.            0.607890898352 Eh   ::
         :::::::::::::::::::::::::::::::::::::::::::::::::::::

           -------------------------------------------------
          | TOTAL ENERGY             -124.550733734230 Eh   |
          | TOTAL ENTHALPY           -123.828431464706 Eh   |
          | TOTAL FREE ENERGY        -123.942842835878 Eh   |
          | GRADIENT NORM               0.000053316775 Eh/α |
          | HOMO-LUMO GAP               0.940158035376 eV   |
           -------------------------------------------------

 * finished run on 2025/08/24 at 18:45:52.555
