   * xtb version 6.7.1 (edcfbbe) compiled by 'albert@albert-system' on 2024-07-22

   ID    Z sym.   atoms
    1    6 C      1, 2, 4-49
    2    7 N      3
    3    1 H      50-86

          program call               : xtb data2507/toluene/2CzTPE/2CzTPE_toluene_S0_crest.xyz --gfn 2 --gbsa toluene --ohess vtight --parallel 40 --molden --ceasefiles --namespace data2507/toluene/2CzTPE/2CzTPE_toluene_S0_finalOpt
      * Solvation model:               GBSA
        Solvent                        toluene
        Solvent mass                       9.2140E+01 g/mol
          :  Hamiltonian                  GFN2-xTB          :
 * total energy  :  -124.6146981 Eh     change       -0.1702915E-08 Eh
 * total energy  :  -124.6147334 Eh     change       -0.3524899E-04 Eh
 * total energy  :  -124.6147536 Eh     change       -0.2022998E-04 Eh
 * total energy  :  -124.6147642 Eh     change       -0.1056224E-04 Eh
 * total energy  :  -124.6147774 Eh     change       -0.1325535E-04 Eh
 * total energy  :  -124.6147816 Eh     change       -0.4213249E-05 Eh
 * total energy  :  -124.6147849 Eh     change       -0.3270081E-05 Eh
 * total energy  :  -124.6147868 Eh     change       -0.1877301E-05 Eh
 * total energy  :  -124.6147879 Eh     change       -0.1141079E-05 Eh
 * total energy  :  -124.6147890 Eh     change       -0.1067201E-05 Eh
 * total energy  :  -124.6148236 Eh     change       -0.5738300E-06 Eh
 * total energy  :  -124.6148242 Eh     change       -0.5865611E-06 Eh
 * total energy  :  -124.6148247 Eh     change       -0.5209834E-06 Eh
 * total energy  :  -124.6148252 Eh     change       -0.4813448E-06 Eh
 * total energy  :  -124.6148257 Eh     change       -0.4864179E-06 Eh
 * total energy  :  -124.6148261 Eh     change       -0.3931407E-06 Eh
 * total energy  :  -124.6148263 Eh     change       -0.2437859E-06 Eh
 * total energy  :  -124.6148264 Eh     change       -0.1430977E-06 Eh
 * total energy  :  -124.6148265 Eh     change       -0.9711339E-07 Eh
   *** GEOMETRY OPTIMIZATION CONVERGED AFTER 62 ITERATIONS ***

 final structure:
================
86
 xtb: 6.7.1 (edcfbbe)
C            8.70533390759597       -3.33371680030852       -1.18253854693315
C            8.92278532561114       -2.73628362949160        0.20782691565119
N            9.28141775811398       -1.34324208659079        0.14391677812918
C           10.55746972548006       -0.84542891079019        0.03346469828848
C           11.77398634294101       -1.51537534289828        0.01579981675559
C           12.92778129250463       -0.76275947328320       -0.09069585987941
C           12.88483387023946        0.62754958001303       -0.18175140430609
C           11.68032660911862        1.30200523459546       -0.16858649954429
C           10.50573081530765        0.56754518468395       -0.06151089611864
C            9.11727778084787        0.92292856192131       -0.02113124142208
C            8.42935853714747        2.12923158351283       -0.07169468515801
C            7.05297883619244        2.11479258388181       -0.00321570229176
C            6.33557143719826        0.91384319829267        0.10553068564046
C            4.86798907780350        0.93670237933923        0.16836236776413
C            4.19510982985271        1.89324149080038        0.92810288280975
C            2.81834948759989        1.90454693712515        0.99079241503293
C            2.04746431767105        0.96807629494884        0.29248053112252
C            0.60346654059749        1.03472417056078        0.39567788673142
C           -0.28021017981634        0.24259500431398       -0.23201889694714
C           -1.72423783353615        0.31364776523813       -0.13667790850070
C           -2.40362803462272        1.17689608894721        0.72927570072158
C           -3.78065068626521        1.20510948245888        0.76842530147561
C           -4.54222239349512        0.36220735872357       -0.04277060064426
C           -6.01045788056187        0.42192087318190       -0.00758993851104
C           -6.78558204084135       -0.68665855400176       -0.00744287471265
C           -8.24699473969934       -0.62727909002452       -0.18275048818512
C           -8.81675639076120        0.14425327177958       -1.19422942340639
C          -10.18751145737225        0.17221668224948       -1.36827206970833
C          -11.01205020915329       -0.56882463370141       -0.53701549139932
C          -10.45542278457627       -1.34839859293752        0.46382671418405
C           -9.08414171047620       -1.38411314024538        0.63550554070101
C           -6.23075644215728       -2.03964466260571        0.17037191255055
C           -6.66058099336479       -3.08723534764935       -0.64269309099078
C           -6.15583488299092       -4.36291705546510       -0.47157948140242
C           -5.22605783748795       -4.61661336396406        0.52363345897453
C           -4.80771993412620       -3.58647426696113        1.35074019294437
C           -5.30556636469415       -2.30892663572834        1.17772634708647
C           -6.58142864258347        1.78052067677275        0.02651376714439
C           -7.58627418999946        2.11351084458058        0.93289149840391
C           -8.09770102771581        3.39692800997135        0.97380651763604
C           -7.61510659490811        4.36839046487865        0.11162539234317
C           -6.60820446507401        4.05088553094362       -0.78535875196555
C           -6.08944418545237        2.76993766062425       -0.82305756799661
C           -3.87159546577016       -0.49560280398799       -0.91511737806806
C           -2.49523578696215       -0.51885250232909       -0.95707340872667
C            2.72793955577280        0.01416731990723       -0.47113886395038
C            4.10475736811596       -0.00143648948068       -0.52764971750891
C            7.01263719804010       -0.29968342472475        0.15199260486499
C            8.39756064388834       -0.29161892024712        0.09466833513580
H            9.61589547965423       -3.25877934968760       -1.77260144876686
H            8.42620462242176       -4.38071870407725       -1.09872452161744
H            7.91373355613186       -2.79950272789908       -1.70298078175571
H            9.72075279056605       -3.27434179847204        0.72617610800834
H            8.01002317394106       -2.82981958397975        0.80260559030214
H           11.82748568286642       -2.59182723664525        0.08017617996773
H           13.88580509135041       -1.26269170750365       -0.10623483437348
H           13.80962325497720        1.18007018708742       -0.26475193204663
H           11.64757346755716        2.37934113335663       -0.24067297830860
H            8.96611265800938        3.06207298905332       -0.16458343121993
H            6.50619470816770        3.04471155614554       -0.05984694827103
H            4.76238746086401        2.62017308461755        1.49168304846450
H            2.32079952798612        2.65203914505269        1.59383148002722
H            0.24155938908962        1.81988500884681        1.04684814074547
H            0.08103585407499       -0.53161893767989       -0.89636613696621
H           -1.84912858623601        1.83254042054868        1.38322878090271
H           -4.28432052840690        1.87887073455145        1.44800685682200
H           -8.17643684072634        0.71376050245674       -1.85207284343840
H          -10.61502196244731        0.77240099185924       -2.15878324999140
H          -12.08354969599159       -0.54325959239138       -0.67250709921215
H          -11.09291108805477       -1.93264600861577        1.11219084921013
H           -8.65208109987118       -1.99219468982002        1.41826055545024
H           -7.38456993018749       -2.89112884840871       -1.42147890880846
H           -6.49054410019727       -5.16336974597091       -1.11608116431807
H           -4.83327202604266       -5.61406939937949        0.65782775669590
H           -4.09242179080759       -3.78031848998602        2.13732117519979
H           -4.98632398421368       -1.51098848446391        1.83237592661535
H           -7.95740217368221        1.36173729798056        1.61421350981662
H           -8.87527802822930        3.64142723849206        1.68334799620090
H           -8.01846236382670        5.37016879544407        0.14245668670431
H           -6.22380105242362        4.80546962872159       -1.45687397658535
H           -5.30396007111805        2.52421517331167       -1.52430230998841
H           -4.44095673317342       -1.13678828644756       -1.57217601342301
H           -1.99758244453075       -1.18874706630737       -1.64489573141860
H            2.17421618630745       -0.72541935210250       -1.02916346319960
H            4.60269051659036       -0.73992623974125       -1.13989432270620
H            6.45964353683410       -1.22118838718150        0.25314150915357

          :  Hamiltonian                  GFN2-xTB          :
         :: gradient norm              0.000038279651 Eh/a0 ::
         :: HOMO-LUMO gap              2.236243711097 eV    ::
         :: SCC energy              -127.014602517324 Eh    ::
         :: -> dispersion             -0.113820895441 Eh    ::
         :: -> Gsolv                  -0.052359726602 Eh    ::
         :: repulsion energy           2.399775979653 Eh    ::

    * Orbital Energies and Occupations

         #    Occupation            Energy/Eh            Energy/eV
      -------------------------------------------------------------
         1        2.0000           -0.6712971             -18.2669
       ...           ...                  ...                  ...
       105        2.0000           -0.4063264             -11.0567
       106        2.0000           -0.4061641             -11.0523
       107        2.0000           -0.4059515             -11.0465
       108        2.0000           -0.4026217             -10.9559
       109        2.0000           -0.4019878             -10.9386
       110        2.0000           -0.4017629             -10.9325
       111        2.0000           -0.4010627             -10.9135
       112        2.0000           -0.3995123             -10.8713
       113        2.0000           -0.3973631             -10.8128
       114        2.0000           -0.3794233             -10.3246
       115        2.0000           -0.3678188             -10.0089
       116        2.0000           -0.3593692              -9.7789
       117        2.0000           -0.3564867              -9.7005 (HOMO)
       118                         -0.2743063              -7.4643 (LUMO)
       119                         -0.2565293              -6.9805
       120                         -0.2408359              -6.5535
       121                         -0.2258868              -6.1467
       122                         -0.2248719              -6.1191
       123                         -0.2216149              -6.0304
       124                         -0.2196031              -5.9757
       125                         -0.2190756              -5.9614
       126                         -0.2182225              -5.9381
       127                         -0.2169808              -5.9043
       128                         -0.2164376              -5.8896
       ...                                ...                  ...
       233                          0.7510549              20.4372
      -------------------------------------------------------------
                  HL-Gap            0.0821804 Eh            2.2362 eV

     #   Z          covCN         q      C6AA      α(0)
     1   6 C        3.752    -0.110    22.666     6.789
     2   6 C        3.738     0.004    20.597     6.476
     3   7 N        2.796    -0.050    22.213     7.000
     4   6 C        3.082     0.046    26.885     8.500
     5   6 C        2.909    -0.054    29.350     8.883
     6   6 C        2.923    -0.037    28.909     8.817
     7   6 C        2.919    -0.045    29.118     8.849
     8   6 C        2.912    -0.036    28.891     8.814
     9   6 C        3.069    -0.021    28.454     8.747
    10   6 C        3.070    -0.023    28.495     8.753
    11   6 C        2.910    -0.036    28.902     8.815
    12   6 C        2.924    -0.048    29.204     8.862
    13   6 C        2.978     0.003    27.950     8.672
    14   6 C        2.977     0.008    27.838     8.655
    15   6 C        2.921    -0.036    28.901     8.816
    16   6 C        2.927    -0.037    28.909     8.818
    17   6 C        2.969     0.010    27.792     8.647
    18   6 C        2.901    -0.040    28.991     8.828
    19   6 C        2.901    -0.040    29.003     8.830
    20   6 C        2.969     0.011    27.760     8.642
    21   6 C        2.921    -0.036    28.884     8.813
    22   6 C        2.922    -0.034    28.838     8.806
    23   6 C        2.978     0.013    27.717     8.636
    24   6 C        2.966    -0.006    28.163     8.705
    25   6 C        2.967    -0.006    28.171     8.706
    26   6 C        2.978     0.015    27.672     8.629
    27   6 C        2.924    -0.033    28.810     8.802
    28   6 C        2.918    -0.030    28.760     8.794
    29   6 C        2.920    -0.032    28.802     8.801
    30   6 C        2.918    -0.031    28.768     8.795
    31   6 C        2.925    -0.033    28.817     8.803
    32   6 C        2.978     0.015    27.666     8.628
    33   6 C        2.925    -0.033    28.818     8.804
    34   6 C        2.918    -0.031    28.767     8.795
    35   6 C        2.920    -0.032    28.801     8.801
    36   6 C        2.918    -0.030    28.757     8.794
    37   6 C        2.924    -0.032    28.804     8.801
    38   6 C        2.978     0.015    27.670     8.629
    39   6 C        2.924    -0.032    28.810     8.802
    40   6 C        2.918    -0.030    28.760     8.794
    41   6 C        2.920    -0.032    28.802     8.801
    42   6 C        2.918    -0.031    28.768     8.795
    43   6 C        2.925    -0.033    28.813     8.803
    44   6 C        2.920    -0.034    28.835     8.806
    45   6 C        2.927    -0.036    28.896     8.816
    46   6 C        2.921    -0.036    28.897     8.815
    47   6 C        2.922    -0.037    28.909     8.817
    48   6 C        2.916    -0.059    29.461     8.901
    49   6 C        3.079     0.045    26.899     8.503
    50   1 H        0.925     0.046     2.370     2.407
    51   1 H        0.925     0.050     2.314     2.379
    52   1 H        0.925     0.046     2.370     2.407
    53   1 H        0.924     0.052     2.296     2.370
    54   1 H        0.924     0.052     2.298     2.371
    55   1 H        0.926     0.028     2.610     2.527
    56   1 H        0.926     0.026     2.640     2.541
    57   1 H        0.926     0.023     2.685     2.563
    58   1 H        0.926     0.026     2.649     2.545
    59   1 H        0.926     0.027     2.636     2.539
    60   1 H        0.926     0.026     2.644     2.543
    61   1 H        0.926     0.030     2.582     2.513
    62   1 H        0.925     0.029     2.595     2.519
    63   1 H        0.925     0.035     2.522     2.483
    64   1 H        0.925     0.035     2.514     2.479
    65   1 H        0.926     0.033     2.545     2.495
    66   1 H        0.925     0.028     2.622     2.532
    67   1 H        0.926     0.028     2.615     2.529
    68   1 H        0.926     0.030     2.584     2.514
    69   1 H        0.926     0.031     2.577     2.510
    70   1 H        0.926     0.030     2.580     2.512
    71   1 H        0.925     0.028     2.621     2.532
    72   1 H        0.925     0.027     2.622     2.532
    73   1 H        0.926     0.030     2.581     2.512
    74   1 H        0.926     0.031     2.576     2.510
    75   1 H        0.926     0.030     2.583     2.513
    76   1 H        0.926     0.028     2.616     2.529
    77   1 H        0.926     0.028     2.615     2.529
    78   1 H        0.926     0.030     2.584     2.514
    79   1 H        0.926     0.031     2.577     2.511
    80   1 H        0.926     0.030     2.581     2.512
    81   1 H        0.925     0.028     2.622     2.532
    82   1 H        0.926     0.028     2.617     2.530
    83   1 H        0.925     0.030     2.582     2.513
    84   1 H        0.926     0.033     2.547     2.496
    85   1 H        0.926     0.031     2.571     2.507
    86   1 H        0.926     0.031     2.571     2.507

molecular dipole:
                 x           y           z       tot (Debye)
 q only:       -0.138      -0.965      -0.014
   full:       -0.153      -0.984       0.001       2.531

 projected vibrational frequencies (cm⁻¹)
eigval :       -0.00    -0.00     0.00     0.00     0.00     0.00
eigval :        7.91    10.30    15.72    19.75    25.68    35.39
eigval :       39.59    40.59    48.29    50.15    55.15    56.61
eigval :       65.47    67.78    70.14    77.88    81.89    85.44
eigval :       95.76   109.62   136.24   145.94   156.74   167.51
eigval :      186.54   196.95   203.63   212.81   229.79   239.76
eigval :      248.60   251.13   262.62   273.01   277.94   292.49
eigval :      309.63   334.83   354.65   368.39   370.32   372.46
eigval :      373.33   375.29   376.64   389.97   398.18   422.07
eigval :      424.67   435.67   445.15   461.35   467.65   476.80
eigval :      498.30   523.18   534.21   537.99   542.92   555.76
eigval :      562.10   575.83   581.88   584.25   587.06   591.71
eigval :      597.35   598.64   607.40   619.49   624.09   639.80
eigval :      666.88   672.00   675.52   676.78   678.10   684.22
eigval :      687.15   700.13   714.82   740.98   748.76   758.08
eigval :      761.94   768.53   772.23   783.02   806.42   812.16
eigval :      816.22   828.89   829.46   854.23   855.76   860.99
eigval :      862.03   862.92   867.00   876.05   876.82   877.62
eigval :      894.41   898.32   900.91   902.47   902.93   907.82
eigval :      912.98   915.23   918.52   919.49   924.03   925.90
eigval :      928.73   929.46   930.58   931.26   931.85   932.37
eigval :      943.87   974.47   980.20   986.19   992.54   999.09
eigval :     1008.55  1011.28  1032.45  1063.62  1070.83  1079.12
eigval :     1082.79  1083.88  1084.62  1086.82  1120.75  1121.83
eigval :     1123.15  1133.99  1140.28  1145.15  1156.98  1162.37
eigval :     1164.10  1179.94  1180.82  1181.39  1182.45  1192.11
eigval :     1198.17  1198.93  1199.88  1203.33  1216.62  1220.28
eigval :     1230.87  1233.24  1246.98  1249.06  1271.47  1274.30
eigval :     1280.75  1281.63  1283.69  1284.76  1289.53  1291.62
eigval :     1301.94  1310.19  1311.25  1315.26  1316.49  1318.99
eigval :     1322.21  1325.45  1334.61  1342.39  1352.53  1359.84
eigval :     1369.60  1401.17  1405.53  1408.61  1427.67  1428.95
eigval :     1429.74  1434.58  1440.13  1463.95  1465.47  1469.62
eigval :     1472.77  1474.73  1483.47  1484.44  1487.06  1496.82
eigval :     1502.82  1547.55  1551.78  1564.04  1570.65  1576.22
eigval :     1577.03  1578.17  1585.34  1587.03  1592.44  1593.18
eigval :     1597.52  1600.42  1610.96  1613.65  1639.79  2960.08
eigval :     2970.91  3038.13  3043.16  3046.69  3051.39  3058.35
eigval :     3061.03  3063.75  3064.13  3064.85  3064.87  3066.04
eigval :     3067.14  3067.47  3067.73  3068.33  3070.45  3071.20
eigval :     3072.21  3073.68  3074.22  3074.52  3076.98  3079.88
eigval :     3080.47  3080.69  3081.70  3082.95  3083.05  3085.53
eigval :     3088.16  3088.42  3088.69  3089.10  3089.32  3090.18

   temp. (K)  partition function   enthalpy   heat capacity  entropy
                                   cal/mol     cal/K/mol   cal/K/mol   J/K/mol
 298.15  VIB  0.157E+21            24414.675    150.082    155.335
         ROT  0.150E+09              888.752      2.981     40.391
         INT  0.235E+29            25303.428    153.063    195.727
         TR   0.152E+29             1481.254      4.968     45.173
         TOT                       26784.6818   158.0308   240.9001  1007.9259

       T/K    H(0)-H(T)+PV         H(T)/Eh          T*S/Eh         G(T)/Eh
   ------------------------------------------------------------------------
    298.15    0.426841E-01    0.724661E+00    0.114459E+00    0.610201E+00
   ------------------------------------------------------------------------

         :::::::::::::::::::::::::::::::::::::::::::::::::::::
         ::                  THERMODYNAMIC                  ::
         :::::::::::::::::::::::::::::::::::::::::::::::::::::
         :: total free energy        -124.004625392298 Eh   ::
         ::.................................................::
         :: total energy             -124.614826535553 Eh   ::
         :: zero point energy           0.681976434073 Eh   ::
         :: G(RRHO) w/o ZPVE           -0.071775290818 Eh   ::
         :: G(RRHO) contrib.            0.610201143254 Eh   ::
         :::::::::::::::::::::::::::::::::::::::::::::::::::::

           -------------------------------------------------
          | TOTAL ENERGY             -124.614826535553 Eh   |
          | TOTAL ENTHALPY           -123.890165994143 Eh   |
          | TOTAL FREE ENERGY        -124.004625392298 Eh   |
          | GRADIENT NORM               0.000038282721 Eh/α |
          | HOMO-LUMO GAP               2.236243699745 eV   |
           -------------------------------------------------

 * finished run on 2025/08/24 at 18:36:20.783
