   * xtb version 6.7.1 (edcfbbe) compiled by 'albert@albert-system' on 2024-07-22

   ID    Z sym.   atoms
    1    6 C      1, 2, 4-49
    2    7 N      3
    3    1 H      50-86

          program call               : xtb data2507/toluene/2CzTPE/2CzTPE.xyz --gfn 2 --gbsa toluene --ohess vtight --parallel 40 --molden --ceasefiles --namespace data2507/toluene/2CzTPE/2CzTPE_toluene_S0_preOpt
      * Solvation model:               GBSA
        Solvent                        toluene
        Solvent mass                       9.2140E+01 g/mol
          :  Hamiltonian                  GFN2-xTB          :
 * total energy  :  -124.5906504 Eh     change       -0.2272444E-08 Eh
 * total energy  :  -124.6017631 Eh     change       -0.1111267E-01 Eh
 * total energy  :  -124.6043970 Eh     change       -0.2633892E-02 Eh
 * total energy  :  -124.6055418 Eh     change       -0.1144799E-02 Eh
 * total energy  :  -124.6068825 Eh     change       -0.1340780E-02 Eh
 * total energy  :  -124.6078674 Eh     change       -0.9848937E-03 Eh
 * total energy  :  -124.6087766 Eh     change       -0.9091382E-03 Eh
 * total energy  :  -124.6096756 Eh     change       -0.8990043E-03 Eh
 * total energy  :  -124.6105679 Eh     change       -0.8923596E-03 Eh
 * total energy  :  -124.6113965 Eh     change       -0.8285565E-03 Eh
 * total energy  :  -124.6146183 Eh     change       -0.7622632E-06 Eh
 * total energy  :  -124.6146193 Eh     change       -0.9998453E-06 Eh
 * total energy  :  -124.6146203 Eh     change       -0.1039129E-05 Eh
 * total energy  :  -124.6146213 Eh     change       -0.9432245E-06 Eh
 * total energy  :  -124.6146221 Eh     change       -0.8192146E-06 Eh
 * total energy  :  -124.6146230 Eh     change       -0.9573963E-06 Eh
 * total energy  :  -124.6146240 Eh     change       -0.9609090E-06 Eh
 * total energy  :  -124.6146251 Eh     change       -0.1079945E-05 Eh
 * total energy  :  -124.6146251 Eh     change       -0.5689856E-08 Eh
   *** GEOMETRY OPTIMIZATION CONVERGED AFTER 68 ITERATIONS ***

 final structure:
================
86
 xtb: 6.7.1 (edcfbbe)
C            9.17418019833272        2.92355509204455       -1.47631384505254
C            9.12154508775269        1.49706732621264       -2.02349214053429
N            9.35529679212478        0.51772757111570       -0.99416874639601
C           10.58415869850587        0.04282752089556       -0.60325719086680
C           11.84673432286514        0.32265760429459       -1.10988990717095
C           12.93159715500884       -0.30981202204318       -0.53375235061943
C           12.77660499819651       -1.20197844572775        0.52597254172396
C           11.52587058269998       -1.48491444627411        1.03743335348357
C           10.41886273965107       -0.86158763190989        0.47496002006139
C            9.01182069885094       -0.91099680989506        0.74631613840806
C            8.23271130948995       -1.59639496719303        1.67052962589307
C            6.86868446064514       -1.40035743974721        1.66734929828786
C            6.25342009025420       -0.53390001128588        0.75116474638744
C            4.79508208005531       -0.35572078685871        0.77681053180033
C            4.10631825958523       -0.23912019367120        1.98391391611106
C            2.73889640687636       -0.06685424777593        2.00280010611336
C            1.99409468799219       -0.02331079088815        0.81935165817220
C            0.55563725871652        0.14146965371829        0.89849880809476
C           -0.31925137587441       -0.04845802835435       -0.10096695334564
C           -1.75878757616361        0.10209083501866       -0.02040510128471
C           -2.40798312747043        0.73189701454935        1.04606124337965
C           -3.78081021680686        0.84951930852363        1.07136978519881
C           -4.56699048813600        0.32697747095407        0.04338830050653
C           -6.02988716186259        0.47344660011865        0.07526241263368
C           -6.86692194118969       -0.54108516378817       -0.24036002614518
C           -8.31736606562938       -0.34719852160404       -0.41029658361088
C           -8.81583396720294        0.70440159970757       -1.17742443492301
C          -10.17761117722441        0.86053761333170       -1.35428918361360
C          -11.06421089702280       -0.02908119451256       -0.76893608084276
C          -10.57898549252896       -1.08474487777578       -0.01437135678844
C           -9.21703910083328       -1.24777875429326        0.15791963378135
C           -6.39502573077440       -1.92265254156662       -0.43816946670404
C           -6.85898655946043       -2.67412564045682       -1.51673692124569
C           -6.43709974961810       -3.97800788852101       -1.69896232097111
C           -5.55729418386147       -4.55749083631374       -0.79925699224974
C           -5.10480388309950       -3.82531069005759        0.28674458650559
C           -5.51916153003815       -2.51921131396999        0.46733122952862
C           -6.51963748015091        1.80549463364453        0.47237463549060
C           -7.54417132002885        1.94594646561941        1.40679863541312
C           -7.98246516579129        3.20104531493631        1.78477861765246
C           -7.40489804370138        4.33613660217132        1.23887998960843
C           -6.37577290058953        4.20812677182028        0.32037539993841
C           -5.93130446953333        2.95399817469253       -0.05496816346951
C           -3.92439786882480       -0.28604843741401       -1.03255784248919
C           -2.55126005635841       -0.38936307690039       -1.06409632367184
C            2.68983805616471       -0.13711891227136       -0.38808124582336
C            4.05893352413734       -0.29533276770937       -0.40681170214521
C            7.02179105222930        0.15370300701340       -0.18143196226173
C            8.39517865841800       -0.03514905247531       -0.18065587276007
H           10.14871916988772        3.12300498214984       -1.03645146180716
H            8.99778231631933        3.63654907375944       -2.27734936010405
H            8.41551780918648        3.06165627518043       -0.70925536074124
H            9.87816123548614        1.36611758118969       -2.80173602187618
H            8.14171545037049        1.30280072289995       -2.46788047532891
H           11.98767284690112        1.01442834868150       -1.92674899855709
H           13.92374428377294       -0.10708460794325       -0.91117697085150
H           13.65060296089744       -1.67500080727725        0.95002546992440
H           11.40632203874870       -2.17612343638984        1.85889251419491
H            8.69039867977031       -2.27195611841752        2.37838170493164
H            6.24992541711966       -1.94040974466226        2.36911107593527
H            4.65614782011759       -0.26009427341148        2.91406276602130
H            2.22784680149474        0.02923661626561        2.95121892949212
H            0.18904788681799        0.41215530874927        1.88034966160433
H            0.04275627075496       -0.37702231543456       -1.06669739273455
H           -1.83061515158347        1.14897984218312        1.85725200602975
H           -4.26216932353946        1.34247747588063        1.90486913431523
H           -8.12742664798288        1.39315091354415       -1.64526319754441
H          -10.54948924513543        1.67873474087779       -1.95437297991330
H          -12.12857583087193        0.09634075770458       -0.90542660489650
H          -11.26500549240652       -1.78522890847337        0.44039591357336
H           -8.84068369575840       -2.07175442000271        0.74828193559190
H           -7.54457164689916       -2.22290964539086       -2.22070288114330
H           -6.79803890528877       -4.54569517598627       -2.54489366513144
H           -5.23015134734167       -5.57741375696665       -0.94049352848693
H           -4.42793026037017       -4.27597846909546        0.99861455563541
H           -5.17343915087536       -1.95571213316318        1.32180975207689
H           -7.98904803989744        1.06400626996828        1.84410373372492
H           -8.77741861924621        3.29452571679497        2.51085372816493
H           -7.75142858451773        5.31626721979007        1.53283073132126
H           -5.91679631635814        5.08957304116088       -0.10449597869632
H           -5.12912596965326        2.85668214533554       -0.77336949102063
H           -4.51220523336651       -0.66798290041233       -1.85459787241071
H           -2.07399380329152       -0.86410727139725       -1.91044834427436
H            2.15377791090067       -0.09134205563611       -1.32405995457758
H            4.57002771666046       -0.39533517673479       -1.35393345178578
H            6.54864006039119        0.83894549554936       -0.86843211985964

          :  Hamiltonian                  GFN2-xTB          :
         :: gradient norm              0.000058128012 Eh/a0 ::
         :: HOMO-LUMO gap              2.267678188043 eV    ::
         :: SCC energy              -127.014489960334 Eh    ::
         :: -> dispersion             -0.113738012396 Eh    ::
         :: -> Gsolv                  -0.052322521324 Eh    ::
         :: repulsion energy           2.399864868237 Eh    ::

    * Orbital Energies and Occupations

         #    Occupation            Energy/Eh            Energy/eV
      -------------------------------------------------------------
         1        2.0000           -0.6712458             -18.2655
       ...           ...                  ...                  ...
       105        2.0000           -0.4062606             -11.0549
       106        2.0000           -0.4060289             -11.0486
       107        2.0000           -0.4058172             -11.0428
       108        2.0000           -0.4025431             -10.9538
       109        2.0000           -0.4019260             -10.9370
       110        2.0000           -0.4016984             -10.9308
       111        2.0000           -0.4009696             -10.9109
       112        2.0000           -0.3994845             -10.8705
       113        2.0000           -0.3973619             -10.8128
       114        2.0000           -0.3793484             -10.3226
       115        2.0000           -0.3677357             -10.0066
       116        2.0000           -0.3593073              -9.7772
       117        2.0000           -0.3568041              -9.7091 (HOMO)
       118                         -0.2734685              -7.4415 (LUMO)
       119                         -0.2563836              -6.9766
       120                         -0.2407182              -6.5503
       121                         -0.2258369              -6.1453
       122                         -0.2248363              -6.1181
       123                         -0.2215598              -6.0289
       124                         -0.2194753              -5.9722
       125                         -0.2191341              -5.9629
       126                         -0.2181720              -5.9368
       127                         -0.2169581              -5.9037
       128                         -0.2163970              -5.8885
       ...                                ...                  ...
       233                          0.7510273              20.4365
      -------------------------------------------------------------
                  HL-Gap            0.0833356 Eh            2.2677 eV

     #   Z          covCN         q      C6AA      α(0)
     1   6 C        3.752    -0.110    22.673     6.790
     2   6 C        3.738     0.004    20.595     6.476
     3   7 N        2.796    -0.050    22.213     7.000
     4   6 C        3.082     0.046    26.886     8.500
     5   6 C        2.909    -0.054    29.351     8.884
     6   6 C        2.923    -0.037    28.910     8.817
     7   6 C        2.919    -0.045    29.118     8.849
     8   6 C        2.912    -0.036    28.892     8.814
     9   6 C        3.069    -0.021    28.454     8.747
    10   6 C        3.070    -0.023    28.496     8.753
    11   6 C        2.910    -0.036    28.902     8.815
    12   6 C        2.924    -0.048    29.204     8.862
    13   6 C        2.978     0.003    27.951     8.672
    14   6 C        2.977     0.008    27.839     8.655
    15   6 C        2.921    -0.036    28.898     8.816
    16   6 C        2.926    -0.037    28.911     8.818
    17   6 C        2.970     0.010    27.789     8.647
    18   6 C        2.901    -0.040    28.991     8.828
    19   6 C        2.901    -0.040    29.002     8.830
    20   6 C        2.970     0.011    27.759     8.642
    21   6 C        2.921    -0.036    28.889     8.814
    22   6 C        2.922    -0.034    28.837     8.806
    23   6 C        2.978     0.013    27.718     8.636
    24   6 C        2.966    -0.006    28.163     8.705
    25   6 C        2.967    -0.006    28.171     8.706
    26   6 C        2.978     0.015    27.670     8.629
    27   6 C        2.924    -0.032    28.809     8.802
    28   6 C        2.918    -0.030    28.760     8.794
    29   6 C        2.920    -0.032    28.802     8.801
    30   6 C        2.918    -0.031    28.768     8.795
    31   6 C        2.925    -0.033    28.818     8.803
    32   6 C        2.978     0.015    27.667     8.628
    33   6 C        2.925    -0.033    28.818     8.804
    34   6 C        2.918    -0.031    28.767     8.795
    35   6 C        2.920    -0.032    28.801     8.801
    36   6 C        2.918    -0.030    28.757     8.794
    37   6 C        2.924    -0.032    28.805     8.801
    38   6 C        2.978     0.015    27.672     8.629
    39   6 C        2.924    -0.032    28.809     8.802
    40   6 C        2.918    -0.030    28.760     8.794
    41   6 C        2.920    -0.032    28.801     8.801
    42   6 C        2.918    -0.031    28.768     8.795
    43   6 C        2.925    -0.033    28.815     8.803
    44   6 C        2.920    -0.033    28.834     8.806
    45   6 C        2.927    -0.036    28.897     8.816
    46   6 C        2.922    -0.036    28.900     8.816
    47   6 C        2.922    -0.036    28.907     8.817
    48   6 C        2.915    -0.059    29.462     8.901
    49   6 C        3.079     0.045    26.899     8.503
    50   1 H        0.925     0.046     2.368     2.407
    51   1 H        0.925     0.050     2.314     2.379
    52   1 H        0.925     0.046     2.368     2.406
    53   1 H        0.924     0.052     2.297     2.370
    54   1 H        0.924     0.052     2.299     2.371
    55   1 H        0.926     0.028     2.609     2.526
    56   1 H        0.926     0.026     2.640     2.541
    57   1 H        0.926     0.023     2.686     2.563
    58   1 H        0.926     0.026     2.650     2.546
    59   1 H        0.926     0.026     2.637     2.539
    60   1 H        0.926     0.026     2.645     2.543
    61   1 H        0.926     0.030     2.581     2.512
    62   1 H        0.925     0.030     2.593     2.518
    63   1 H        0.925     0.035     2.513     2.479
    64   1 H        0.925     0.036     2.509     2.477
    65   1 H        0.926     0.033     2.541     2.493
    66   1 H        0.925     0.028     2.620     2.531
    67   1 H        0.926     0.028     2.615     2.529
    68   1 H        0.926     0.030     2.583     2.514
    69   1 H        0.926     0.031     2.577     2.510
    70   1 H        0.926     0.030     2.581     2.512
    71   1 H        0.925     0.027     2.623     2.533
    72   1 H        0.925     0.028     2.622     2.532
    73   1 H        0.926     0.030     2.581     2.512
    74   1 H        0.926     0.031     2.578     2.511
    75   1 H        0.926     0.030     2.585     2.514
    76   1 H        0.926     0.028     2.615     2.529
    77   1 H        0.926     0.028     2.615     2.529
    78   1 H        0.926     0.030     2.585     2.514
    79   1 H        0.926     0.031     2.577     2.510
    80   1 H        0.926     0.030     2.580     2.512
    81   1 H        0.925     0.028     2.620     2.531
    82   1 H        0.926     0.028     2.619     2.531
    83   1 H        0.925     0.030     2.582     2.513
    84   1 H        0.926     0.033     2.547     2.496
    85   1 H        0.926     0.031     2.576     2.510
    86   1 H        0.926     0.031     2.574     2.509

molecular dipole:
                 x           y           z       tot (Debye)
 q only:       -0.053       0.702      -0.670
   full:       -0.068       0.699      -0.694       2.510

 projected vibrational frequencies (cm⁻¹)
eigval :       -0.00    -0.00     0.00     0.00     0.00     0.00
eigval :        6.56    10.74    15.22    20.20    23.97    37.81
eigval :       39.65    44.17    46.69    52.41    55.04    59.75
eigval :       65.12    67.71    69.07    77.48    81.33    94.90
eigval :       95.92   105.93   139.77   148.02   149.45   169.11
eigval :      175.85   183.64   207.03   217.04   224.12   239.51
eigval :      246.71   248.58   263.39   267.41   280.68   290.87
eigval :      307.24   333.80   361.84   365.30   369.60   372.81
eigval :      373.59   373.94   376.18   391.33   409.89   415.71
eigval :      422.36   433.42   441.20   457.50   472.09   476.58
eigval :      503.52   522.70   533.80   536.52   542.49   556.72
eigval :      562.02   577.21   581.84   584.60   587.08   591.77
eigval :      596.93   597.50   607.44   620.54   622.42   639.65
eigval :      666.50   670.97   674.44   675.97   676.98   684.38
eigval :      688.18   701.46   711.89   741.08   748.25   757.61
eigval :      761.85   770.81   774.31   783.15   806.74   813.48
eigval :      816.99   830.64   831.86   854.06   858.32   864.81
eigval :      865.08   869.07   870.28   873.60   876.60   878.79
eigval :      894.36   900.11   901.51   903.55   904.11   909.06
eigval :      914.78   915.31   919.37   922.15   926.27   926.52
eigval :      928.05   928.34   930.48   931.38   931.55   931.79
eigval :      943.79   975.30   980.26   985.08   992.43   999.17
eigval :     1009.12  1011.53  1032.35  1063.93  1071.93  1079.02
eigval :     1082.22  1083.51  1083.93  1086.94  1120.14  1121.45
eigval :     1122.60  1133.74  1140.62  1145.51  1157.42  1163.86
eigval :     1164.10  1180.17  1180.77  1182.36  1183.52  1192.48
eigval :     1197.42  1197.44  1199.16  1202.38  1217.29  1220.92
eigval :     1229.76  1232.10  1245.08  1248.63  1270.93  1273.98
eigval :     1279.94  1281.13  1282.70  1284.10  1289.79  1291.56
eigval :     1301.47  1309.59  1310.03  1315.27  1316.30  1318.92
eigval :     1322.83  1325.00  1333.12  1338.73  1351.96  1359.67
eigval :     1369.30  1402.23  1405.38  1408.03  1427.73  1428.85
eigval :     1429.77  1434.61  1440.06  1463.88  1465.08  1469.94
eigval :     1472.44  1474.28  1482.71  1484.37  1487.11  1493.27
eigval :     1502.73  1548.70  1552.31  1563.91  1572.78  1576.26
eigval :     1576.90  1578.11  1585.30  1587.23  1592.47  1593.06
eigval :     1597.49  1600.37  1611.27  1613.51  1641.32  2960.54
eigval :     2970.65  3037.38  3042.14  3044.94  3050.22  3058.12
eigval :     3060.91  3063.65  3063.94  3064.64  3064.91  3066.71
eigval :     3067.63  3067.70  3067.80  3068.39  3069.53  3071.79
eigval :     3073.21  3073.45  3074.31  3074.57  3077.23  3080.01
eigval :     3080.25  3080.59  3081.35  3082.28  3082.93  3085.15
eigval :     3087.44  3087.90  3088.45  3088.49  3089.01  3089.41

   temp. (K)  partition function   enthalpy   heat capacity  entropy
                                   cal/mol     cal/K/mol   cal/K/mol   J/K/mol
 298.15  VIB  0.170E+21            24426.567    150.251    155.664
         ROT  0.150E+09              888.752      2.981     40.390
         INT  0.254E+29            25315.319    153.232    196.055
         TR   0.152E+29             1481.254      4.968     45.173
         TOT                       26796.5729   158.2004   241.2282  1009.2987

       T/K    H(0)-H(T)+PV         H(T)/Eh          T*S/Eh         G(T)/Eh
   ------------------------------------------------------------------------
    298.15    0.427031E-01    0.724658E+00    0.114615E+00    0.610043E+00
   ------------------------------------------------------------------------

         :::::::::::::::::::::::::::::::::::::::::::::::::::::
         ::                  THERMODYNAMIC                  ::
         :::::::::::::::::::::::::::::::::::::::::::::::::::::
         :: total free energy        -124.004582196614 Eh   ::
         ::.................................................::
         :: total energy             -124.614625089145 Eh   ::
         :: zero point energy           0.681955131552 Eh   ::
         :: G(RRHO) w/o ZPVE           -0.071912239021 Eh   ::
         :: G(RRHO) contrib.            0.610042892531 Eh   ::
         :::::::::::::::::::::::::::::::::::::::::::::::::::::

           -------------------------------------------------
          | TOTAL ENERGY             -124.614625089145 Eh   |
          | TOTAL ENTHALPY           -123.889966900541 Eh   |
          | TOTAL FREE ENERGY        -124.004582196614 Eh   |
          | GRADIENT NORM               0.000058130794 Eh/α |
          | HOMO-LUMO GAP               2.267678169638 eV   |
           -------------------------------------------------

 * finished run on 2025/08/24 at 18:27:40.761
