   * xtb version 6.7.1 (edcfbbe) compiled by 'albert@albert-system' on 2024-07-22

   ID    Z sym.   atoms
    1    6 C      1, 2, 4-49
    2    7 N      3
    3    1 H      50-86

          program call               : xtb data2507/toluene/2CzTPE/2CzTPE_toluene_S0_finalOpt.xtbopt.xyz --gfn 2 --uhf 2 --gbsa toluene --ohess vtight --parallel 40 --molden --ceasefiles --namespace data2507/toluene/2CzTPE/2CzTPE_toluene_T1_preOpt
      * Solvation model:               GBSA
        Solvent                        toluene
        Solvent mass                       9.2140E+01 g/mol
          :  Hamiltonian                  GFN2-xTB          :
 * total energy  :  -124.5323508 Eh     change       -0.5987175E-09 Eh
 * total energy  :  -124.5399518 Eh     change       -0.7601041E-02 Eh
 * total energy  :  -124.5427233 Eh     change       -0.2771479E-02 Eh
 * total energy  :  -124.5432196 Eh     change       -0.4962755E-03 Eh
 * total energy  :  -124.5439133 Eh     change       -0.6937500E-03 Eh
 * total energy  :  -124.5445002 Eh     change       -0.5869195E-03 Eh
 * total energy  :  -124.5451787 Eh     change       -0.6784349E-03 Eh
 * total energy  :  -124.5458432 Eh     change       -0.6644937E-03 Eh
 * total energy  :  -124.5463089 Eh     change       -0.4657110E-03 Eh
 * total energy  :  -124.5465984 Eh     change       -0.2894943E-03 Eh
 * total energy  :  -124.5506832 Eh     change       -0.9242269E-06 Eh
 * total energy  :  -124.5506839 Eh     change       -0.7028327E-06 Eh
 * total energy  :  -124.5506845 Eh     change       -0.6610522E-06 Eh
 * total energy  :  -124.5506851 Eh     change       -0.5960690E-06 Eh
 * total energy  :  -124.5506857 Eh     change       -0.6177083E-06 Eh
 * total energy  :  -124.5506864 Eh     change       -0.6918765E-06 Eh
 * total energy  :  -124.5506873 Eh     change       -0.8617199E-06 Eh
 * total energy  :  -124.5506884 Eh     change       -0.1090284E-05 Eh
 * total energy  :  -124.5506884 Eh     change       -0.1514172E-07 Eh
   *** GEOMETRY OPTIMIZATION CONVERGED AFTER 94 ITERATIONS ***

 final structure:
================
86
 xtb: 6.7.1 (edcfbbe)
C            8.59751794474388       -3.41596790692255       -1.31517782557628
C            8.81303279985038       -2.81604489596018        0.07442257401793
N            9.21245372219232       -1.43433462160043        0.00639794939209
C           10.50370942246593       -0.97540077656490       -0.09449345925169
C           11.70009501204560       -1.68088866447431       -0.09217361624139
C           12.87672185198649       -0.96336414598208       -0.19082474605869
C           12.87598599276131        0.42690570573885       -0.29349046741737
C           11.69192798587697        1.13651417122406       -0.30076397282384
C           10.49486533648707        0.43778231220495       -0.20177477850617
C            9.11763854918049        0.83420421340011       -0.17992149471767
C            8.46596205356361        2.05997926326842       -0.24806361166576
C            7.08982396355582        2.08733672823954       -0.19021557327493
C            6.33424292463804        0.90944873934502       -0.07454610259848
C            4.87036006108415        0.97715540394194       -0.01395906510659
C            4.22503431427007        1.98561836010655        0.70590017316945
C            2.85215669942449        2.03645500922041        0.77608577288972
C            2.04683324285212        1.08749381235043        0.12555750694663
C            0.61860510554109        1.18753940384073        0.24897422013873
C           -0.30218972212786        0.34769522038097       -0.28955625335445
C           -1.71864035284078        0.43906815888411       -0.15415001169102
C           -2.37932326620691        1.44265885197625        0.58975892794563
C           -3.73882805668110        1.48667529870527        0.68522157216433
C           -4.56545928146926        0.51204925556936        0.06044062139733
C           -5.96546180958010        0.50814713879208        0.20732186247785
C           -6.72924323225437       -0.71983646238099       -0.01959767801678
C           -7.91374548633137       -0.64500376329431       -0.82285008679849
C           -8.03762095571152        0.33704555263407       -1.82581469239674
C           -9.18125379402662        0.43746058114970       -2.58520224840954
C          -10.24856791296987       -0.42485275316629       -2.36865756434483
C          -10.15542063842366       -1.38830761245608       -1.37297134883440
C           -9.01238409515351       -1.50198297722669       -0.61296986078993
C           -6.28518927554434       -1.93818239587924        0.58507395747126
C           -6.58201328714415       -3.19714640117537        0.02207154952572
C           -6.10995623310337       -4.35825604418743        0.59181725130532
C           -5.32938843358149       -4.31582760424946        1.74015542517278
C           -5.01783401828911       -3.08657470727397        2.30729189139362
C           -5.47938197358905       -1.91932748857705        1.74279978509402
C           -6.71135168272338        1.68543615390534        0.59827759269982
C           -7.87028513829625        1.56439415562026        1.38056943644562
C           -8.60341117570885        2.67544627347322        1.73848399639008
C           -8.21468023937232        3.93891321971987        1.31612022661965
C           -7.08497324344233        4.07588128710368        0.52279823998398
C           -6.34095742403688        2.96970361113434        0.16886058315676
C           -3.89522758773482       -0.50578782724075       -0.67349951774479
C           -2.53668713461018       -0.52879038617858       -0.78081755208236
C            2.70205397930409        0.08523278727913       -0.60594961308194
C            4.07560040207953        0.03223296982836       -0.66854661568475
C            6.97607055734927       -0.32371420013321       -0.01382398619949
C            8.36058171169949       -0.35737543971672       -0.06064818347710
H            9.51757036056681       -3.36955510429168       -1.89335499727901
H            8.28878393596761       -4.45441414350872       -1.22915500247912
H            7.82786043125875       -2.86350899275166       -1.84932383803192
H            9.58831988461447       -3.37317454869312        0.60688055275194
H            7.89010611753423       -2.87966729144093        0.65727472321293
H           11.72127961486733       -2.75783201815109       -0.01810991957401
H           13.81968745111016       -1.49131469279014       -0.19041444829928
H           13.81762553964531        0.95122420235432       -0.36948576466297
H           11.69166857909723        2.21367375102641       -0.38208382896218
H            9.03101199772478        2.97546744017242       -0.34564990121117
H            6.57268026367169        3.03291538403731       -0.26199885489356
H            4.81419693342505        2.71996370394186        1.23631547701482
H            2.37793453288028        2.82092777342278        1.35019397063411
H            0.27787197563357        2.02401115307418        0.84480173801019
H            0.04127680368858       -0.48942753156410       -0.88369107097400
H           -1.79667778004804        2.18860285725557        1.10894725531540
H           -4.20372750835239        2.24335541334555        1.30015819476776
H           -7.20566457000587        0.99926266176412       -2.01542610434717
H           -9.24720056216168        1.19126174010005       -3.35707577139667
H          -11.14589082152235       -0.34174953395521       -2.96378171299694
H          -10.98950034290362       -2.04986824188015       -1.18531222023363
H           -8.97124812395005       -2.22526922105491        0.18842683402981
H           -7.14644652134189       -3.24251960406158       -0.89782700765864
H           -6.34045940593147       -5.30991907088625        0.13367582485791
H           -4.96244435796184       -5.22964460105497        2.18333834603319
H           -4.41038445948872       -3.04493952050204        3.20041208371924
H           -5.24700340503835       -0.97084004262901        2.20461011079993
H           -8.17267843296001        0.58549513917128        1.72403413077891
H           -9.48505675953846        2.56042584325423        2.35292914475824
H           -8.79240596209957        4.80776280507982        1.59511927266850
H           -6.78718422538548        5.05450842432820        0.17319294572154
H           -5.48613913028795        3.08333114949469       -0.48228054952733
H           -4.48623507190573       -1.25295660339872       -1.18221140371775
H           -2.06277680966348       -1.30679215202024       -1.36427936357746
H            2.12581587747603       -0.65939207921098       -1.13367216512624
H            4.54965670323174       -0.74227911804226       -1.25469390851231
H            6.39639192917434       -1.22781787098833        0.09368197581311

          :  Hamiltonian                  GFN2-xTB          :
         :: gradient norm              0.000078877033 Eh/a0 ::
         :: HOMO-LUMO gap              0.924700115189 eV    ::
         :: SCC energy              -126.931529130328 Eh    ::
         :: -> dispersion             -0.113385469269 Eh    ::
         :: -> Gsolv                  -0.052309195690 Eh    ::
         :: repulsion energy           2.380840733747 Eh    ::

    * Orbital Energies and Occupations

         #    Occupation            Energy/Eh            Energy/eV
      -------------------------------------------------------------
         1        2.0000           -0.6715274             -18.2732
       ...           ...                  ...                  ...
       106        2.0000           -0.4062197             -11.0538
       107        2.0000           -0.4049323             -11.0188
       108        2.0000           -0.4033817             -10.9766
       109        2.0000           -0.4028204             -10.9613
       110        2.0000           -0.4020267             -10.9397
       111        2.0000           -0.4017520             -10.9322
       112        2.0000           -0.3996538             -10.8751
       113        2.0000           -0.3960658             -10.7775
       114        2.0000           -0.3784731             -10.2988
       115        2.0000           -0.3642522              -9.9118
       116        2.0000           -0.3595480              -9.7838
       117        1.0000           -0.3374898              -9.1836
       118        1.0000           -0.2987602              -8.1297 (HOMO)
       119                         -0.2647780              -7.2050 (LUMO)
       120                         -0.2416572              -6.5758
       121                         -0.2281107              -6.2072
       122                         -0.2221492              -6.0450
       123                         -0.2203607              -5.9963
       124                         -0.2195070              -5.9731
       125                         -0.2184840              -5.9453
       126                         -0.2183009              -5.9403
       127                         -0.2171989              -5.9103
       128                         -0.2144883              -5.8365
       129                         -0.2015861              -5.4854
       ...                                ...                  ...
       233                          0.7509265              20.4338
      -------------------------------------------------------------
                  HL-Gap            0.0339822 Eh            0.9247 eV

     #   Z          covCN         q      C6AA      α(0)
     1   6 C        3.752    -0.110    22.667     6.789
     2   6 C        3.738     0.004    20.598     6.476
     3   7 N        2.796    -0.050    22.211     7.000
     4   6 C        3.082     0.046    26.882     8.500
     5   6 C        2.909    -0.054    29.349     8.883
     6   6 C        2.923    -0.036    28.906     8.817
     7   6 C        2.919    -0.045    29.115     8.848
     8   6 C        2.912    -0.036    28.890     8.814
     9   6 C        3.069    -0.021    28.451     8.746
    10   6 C        3.070    -0.022    28.489     8.752
    11   6 C        2.910    -0.036    28.900     8.815
    12   6 C        2.924    -0.048    29.202     8.862
    13   6 C        2.978     0.003    27.943     8.671
    14   6 C        2.977     0.008    27.847     8.656
    15   6 C        2.920    -0.036    28.896     8.815
    16   6 C        2.926    -0.037    28.923     8.820
    17   6 C        2.968     0.010    27.782     8.646
    18   6 C        2.902    -0.041    29.026     8.834
    19   6 C        2.902    -0.040    28.995     8.829
    20   6 C        2.967     0.010    27.779     8.645
    21   6 C        2.915    -0.035    28.877     8.812
    22   6 C        2.916    -0.037    28.910     8.817
    23   6 C        2.969     0.012    27.743     8.640
    24   6 C        2.969    -0.006    28.156     8.704
    25   6 C        2.970    -0.008    28.206     8.711
    26   6 C        2.971     0.015    27.684     8.630
    27   6 C        2.924    -0.034    28.850     8.808
    28   6 C        2.915    -0.030    28.751     8.793
    29   6 C        2.919    -0.033    28.818     8.803
    30   6 C        2.915    -0.031    28.766     8.795
    31   6 C        2.922    -0.035    28.869     8.811
    32   6 C        2.970     0.016    27.662     8.627
    33   6 C        2.922    -0.035    28.881     8.813
    34   6 C        2.915    -0.030    28.760     8.794
    35   6 C        2.919    -0.033    28.813     8.802
    36   6 C        2.915    -0.030    28.743     8.791
    37   6 C        2.923    -0.033    28.832     8.806
    38   6 C        2.973     0.015    27.670     8.628
    39   6 C        2.924    -0.033    28.828     8.805
    40   6 C        2.916    -0.030    28.754     8.793
    41   6 C        2.919    -0.032    28.806     8.801
    42   6 C        2.916    -0.031    28.767     8.795
    43   6 C        2.923    -0.034    28.843     8.807
    44   6 C        2.917    -0.035    28.871     8.811
    45   6 C        2.921    -0.036    28.885     8.813
    46   6 C        2.920    -0.036    28.903     8.816
    47   6 C        2.921    -0.036    28.905     8.817
    48   6 C        2.916    -0.059    29.459     8.900
    49   6 C        3.079     0.045    26.897     8.503
    50   1 H        0.925     0.046     2.369     2.407
    51   1 H        0.925     0.051     2.313     2.379
    52   1 H        0.925     0.046     2.370     2.408
    53   1 H        0.924     0.052     2.295     2.369
    54   1 H        0.924     0.052     2.297     2.370
    55   1 H        0.926     0.028     2.608     2.525
    56   1 H        0.926     0.026     2.637     2.539
    57   1 H        0.926     0.023     2.683     2.561
    58   1 H        0.926     0.026     2.646     2.544
    59   1 H        0.926     0.027     2.633     2.538
    60   1 H        0.926     0.026     2.637     2.539
    61   1 H        0.926     0.030     2.582     2.513
    62   1 H        0.925     0.029     2.603     2.523
    63   1 H        0.925     0.034     2.534     2.489
    64   1 H        0.925     0.034     2.535     2.490
    65   1 H        0.926     0.032     2.556     2.500
    66   1 H        0.926     0.034     2.536     2.490
    67   1 H        0.926     0.028     2.609     2.526
    68   1 H        0.926     0.029     2.602     2.523
    69   1 H        0.926     0.030     2.590     2.517
    70   1 H        0.926     0.030     2.580     2.512
    71   1 H        0.926     0.034     2.531     2.488
    72   1 H        0.926     0.034     2.528     2.486
    73   1 H        0.926     0.031     2.579     2.511
    74   1 H        0.926     0.030     2.587     2.515
    75   1 H        0.926     0.029     2.603     2.523
    76   1 H        0.926     0.028     2.618     2.530
    77   1 H        0.926     0.028     2.614     2.528
    78   1 H        0.926     0.029     2.594     2.519
    79   1 H        0.926     0.030     2.583     2.513
    80   1 H        0.926     0.031     2.570     2.507
    81   1 H        0.926     0.034     2.529     2.487
    82   1 H        0.926     0.027     2.624     2.533
    83   1 H        0.925     0.028     2.618     2.530
    84   1 H        0.926     0.032     2.554     2.499
    85   1 H        0.926     0.031     2.573     2.508
    86   1 H        0.926     0.031     2.567     2.505

molecular dipole:
                 x           y           z       tot (Debye)
 q only:       -0.162      -0.943      -0.002
   full:       -0.177      -0.969       0.028       2.505

 projected vibrational frequencies (cm⁻¹)
eigval :       -0.00    -0.00    -0.00     0.00     0.00     0.00
eigval :        7.39    11.47    14.03    20.29    24.24    33.40
eigval :       40.19    45.28    50.94    51.76    56.77    59.74
eigval :       62.96    71.13    83.04    87.16    95.99   101.49
eigval :      105.79   116.63   138.19   151.26   164.46   172.97
eigval :      196.12   198.46   206.15   212.37   217.63   244.34
eigval :      252.99   263.19   274.59   276.58   284.29   296.93
eigval :      307.67   322.25   358.06   366.99   369.29   370.19
eigval :      373.49   380.73   386.64   389.59   391.43   397.52
eigval :      423.64   435.22   439.17   452.29   463.69   469.57
eigval :      476.73   507.10   516.63   533.20   534.30   542.22
eigval :      561.93   575.06   580.34   583.34   583.86   586.21
eigval :      594.62   598.28   604.05   612.14   620.65   621.82
eigval :      658.52   659.90   666.31   672.72   674.21   679.25
eigval :      684.44   692.71   714.30   741.12   744.12   747.13
eigval :      752.97   766.95   770.59   783.50   803.86   811.66
eigval :      813.42   823.36   827.26   835.06   850.42   851.06
eigval :      856.44   858.36   862.51   866.53   868.57   869.16
eigval :      882.92   894.88   896.97   899.23   900.53   906.71
eigval :      911.32   913.88   916.95   918.09   920.02   920.38
eigval :      920.52   923.03   924.76   926.32   929.09   938.53
eigval :      940.38   950.05   968.88   974.34   982.31   989.89
eigval :      998.89  1002.02  1007.85  1063.44  1073.79  1077.82
eigval :     1078.67  1078.84  1081.43  1086.66  1107.74  1119.99
eigval :     1124.02  1131.74  1134.62  1141.31  1147.05  1158.31
eigval :     1164.06  1169.67  1177.16  1177.65  1180.55  1183.88
eigval :     1191.25  1192.45  1197.90  1205.69  1221.09  1224.58
eigval :     1232.28  1238.15  1250.28  1254.09  1270.64  1272.52
eigval :     1273.88  1276.58  1282.07  1286.43  1290.44  1294.70
eigval :     1305.93  1315.10  1317.08  1322.30  1322.99  1324.47
eigval :     1326.37  1328.16  1340.12  1347.46  1352.89  1359.19
eigval :     1367.74  1369.79  1401.44  1408.11  1418.73  1425.18
eigval :     1428.69  1432.82  1436.66  1440.07  1443.90  1453.41
eigval :     1454.70  1460.91  1465.64  1471.61  1475.86  1484.08
eigval :     1485.22  1496.27  1496.51  1500.77  1536.77  1538.29
eigval :     1540.62  1552.85  1561.10  1566.34  1576.50  1580.06
eigval :     1584.48  1586.93  1598.47  1607.51  1612.91  2960.61
eigval :     2971.30  3038.34  3043.35  3046.52  3050.73  3057.04
eigval :     3058.94  3063.51  3064.03  3065.09  3066.11  3066.44
eigval :     3066.67  3067.27  3067.88  3070.16  3071.91  3073.34
eigval :     3075.50  3077.56  3078.17  3079.06  3080.00  3080.13
eigval :     3080.19  3081.67  3083.16  3084.25  3085.33  3086.63
eigval :     3088.56  3088.69  3088.97  3089.23  3090.01  3090.59

   temp. (K)  partition function   enthalpy   heat capacity  entropy
                                   cal/mol     cal/K/mol   cal/K/mol   J/K/mol
 298.15  VIB  0.711E+20            24401.427    151.532    154.278
         ROT  0.153E+09              888.752      2.981     40.434
         INT  0.109E+29            25290.179    154.512    194.711
         TR   0.152E+29             1481.254      4.968     45.173
         TOT                       26771.4329   159.4806   239.8845  1003.6766

       T/K    H(0)-H(T)+PV         H(T)/Eh          T*S/Eh         G(T)/Eh
   ------------------------------------------------------------------------
    298.15    0.426630E-01    0.722237E+00    0.113977E+00    0.608260E+00
   ------------------------------------------------------------------------

         :::::::::::::::::::::::::::::::::::::::::::::::::::::
         ::                  THERMODYNAMIC                  ::
         :::::::::::::::::::::::::::::::::::::::::::::::::::::
         :: total free energy        -123.942428217291 Eh   ::
         ::.................................................::
         :: total energy             -124.550688401704 Eh   ::
         :: zero point energy           0.679574042996 Eh   ::
         :: G(RRHO) w/o ZPVE           -0.071313858583 Eh   ::
         :: G(RRHO) contrib.            0.608260184413 Eh   ::
         :::::::::::::::::::::::::::::::::::::::::::::::::::::

           -------------------------------------------------
          | TOTAL ENERGY             -124.550688401704 Eh   |
          | TOTAL ENTHALPY           -123.828451364796 Eh   |
          | TOTAL FREE ENERGY        -123.942428217291 Eh   |
          | GRADIENT NORM               0.000078871021 Eh/α |
          | HOMO-LUMO GAP               0.924703754167 eV   |
           -------------------------------------------------

 * finished run on 2025/08/24 at 18:36:32.451
