   * xtb version 6.7.1 (edcfbbe) compiled by 'albert@albert-system' on 2024-07-22

   ID    Z sym.   atoms
    1    6 C      1, 3-11, 13-16, 18-24, 26, 27, 29-32, 34, 35
    2    8 O      2, 12
    3    7 N      17, 25, 28, 33
    4    1 H      36-57

          program call               : xtb data2507/gas/Me-DOC/Me-DOC.xyz --gfn 2 --ohess vtight --parallel 40 --molden --ceasefiles --namespace data2507/gas/Me-DOC/Me-DOC_gas_S0_preOpt
          :  Hamiltonian                  GFN2-xTB          :
 * total energy  :   -93.1071610 Eh     change       -0.1647393E-08 Eh
 * total energy  :   -93.1191216 Eh     change       -0.1196060E-01 Eh
 * total energy  :   -93.1212115 Eh     change       -0.2089873E-02 Eh
 * total energy  :   -93.1210794 Eh     change        0.1321206E-03 Eh
 * total energy  :   -93.1215284 Eh     change       -0.4490214E-03 Eh
 * total energy  :   -93.1215955 Eh     change       -0.6711962E-04 Eh
 * total energy  :   -93.1216530 Eh     change       -0.5748421E-04 Eh
 * total energy  :   -93.1216776 Eh     change       -0.2461995E-04 Eh
 * total energy  :   -93.1216896 Eh     change       -0.1197254E-04 Eh
 * total energy  :   -93.1217032 Eh     change       -0.1358789E-04 Eh
 * total energy  :   -93.1250913 Eh     change       -0.1199535E-05 Eh
 * total energy  :   -93.1250925 Eh     change       -0.1159425E-05 Eh
 * total energy  :   -93.1250936 Eh     change       -0.1071867E-05 Eh
 * total energy  :   -93.1250946 Eh     change       -0.1047121E-05 Eh
 * total energy  :   -93.1250955 Eh     change       -0.9331434E-06 Eh
 * total energy  :   -93.1250965 Eh     change       -0.9249491E-06 Eh
 * total energy  :   -93.1250974 Eh     change       -0.8960511E-06 Eh
 * total energy  :   -93.1250982 Eh     change       -0.8500571E-06 Eh
 * total energy  :   -93.1250982 Eh     change       -0.6069214E-08 Eh
   *** GEOMETRY OPTIMIZATION CONVERGED AFTER 122 ITERATIONS ***

 final structure:
================
57
 xtb: 6.7.1 (edcfbbe)
C           -6.51470234637297       -3.72344882628583        0.06189667574540
O           -5.14470548937818       -4.03200725128196        0.02589656892709
C           -4.24829040135643       -3.00005689091886        0.01233285302634
C           -2.89974980040722       -3.38899464184711       -0.01822103169455
C           -1.87684693406693       -2.46724191831247       -0.02120277077047
C           -2.21110518921445       -1.11966533969650        0.01936635415004
C           -3.56251464678322       -0.71709850866222        0.01115590401687
C           -4.58777888651797       -1.65770616759886        0.01383800964284
C           -3.56329868804830        0.71805832124237       -0.01426667878438
C           -4.58964864503384        1.65746966754830       -0.01445405673403
C           -4.25173312909508        3.00021453229081       -0.01349331845497
O           -5.14941603972064        4.03109953750065       -0.02436540192078
C           -6.51917972572426        3.72087494275313       -0.05460597500765
C           -2.90357012667861        3.39069376872287        0.01357772357480
C           -1.87957963847522        2.47012359523817        0.01417776325262
C           -2.21233495120954        1.12215194377565       -0.02529753358404
N           -1.39804792392472        0.00167552958433       -0.00374396782295
C           -0.00624615006659        0.00201907459559       -0.00274094561793
C            0.69923480904560       -0.82372083891084        0.87293035979836
C            2.07704622536655       -0.83194608659412        0.86392798110538
C            2.78540983111949        0.00138830464164       -0.00074507868333
C            4.24966613603849        0.00043376747589        0.00002589115652
C            4.98215090492528        1.19564243825060        0.04382388306232
C            4.33828331121858        2.44754718554223        0.13986702002276
N            3.86063155650357        3.48590543195212        0.23845104657616
C            6.38781424258205        1.14560975456486        0.04606285308783
C            7.20350458650170        2.39265848508553        0.10457988216340
N            7.04184998972680       -0.00191400796949        0.00173677667291
C            6.38595787218672       -1.14834664777050       -0.04342040407453
C            7.19958288708206       -2.39679039671102       -0.10093393148730
C            4.98022237077948       -1.19600146738860       -0.04291751379482
C            4.33441378308626       -2.44685234600232       -0.13973207681684
N            3.85528493084396       -3.48448040918162       -0.23885831326965
C            2.07864080482559        0.83528919167369       -0.86615895205238
C            0.70078569944508        0.82772005622085       -0.87715011868616
H           -6.82581495038269       -3.16430646189235       -0.82714158858292
H           -7.03317415008348       -4.68082157501960        0.08264331019757
H           -6.77553983336392       -3.15222693946380        0.95940087100373
H           -2.68598855016539       -4.44543608957281       -0.04391264528425
H           -0.84989046612643       -2.79417116862486       -0.06948802099965
H           -5.61328299897023       -1.32561717874207        0.01041279366881
H           -5.61474557380895        1.32415834675199       -0.00871988746566
H           -6.78323359261128        3.14973691549642       -0.95122177438000
H           -7.03891617091727        4.67761564348976       -0.07266710614010
H           -6.82572767883320        3.16094896662557        0.83552701737062
H           -2.69096711552610        4.44738592757025        0.03862641235632
H           -0.85291288080822        2.79830161575058        0.05994301235464
H            0.16019859356505       -1.44144702113324        1.57408235596361
H            2.61030068980649       -1.46268312118787        1.55990955089491
H            8.25859252061528        2.13559165701765        0.09478013191034
H            6.97265330560423        2.95296363957523        1.00997397044629
H            6.97628359506037        3.03569696901858       -0.74487555978618
H            8.25510086815706       -2.14159447750150       -0.08896921555533
H            6.96952440354380       -2.95621146291522       -1.00708105719230
H            6.96954483445653       -3.03987964478861        0.74772182031918
H            2.61318762896672        1.46591092616272       -1.56125660176908
H            0.16307529262741        1.44578074985528       -1.57902426604548

          :  Hamiltonian                  GFN2-xTB          :
         :: gradient norm              0.000070386485 Eh/a0 ::
         :: HOMO-LUMO gap              1.670737311719 eV    ::
         :: SCC energy               -94.721373554703 Eh    ::
         :: -> dispersion             -0.072392753147 Eh    ::
         :: repulsion energy           1.596275338906 Eh    ::

    * Orbital Energies and Occupations

         #    Occupation            Energy/Eh            Energy/eV
      -------------------------------------------------------------
         1        2.0000           -0.7116779             -19.3657
       ...           ...                  ...                  ...
        73        2.0000           -0.4390739             -11.9478
        74        2.0000           -0.4352353             -11.8434
        75        2.0000           -0.4279816             -11.6460
        76        2.0000           -0.4252488             -11.5716
        77        2.0000           -0.4248860             -11.5617
        78        2.0000           -0.4234604             -11.5229
        79        2.0000           -0.4185062             -11.3881
        80        2.0000           -0.4166427             -11.3374
        81        2.0000           -0.4063372             -11.0570
        82        2.0000           -0.3937054             -10.7133
        83        2.0000           -0.3931852             -10.6991
        84        2.0000           -0.3714760             -10.1084
        85        2.0000           -0.3540338              -9.6337 (HOMO)
        86                         -0.2926353              -7.9630 (LUMO)
        87                         -0.2921079              -7.9487
        88                         -0.2482580              -6.7554
        89                         -0.2427802              -6.6064
        90                         -0.2343231              -6.3763
        91                         -0.2191641              -5.9638
        92                         -0.2169292              -5.9029
        93                         -0.2160172              -5.8781
        94                         -0.2131649              -5.8005
        95                         -0.1858418              -5.0570
        96                         -0.1853898              -5.0447
       ...                                ...                  ...
       162                          1.1592794              31.5456
      -------------------------------------------------------------
                  HL-Gap            0.0613985 Eh            1.6707 eV

     #   Z          covCN         q      C6AA      α(0)
     1   6 C        3.644     0.040    20.238     6.466
     2   8 O        1.705    -0.274    18.542     5.814
     3   6 C        2.866     0.134    25.063     8.206
     4   6 C        2.925    -0.056    29.386     8.890
     5   6 C        2.909    -0.049    29.220     8.864
     6   6 C        3.073     0.036    27.126     8.540
     7   6 C        3.070    -0.017    28.354     8.731
     8   6 C        2.911    -0.071    29.780     8.948
     9   6 C        3.070    -0.017    28.354     8.731
    10   6 C        2.911    -0.071    29.780     8.948
    11   6 C        2.866     0.134    25.063     8.206
    12   8 O        1.705    -0.274    18.542     5.814
    13   6 C        3.644     0.040    20.238     6.466
    14   6 C        2.925    -0.056    29.386     8.890
    15   6 C        2.909    -0.049    29.220     8.864
    16   6 C        3.073     0.036    27.126     8.540
    17   7 N        2.802    -0.036    21.940     6.957
    18   6 C        2.912     0.070    26.427     8.430
    19   6 C        2.921    -0.042    29.037     8.837
    20   6 C        2.923    -0.026    28.658     8.779
    21   6 C        2.977     0.001    28.007     8.681
    22   6 C        2.989     0.036    27.184     8.553
    23   6 C        2.973    -0.015    28.381     8.739
    24   6 C        1.910     0.113    28.315     8.594
    25   7 N        0.911    -0.238    26.229     7.407
    26   6 C        2.948     0.116    25.451     8.274
    27   6 C        3.760    -0.118    22.802     6.807
    28   7 N        1.848    -0.241    27.153     7.723
    29   6 C        2.948     0.116    25.451     8.274
    30   6 C        3.760    -0.118    22.802     6.807
    31   6 C        2.973    -0.015    28.381     8.739
    32   6 C        1.910     0.113    28.315     8.594
    33   7 N        0.911    -0.238    26.229     7.407
    34   6 C        2.923    -0.026    28.658     8.779
    35   6 C        2.921    -0.042    29.037     8.837
    36   1 H        0.924     0.037     2.483     2.464
    37   1 H        0.925     0.060     2.201     2.320
    38   1 H        0.924     0.038     2.481     2.463
    39   1 H        0.926     0.052     2.300     2.372
    40   1 H        0.926     0.040     2.447     2.446
    41   1 H        0.926     0.035     2.510     2.477
    42   1 H        0.926     0.035     2.510     2.477
    43   1 H        0.924     0.038     2.481     2.463
    44   1 H        0.925     0.060     2.201     2.320
    45   1 H        0.924     0.037     2.483     2.464
    46   1 H        0.926     0.052     2.300     2.372
    47   1 H        0.926     0.040     2.447     2.446
    48   1 H        0.926     0.050     2.314     2.379
    49   1 H        0.926     0.040     2.448     2.447
    50   1 H        0.925     0.071     2.070     2.250
    51   1 H        0.925     0.065     2.144     2.290
    52   1 H        0.925     0.064     2.154     2.295
    53   1 H        0.925     0.071     2.070     2.250
    54   1 H        0.925     0.065     2.144     2.290
    55   1 H        0.925     0.064     2.155     2.295
    56   1 H        0.926     0.040     2.448     2.447
    57   1 H        0.926     0.050     2.314     2.379

molecular dipole:
                 x           y           z       tot (Debye)
 q only:       -0.022      -0.001       0.002
   full:       -0.191      -0.001       0.002       0.486

 projected vibrational frequencies (cm⁻¹)
eigval :       -0.00    -0.00     0.00     0.00     0.00     0.00
eigval :       16.45    18.73    24.03    43.62    54.93    58.45
eigval :       62.50    67.17    70.10    79.20    85.23    89.94
eigval :      105.70   105.98   124.11   142.95   148.96   160.56
eigval :      169.89   193.89   201.50   201.66   216.32   230.94
eigval :      239.13   258.90   265.06   266.71   279.83   327.81
eigval :      339.62   345.24   349.90   389.47   391.20   397.06
eigval :      398.18   402.43   428.85   434.22   455.02   470.84
eigval :      472.54   474.27   487.98   500.02   511.19   517.88
eigval :      555.20   570.70   585.10   586.22   602.53   605.45
eigval :      618.47   620.46   640.21   661.11   669.39   677.92
eigval :      688.19   700.56   717.40   735.07   787.40   806.83
eigval :      807.13   820.54   848.96   854.99   867.81   872.74
eigval :      880.60   904.91   907.46   920.78   927.29   930.84
eigval :      938.67   949.65   989.48  1009.81  1021.43  1023.09
eigval :     1029.76  1035.87  1066.41  1066.52  1109.58  1120.84
eigval :     1123.98  1124.11  1138.23  1145.97  1156.62  1158.32
eigval :     1158.95  1176.75  1186.62  1192.60  1206.88  1242.48
eigval :     1244.70  1269.70  1270.70  1273.28  1294.11  1313.17
eigval :     1318.71  1348.40  1355.28  1358.71  1382.34  1390.67
eigval :     1395.89  1399.09  1402.44  1402.71  1413.97  1419.04
eigval :     1420.59  1435.41  1451.92  1456.27  1457.16  1460.83
eigval :     1472.99  1473.16  1476.80  1485.13  1486.68  1494.69
eigval :     1499.62  1513.64  1534.09  1553.84  1570.44  1578.25
eigval :     1592.10  1606.28  1618.73  2361.36  2365.09  2922.77
eigval :     2922.94  2938.28  2938.74  3007.92  3008.42  3022.54
eigval :     3022.54  3025.70  3025.82  3065.46  3066.11  3084.61
eigval :     3086.15  3094.58  3095.00  3105.20  3105.47  3105.82
eigval :     3109.00  3114.17  3114.31

   temp. (K)  partition function   enthalpy   heat capacity  entropy
                                   cal/mol     cal/K/mol   cal/K/mol   J/K/mol
 298.15  VIB  0.756E+14            18309.906    110.014    115.656
         ROT  0.199E+08              888.752      2.981     36.378
         INT  0.150E+22            19198.658    112.995    152.034
         TR   0.950E+28             1481.254      4.968     44.237
         TOT                       20679.9124   117.9635   196.2708   821.1972

       T/K    H(0)-H(T)+PV         H(T)/Eh          T*S/Eh         G(T)/Eh
   ------------------------------------------------------------------------
    298.15    0.329555E-01    0.462209E+00    0.932546E-01    0.368955E+00
   ------------------------------------------------------------------------

         :::::::::::::::::::::::::::::::::::::::::::::::::::::
         ::                  THERMODYNAMIC                  ::
         :::::::::::::::::::::::::::::::::::::::::::::::::::::
         :: total free energy         -92.756143547217 Eh   ::
         ::.................................................::
         :: total energy              -93.125098215761 Eh   ::
         :: zero point energy           0.429253739282 Eh   ::
         :: G(RRHO) w/o ZPVE           -0.060299070738 Eh   ::
         :: G(RRHO) contrib.            0.368954668544 Eh   ::
         :::::::::::::::::::::::::::::::::::::::::::::::::::::

           -------------------------------------------------
          | TOTAL ENERGY              -93.125098215761 Eh   |
          | TOTAL ENTHALPY            -92.662888938376 Eh   |
          | TOTAL FREE ENERGY         -92.756143547217 Eh   |
          | GRADIENT NORM               0.000070359075 Eh/α |
          | HOMO-LUMO GAP               1.670737756893 eV   |
           -------------------------------------------------

 * finished run on 2025/07/18 at 00:20:33.797
