   * xtb version 6.7.1 (edcfbbe) compiled by 'albert@albert-system' on 2024-07-22

   ID    Z sym.   atoms
    1    6 C      1, 3-11, 13-16, 18-24, 26, 27, 29-32, 34, 35
    2    8 O      2, 12
    3    7 N      17, 25, 28, 33
    4    1 H      36-57

          program call               : xtb data2507/gas/Me-DOC/Me-DOC_gas_S0_crest.xyz --gfn 2 --ohess vtight --parallel 40 --molden --ceasefiles --namespace data2507/gas/Me-DOC/Me-DOC_gas_S0_finalOpt
          :  Hamiltonian                  GFN2-xTB          :
 * total energy  :   -93.1251189 Eh     change       -0.1757471E-08 Eh
 * total energy  :   -93.1251192 Eh     change       -0.2891917E-06 Eh
 * total energy  :   -93.1251189 Eh     change        0.3070412E-06 Eh
 * total energy  :   -93.1251197 Eh     change       -0.8161426E-06 Eh
 * total energy  :   -93.1251195 Eh     change        0.1585061E-06 Eh
 * total energy  :   -93.1251198 Eh     change       -0.3104006E-06 Eh
 * total energy  :   -93.1251197 Eh     change        0.1744128E-06 Eh
 * total energy  :   -93.1251201 Eh     change       -0.3943836E-06 Eh
 * total energy  :   -93.1251202 Eh     change       -0.1473042E-06 Eh
 * total energy  :   -93.1251205 Eh     change       -0.2970468E-06 Eh
 * total energy  :   -93.1251209 Eh     change       -0.3471787E-06 Eh
 * total energy  :   -93.1251212 Eh     change       -0.3350698E-06 Eh
 * total energy  :   -93.1251215 Eh     change       -0.3449266E-06 Eh
 * total energy  :   -93.1251218 Eh     change       -0.2695857E-06 Eh
 * total energy  :   -93.1251219 Eh     change       -0.1237046E-06 Eh
 * total energy  :   -93.1251220 Eh     change       -0.1008673E-06 Eh
 * total energy  :   -93.1251221 Eh     change       -0.6744797E-07 Eh
   *** GEOMETRY OPTIMIZATION CONVERGED AFTER 17 ITERATIONS ***

 final structure:
================
57
 xtb: 6.7.1 (edcfbbe)
C           -6.71824141195596       -3.72219115012717       -0.02007223565466
O           -5.34800564364304       -4.03117258556240       -0.03967562288446
C           -4.45097988365287       -2.99965557400636       -0.03082336089537
C           -3.10247900753884       -3.38912830286564       -0.05796609866021
C           -2.07911683157941       -2.46800114807430       -0.04376887676247
C           -2.41328077645948       -1.12096752899860        0.01053063400261
C           -3.76436372041339       -0.71718644655967        0.00426073292142
C           -4.78998360175380       -1.65730699552873       -0.01077905653428
C           -3.76382748581725        0.71823673055541       -0.00180638333893
C           -4.78873726530948        1.65913359768555        0.01342247080413
C           -4.44871621930458        3.00122767527979        0.03320788258160
O           -5.34496128891861        4.03342731498052        0.04202013659919
C           -6.71541049319893        3.72552933154099        0.02092069731060
C           -3.09991490696024        3.38968408870046        0.06012496209428
C           -2.07725381674279        2.46778507853844        0.04570609538282
C           -2.41244746161895        1.12100200444890       -0.00855174616707
N           -1.59949584140434       -0.00029290114392        0.00081787480014
C           -0.20754864634047       -0.00075750018390        0.00011301142283
C            0.49862654154403       -0.82500344574421        0.87642392079979
C            1.87645229873185       -0.83112025743962        0.86778947328709
C            2.58423762092873       -0.00103880835226       -0.00085969997137
C            4.04826075469353       -0.00075398392070       -0.00072895704781
C            4.78009398545699        1.19586212767422        0.01496213157421
C            4.13799309961409        2.45041303625260        0.08506070416066
N            3.66437918017232        3.49239141283037        0.16311013312628
C            6.18586310212257        1.14736605390702        0.01468478109709
C            7.00035046806954        2.39642596888634        0.03504231208697
N            6.84123842492021       -0.00011737534739        0.00096761357654
C            6.18641475855489       -1.14790387358928       -0.01370178365522
C            7.00149952314256       -2.39659224792071       -0.03261453966286
C            4.78066372761057       -1.19702267639713       -0.01579905261496
C            4.13924387877943       -2.45185389170111       -0.08714704367754
N            3.66670593570415       -3.49423661192766       -0.16670015993651
C            1.87602773932247        0.82896500748600       -0.86923305152297
C            0.49820456584353        0.82313874865424       -0.87688064014786
H           -7.01479311818313       -3.14799682371961       -0.90449193361696
H           -7.23745820488785       -4.67937578711758       -0.02360143707905
H           -6.99312607856596       -3.16588412555657        0.88258483149293
H           -2.88925161970630       -4.44530331215800       -0.09600801018820
H           -1.05179179974528       -2.79426241736108       -0.08962855010579
H           -5.81534022505130       -1.32476163262813       -0.01397056060567
H           -5.81434571791744        1.32736680629570        0.01692262824711
H           -6.98967340317553        3.16926587694028       -0.88195191678224
H           -7.23387382165166        4.68312729590678        0.02366146432542
H           -7.01347911914427        3.15174428511829        0.90509727296888
H           -2.88588686549669        4.44570154697116        0.09803356123789
H           -1.04966444669790        2.79326368182933        0.09125540428774
H           -0.04006400074874       -1.44258756867542        1.57805257722290
H            2.40996062234980       -1.45791177602395        1.56705014909127
H            8.05565623061738        2.14006855171472        0.03628162909462
H            6.76644233710990        2.98644621944532        0.92048937564396
H            6.77515457293499        3.01057473577275       -0.83612338031418
H            6.76565366411276       -2.98949490540713       -0.91559453302049
H            6.77882973190221       -3.00812523630648        0.84106422611378
H            8.05667438468501       -2.13970278300332       -0.03698995316973
H            2.40918334720224        1.45554683212423       -1.56894071436661
H           -0.04086499454124        1.44078417380839       -1.57816223807166

          :  Hamiltonian                  GFN2-xTB          :
         :: gradient norm              0.000074012331 Eh/a0 ::
         :: HOMO-LUMO gap              1.672143015726 eV    ::
         :: SCC energy               -94.721240577272 Eh    ::
         :: -> dispersion             -0.072385994913 Eh    ::
         :: repulsion energy           1.596118477623 Eh    ::

    * Orbital Energies and Occupations

         #    Occupation            Energy/Eh            Energy/eV
      -------------------------------------------------------------
         1        2.0000           -0.7116703             -19.3655
       ...           ...                  ...                  ...
        73        2.0000           -0.4390526             -11.9472
        74        2.0000           -0.4351982             -11.8423
        75        2.0000           -0.4279408             -11.6449
        76        2.0000           -0.4252622             -11.5720
        77        2.0000           -0.4250804             -11.5670
        78        2.0000           -0.4234294             -11.5221
        79        2.0000           -0.4185509             -11.3894
        80        2.0000           -0.4167196             -11.3395
        81        2.0000           -0.4064980             -11.0614
        82        2.0000           -0.3937244             -10.7138
        83        2.0000           -0.3931957             -10.6994
        84        2.0000           -0.3714914             -10.1088
        85        2.0000           -0.3540534              -9.6343 (HOMO)
        86                         -0.2926033              -7.9621 (LUMO)
        87                         -0.2924793              -7.9588
        88                         -0.2482083              -6.7541
        89                         -0.2430104              -6.6127
        90                         -0.2341973              -6.3728
        91                         -0.2191205              -5.9626
        92                         -0.2168211              -5.9000
        93                         -0.2160136              -5.8780
        94                         -0.2132300              -5.8023
        95                         -0.1859070              -5.0588
        96                         -0.1854188              -5.0455
       ...                                ...                  ...
       162                          1.1589863              31.5376
      -------------------------------------------------------------
                  HL-Gap            0.0614501 Eh            1.6721 eV

     #   Z          covCN         q      C6AA      α(0)
     1   6 C        3.644     0.040    20.238     6.466
     2   8 O        1.705    -0.274    18.542     5.814
     3   6 C        2.866     0.134    25.063     8.206
     4   6 C        2.925    -0.056    29.385     8.890
     5   6 C        2.909    -0.049    29.219     8.864
     6   6 C        3.074     0.036    27.125     8.539
     7   6 C        3.070    -0.017    28.355     8.731
     8   6 C        2.911    -0.071    29.780     8.948
     9   6 C        3.070    -0.017    28.355     8.731
    10   6 C        2.911    -0.071    29.780     8.948
    11   6 C        2.866     0.134    25.063     8.206
    12   8 O        1.705    -0.274    18.542     5.814
    13   6 C        3.644     0.040    20.238     6.466
    14   6 C        2.925    -0.056    29.385     8.890
    15   6 C        2.909    -0.049    29.219     8.864
    16   6 C        3.074     0.036    27.125     8.539
    17   7 N        2.802    -0.036    21.945     6.958
    18   6 C        2.913     0.070    26.425     8.429
    19   6 C        2.921    -0.042    29.033     8.836
    20   6 C        2.923    -0.026    28.658     8.779
    21   6 C        2.977     0.001    28.005     8.681
    22   6 C        2.988     0.036    27.187     8.553
    23   6 C        2.973    -0.015    28.382     8.739
    24   6 C        1.910     0.113    28.315     8.594
    25   7 N        0.911    -0.239    26.236     7.408
    26   6 C        2.948     0.116    25.451     8.274
    27   6 C        3.760    -0.118    22.802     6.807
    28   7 N        1.848    -0.241    27.153     7.723
    29   6 C        2.948     0.116    25.451     8.274
    30   6 C        3.760    -0.118    22.802     6.807
    31   6 C        2.973    -0.015    28.382     8.739
    32   6 C        1.910     0.113    28.315     8.594
    33   7 N        0.911    -0.239    26.236     7.408
    34   6 C        2.923    -0.026    28.658     8.779
    35   6 C        2.921    -0.042    29.033     8.836
    36   1 H        0.924     0.037     2.483     2.464
    37   1 H        0.925     0.060     2.201     2.320
    38   1 H        0.924     0.038     2.482     2.464
    39   1 H        0.926     0.052     2.300     2.372
    40   1 H        0.926     0.040     2.450     2.448
    41   1 H        0.926     0.035     2.510     2.477
    42   1 H        0.926     0.035     2.510     2.477
    43   1 H        0.924     0.038     2.482     2.464
    44   1 H        0.925     0.060     2.201     2.320
    45   1 H        0.924     0.037     2.483     2.464
    46   1 H        0.926     0.052     2.300     2.372
    47   1 H        0.926     0.040     2.450     2.448
    48   1 H        0.926     0.050     2.314     2.379
    49   1 H        0.926     0.040     2.442     2.444
    50   1 H        0.925     0.071     2.070     2.250
    51   1 H        0.925     0.065     2.144     2.290
    52   1 H        0.925     0.064     2.154     2.295
    53   1 H        0.925     0.065     2.145     2.290
    54   1 H        0.925     0.064     2.153     2.295
    55   1 H        0.925     0.071     2.070     2.250
    56   1 H        0.926     0.041     2.442     2.444
    57   1 H        0.926     0.051     2.313     2.379

molecular dipole:
                 x           y           z       tot (Debye)
 q only:       -0.027       0.001       0.001
   full:       -0.200       0.001       0.001       0.509

 projected vibrational frequencies (cm⁻¹)
eigval :       -0.00    -0.00    -0.00    -0.00     0.00     0.00
eigval :       16.42    18.63    23.95    43.40    55.06    58.68
eigval :       62.74    68.34    70.83    79.19    85.23    89.96
eigval :      105.38   106.55   125.60   142.63   149.85   160.91
eigval :      169.53   193.65   201.64   201.72   216.57   231.40
eigval :      239.11   259.17   265.14   267.03   279.91   328.00
eigval :      339.79   345.06   349.95   389.69   391.40   397.10
eigval :      398.23   402.59   428.59   433.96   454.87   470.92
eigval :      472.07   474.16   487.66   499.94   511.03   517.97
eigval :      555.05   570.62   585.11   586.36   602.61   605.46
eigval :      618.47   620.53   640.06   661.23   669.33   678.03
eigval :      688.29   700.52   717.44   735.14   787.25   806.82
eigval :      807.15   820.84   849.06   854.94   867.89   872.69
eigval :      880.79   905.02   907.43   920.87   926.89   931.01
eigval :      938.09   949.58   989.54  1009.81  1021.39  1023.09
eigval :     1029.76  1035.86  1066.34  1066.46  1109.22  1120.68
eigval :     1123.97  1124.09  1138.33  1145.61  1156.35  1158.21
eigval :     1158.93  1176.74  1186.42  1192.66  1206.90  1242.37
eigval :     1244.62  1269.61  1270.76  1273.23  1293.98  1313.50
eigval :     1318.79  1348.27  1355.21  1358.72  1382.49  1390.65
eigval :     1395.87  1398.75  1402.45  1402.69  1414.03  1418.84
eigval :     1420.58  1435.39  1451.92  1456.29  1457.19  1460.78
eigval :     1473.01  1473.18  1476.81  1485.13  1486.69  1494.66
eigval :     1499.54  1513.26  1533.91  1553.72  1570.43  1578.41
eigval :     1591.87  1606.32  1618.76  2360.93  2364.65  2922.73
eigval :     2922.89  2938.26  2938.73  3007.92  3008.42  3022.52
eigval :     3022.52  3025.71  3025.83  3065.41  3066.07  3085.23
eigval :     3086.77  3094.14  3094.56  3104.77  3105.37  3105.46
eigval :     3109.01  3114.16  3114.30

   temp. (K)  partition function   enthalpy   heat capacity  entropy
                                   cal/mol     cal/K/mol   cal/K/mol   J/K/mol
 298.15  VIB  0.730E+14            18303.716    110.035    115.585
         ROT  0.199E+08              888.752      2.981     36.379
         INT  0.145E+22            19192.468    113.016    151.963
         TR   0.950E+28             1481.254      4.968     44.237
         TOT                       20673.7222   117.9843   196.2005   820.9028

       T/K    H(0)-H(T)+PV         H(T)/Eh          T*S/Eh         G(T)/Eh
   ------------------------------------------------------------------------
    298.15    0.329457E-01    0.462201E+00    0.932212E-01    0.368980E+00
   ------------------------------------------------------------------------

         :::::::::::::::::::::::::::::::::::::::::::::::::::::
         ::                  THERMODYNAMIC                  ::
         :::::::::::::::::::::::::::::::::::::::::::::::::::::
         :: total free energy         -92.756142472769 Eh   ::
         ::.................................................::
         :: total energy              -93.125122099737 Eh   ::
         :: zero point energy           0.429255128121 Eh   ::
         :: G(RRHO) w/o ZPVE           -0.060275501152 Eh   ::
         :: G(RRHO) contrib.            0.368979626969 Eh   ::
         :::::::::::::::::::::::::::::::::::::::::::::::::::::

           -------------------------------------------------
          | TOTAL ENERGY              -93.125122099737 Eh   |
          | TOTAL ENTHALPY            -92.662921298230 Eh   |
          | TOTAL FREE ENERGY         -92.756142472769 Eh   |
          | GRADIENT NORM               0.000074101527 Eh/α |
          | HOMO-LUMO GAP               1.672141564565 eV   |
           -------------------------------------------------

 * finished run on 2025/07/18 at 00:22:19.042
