   * xtb version 6.7.1 (edcfbbe) compiled by 'albert@albert-system' on 2024-07-22

   ID    Z sym.   atoms
    1    6 C      1, 3-11, 13-16, 18-24, 26, 27, 29-32, 34, 35
    2    8 O      2, 12
    3    7 N      17, 25, 28, 33
    4    1 H      36-57

          program call               : xtb data2507/gas/Me-DOC/Me-DOC_gas_S0_finalOpt.xtbopt.xyz --gfn 2 --spinpol --tblite --uhf 2 --ohess vtight --parallel 40 --molden --ceasefiles --namespace data2507/gas/Me-DOC/Me-DOC_gas_T1_preOpt
 * total energy  :   -93.0352809 Eh     change        0.2248558E-07 Eh
 * total energy  :   -93.0383168 Eh     change       -0.3035927E-02 Eh
 * total energy  :   -93.0393218 Eh     change       -0.1004993E-02 Eh
 * total energy  :   -93.0397483 Eh     change       -0.4264798E-03 Eh
 * total energy  :   -93.0403169 Eh     change       -0.5686158E-03 Eh
 * total energy  :   -93.0405722 Eh     change       -0.2553232E-03 Eh
 * total energy  :   -93.0408002 Eh     change       -0.2279200E-03 Eh
 * total energy  :   -93.0408500 Eh     change       -0.4987429E-04 Eh
 * total energy  :   -93.0410077 Eh     change       -0.1576295E-03 Eh
 * total energy  :   -93.0410782 Eh     change       -0.7056952E-04 Eh
 * total energy  :   -93.0417320 Eh     change       -0.5899673E-07 Eh
 * total energy  :   -93.0417322 Eh     change       -0.1911934E-06 Eh
 * total energy  :   -93.0417324 Eh     change       -0.1732096E-06 Eh
 * total energy  :   -93.0417325 Eh     change       -0.1083719E-06 Eh
 * total energy  :   -93.0417327 Eh     change       -0.1713593E-06 Eh
 * total energy  :   -93.0417328 Eh     change       -0.1310928E-06 Eh
 * total energy  :   -93.0417330 Eh     change       -0.1815014E-06 Eh
 * total energy  :   -93.0417332 Eh     change       -0.1908736E-06 Eh
 * total energy  :   -93.0417333 Eh     change       -0.8337059E-07 Eh
   *** GEOMETRY OPTIMIZATION CONVERGED AFTER 107 ITERATIONS ***

 final structure:
================
57
 xtb: 6.7.1 (edcfbbe)
C           -6.72377419609361       -3.74297820841842       -0.15196351483877
O           -5.34677666249752       -4.02929522742513       -0.19713184009967
C           -4.46048357724857       -3.00437181888229       -0.15220252446571
C           -3.10698211141524       -3.38633912338682       -0.21227619749480
C           -2.09038836446321       -2.46041149762362       -0.16473065037503
C           -2.43159979498606       -1.11705567940728       -0.04294552186255
C           -3.79147338689930       -0.71709869611601       -0.02515922538731
C           -4.80887573299492       -1.65918699112370       -0.07102511541238
C           -3.79125655943664        0.71839813564648        0.02638874236782
C           -4.80837142647409        1.66079227943973        0.07234093611901
C           -4.45956620721370        3.00586958116617        0.15349679912391
O           -5.34555030421516        4.03106280575314        0.19851193402210
C           -6.72263711131259        3.74515801564218        0.15347887911157
C           -3.10594730611137        3.38743436529360        0.21345049465067
C           -2.08963477727942        2.46119899285654        0.16581555162294
C           -2.43126112194967        1.11794803921990        0.04406258601817
N           -1.62469755343639        0.00032425434512        0.00052357302627
C           -0.23827448974716        0.00012035220515        0.00046357194214
C            0.48214100075078       -0.90402382273314        0.80686107306642
C            1.84556226346546       -0.90205354286239        0.80913814938628
C            2.59396498726583       -0.00030317593541        0.00035035998424
C            4.01307597100667       -0.00051491806599        0.00029989883219
C            4.78872375870271        1.18843633199590       -0.24538467987649
C            4.21238825268499        2.45870784283238       -0.38134453588562
N            3.81255715374514        3.53608542681767       -0.46541172146727
C            6.17967076125637        1.13417354175964       -0.22799637153291
C            7.01616152295266        2.35383320096850       -0.45019818674705
N            6.83158708307983       -0.00090491921610        0.00016944416133
C            6.17935933556979       -1.13579700530493        0.22840665916550
C            7.01552279128127       -2.35570822426885        0.45057442232197
C            4.78839710371382       -1.18967914725565        0.24592366600716
C            4.21169998741879       -2.45982482982621        0.38190347664228
N            3.81165827803930       -3.53705671019029        0.46619331250847
C            1.84576422340000        0.90167102829834       -0.80838415380036
C            0.48234028538422        0.90404405937313       -0.80599281570252
H           -7.03601380806531       -3.13705475850004       -1.00853318290154
H           -7.22664470599849       -4.70768364054292       -0.19213635865674
H           -6.99699824188177       -3.23132205737279        0.77638417956494
H           -2.89023289784562       -4.43790660362216       -0.30434744571822
H           -1.06147842794852       -2.77429553451104       -0.23754095332604
H           -5.83755947096304       -1.33780339392089       -0.05055721477610
H           -5.83715368469651        1.33971920300867        0.05195020306453
H           -6.99610769921576        3.23358743225311       -0.77484340291519
H           -7.22521281051036        4.71001497025699        0.19370410751912
H           -7.03497530730022        3.13932648801591        1.01007711568453
H           -2.88887317446510        4.43893553659126        0.30549798309744
H           -1.06062456269658        2.77477524270908        0.23853207670025
H           -0.05936862387202       -1.55340685907137        1.47856669918026
H            2.36825121503186       -1.55838463429958        1.48610402467653
H            8.06752130702559        2.08275789230625       -0.41202788183643
H            6.80740246416191        3.10138556335757        0.31433396112675
H            6.79109795287943        2.80093982657696       -1.41754700572726
H            6.80645518171824       -3.10320845923477       -0.31391584241488
H            6.79039638098622       -2.80269125205071        1.41795973946022
H            8.06695922744544       -2.08495024851816        0.41230262292302
H            2.36859429701859        1.55784814961249       -1.48538715093690
H           -0.05902577853359        1.55359072424987       -1.47765577944234

 projected vibrational frequencies (cm⁻¹)
eigval :       -0.00    -0.00    -0.00     0.00     0.00     0.00
eigval :       15.27    19.76    23.45    34.98    53.83    54.74
eigval :       56.30    62.44    69.44    80.42    86.89    89.60
eigval :      107.97   113.94   138.78   156.77   158.97   166.03
eigval :      170.74   195.80   196.37   200.39   211.46   232.82
eigval :      241.90   257.74   261.09   265.04   279.56   305.28
eigval :      333.04   336.45   348.75   384.57   390.13   391.11
eigval :      393.75   395.40   423.79   424.02   446.06   455.76
eigval :      459.74   463.83   464.64   475.35   493.21   500.56
eigval :      518.49   564.77   568.63   581.55   581.88   590.14
eigval :      607.53   618.57   630.73   636.93   647.41   663.28
eigval :      664.51   673.30   696.19   729.11   786.63   801.11
eigval :      808.51   811.36   828.78   842.91   843.76   861.38
eigval :      880.86   898.44   901.26   911.59   917.01   922.40
eigval :      923.27   944.40   972.47   992.57  1006.63  1015.17
eigval :     1022.52  1024.48  1058.95  1059.62  1092.55  1108.30
eigval :     1118.60  1118.69  1119.11  1125.18  1145.01  1153.61
eigval :     1153.85  1171.85  1184.68  1198.97  1211.83  1228.04
eigval :     1234.96  1241.65  1251.26  1262.24  1265.92  1272.05
eigval :     1317.94  1326.18  1342.40  1345.89  1354.59  1361.97
eigval :     1383.52  1393.45  1394.92  1399.17  1400.00  1402.54
eigval :     1414.23  1420.02  1431.29  1446.96  1453.32  1462.49
eigval :     1463.45  1464.57  1465.78  1466.77  1469.14  1469.30
eigval :     1476.74  1478.86  1485.62  1490.67  1544.14  1546.37
eigval :     1553.94  1559.29  1581.78  2290.45  2309.29  2934.47
eigval :     2934.58  2947.05  2947.38  3006.60  3007.09  3021.22
eigval :     3021.32  3031.41  3031.48  3056.59  3057.26  3082.38
eigval :     3083.81  3105.38  3105.62  3106.90  3110.08  3111.09
eigval :     3112.14  3121.31  3121.33

   temp. (K)  partition function   enthalpy   heat capacity  entropy
                                   cal/mol     cal/K/mol   cal/K/mol   J/K/mol
 298.15  VIB  0.117E+15            18536.394    111.251    116.494
         ROT  0.202E+08              888.752      2.981     36.405
         INT  0.235E+22            19425.147    114.232    152.899
         TR   0.950E+28             1481.254      4.968     44.237
         TOT                       20906.4008   119.2004   197.1358   824.8161

       T/K    H(0)-H(T)+PV         H(T)/Eh          T*S/Eh         G(T)/Eh
   ------------------------------------------------------------------------
    298.15    0.333165E-01    0.458830E+00    0.936656E-01    0.365165E+00
   ------------------------------------------------------------------------

         :::::::::::::::::::::::::::::::::::::::::::::::::::::
         ::                  THERMODYNAMIC                  ::
         :::::::::::::::::::::::::::::::::::::::::::::::::::::
         :: total free energy         -92.676568659959 Eh   ::
         ::.................................................::
         :: total energy              -93.041733296303 Eh   ::
         :: zero point energy           0.425513732950 Eh   ::
         :: G(RRHO) w/o ZPVE           -0.060349096606 Eh   ::
         :: G(RRHO) contrib.            0.365164636344 Eh   ::
         :::::::::::::::::::::::::::::::::::::::::::::::::::::

           -------------------------------------------------
          | TOTAL ENERGY              -93.041733296303 Eh   |
          | TOTAL ENTHALPY            -92.582903093033 Eh   |
          | TOTAL FREE ENERGY         -92.676568659959 Eh   |
          | GRADIENT NORM               0.000178944254 Eh/α |
           -------------------------------------------------

 * finished run on 2025/07/18 at 00:22:29.653
