   * xtb version 6.7.1 (edcfbbe) compiled by 'albert@albert-system' on 2024-07-22

   ID    Z sym.   atoms
    1    6 C      1, 3-11, 13-16, 18-24, 26, 27, 29-32, 34, 35
    2    8 O      2, 12
    3    7 N      17, 25, 28, 33
    4    1 H      36-57

          program call               : xtb data2507/gas/Me-DOC/Me-DOC_gas_T1_crest.xyz --gfn 2 --spinpol --tblite --uhf 2 --ohess vtight --parallel 40 --molden --ceasefiles --namespace data2507/gas/Me-DOC/Me-DOC_gas_T1_finalOpt
 * total energy  :   -93.0421484 Eh     change        0.4052875E-07 Eh
 * total energy  :   -93.0421740 Eh     change       -0.2561856E-04 Eh
 * total energy  :   -93.0421798 Eh     change       -0.5765380E-05 Eh
 * total energy  :   -93.0421753 Eh     change        0.4480564E-05 Eh
 * total energy  :   -93.0421844 Eh     change       -0.9100173E-05 Eh
 * total energy  :   -93.0421847 Eh     change       -0.3453319E-06 Eh
 * total energy  :   -93.0421848 Eh     change       -0.7554095E-07 Eh
 * total energy  :   -93.0421855 Eh     change       -0.6709966E-06 Eh
 * total energy  :   -93.0421858 Eh     change       -0.3522069E-06 Eh
 * total energy  :   -93.0421863 Eh     change       -0.4971936E-06 Eh
 * total energy  :   -93.0421866 Eh     change       -0.2999661E-06 Eh
 * total energy  :   -93.0421870 Eh     change       -0.3441223E-06 Eh
 * total energy  :   -93.0421876 Eh     change       -0.5827171E-06 Eh
 * total energy  :   -93.0421883 Eh     change       -0.7426873E-06 Eh
 * total energy  :   -93.0421890 Eh     change       -0.6663339E-06 Eh
 * total energy  :   -93.0421893 Eh     change       -0.3001066E-06 Eh
 * total energy  :   -93.0421895 Eh     change       -0.1988414E-06 Eh
 * total energy  :   -93.0421896 Eh     change       -0.1084300E-06 Eh
 * total energy  :   -93.0421897 Eh     change       -0.6767677E-07 Eh
   *** GEOMETRY OPTIMIZATION CONVERGED AFTER 19 ITERATIONS ***

 final structure:
================
57
 xtb: 6.7.1 (edcfbbe)
C           -5.28325186124129       -5.18717132797986       -0.39141987972273
O           -5.54004176107539       -3.80730073181849       -0.27840804515231
C           -4.49693917208877       -2.94232940078928       -0.22146783121005
C           -3.14934721724124       -3.32013414703926       -0.28494598820843
C           -2.13803015353660       -2.37965876287366       -0.21156005881833
C           -2.48116661807554       -1.04457748326530       -0.06063525299327
C           -3.84465076251825       -0.64600470284392       -0.03705910728584
C           -4.84696115581357       -1.59310064306572       -0.10903655298605
C           -3.84391790629174        0.78842835032479        0.04753520689103
C           -4.86181849705503        1.72769526121321        0.11408300448469
C           -4.51401482942812        3.07091910251459        0.22586803133767
O           -5.40018663657284        4.09345736572319        0.29559235949825
C           -6.77757174624249        3.80642346903958        0.25075523792647
C           -3.15980690305625        3.45252831677883        0.29290485285504
C           -2.14278767693540        2.52910262095171        0.22507149834924
C           -2.48366300312437        1.18773798682760        0.07611617000961
N           -1.67585333483716        0.07337525106212        0.01031534711370
C           -0.28874650143357        0.07085622322361        0.01399518868385
C            0.42560029075943       -0.84690105505718        0.80970673455677
C            1.78904760046521       -0.85451030686764        0.81105107539745
C            2.54308498751059        0.04916490088919        0.01002481221417
C            3.96222145445551        0.03075660922104        0.00271334970775
C            4.75377925331640        1.21058162274414       -0.23433460583699
C            4.19596987175960        2.49024339921500       -0.35967085991277
N            3.81283473919428        3.57425302109109       -0.43548482733954
C            6.14385828805018        1.13654105164347       -0.22134094935188
C            6.99686846448365        2.34584776838825       -0.43772985824263
N            6.78113546739750       -0.00917304939873       -0.00382749313946
C            6.11326257712032       -1.13663471012405        0.21494516538110
C            6.93293974779810       -2.36970833686328        0.42644445426573
C            4.72166568004028       -1.17193920773067        0.23298994857972
C            4.12760662039200       -2.43539264330681        0.35317902052717
N            3.71193651041032       -3.50800279129960        0.42226960972275
C            1.80076643525082        0.96935756724194       -0.78306420745296
C            0.43709270880762        0.98216019510150       -0.77859510077592
H           -6.26050222588122       -5.66698598547942       -0.40369848177121
H           -4.75370023089888       -5.42225252659980       -1.31980073674414
H           -4.70787013874776       -5.55974320779516        0.46152485147920
H           -2.87916304568327       -4.35666894763898       -0.40177932865484
H           -1.10754442078038       -2.68876766944546       -0.28761317143926
H           -5.89036357837290       -1.32421286394986       -0.08758599549388
H           -5.88916641344078        1.40356275304078        0.08578947787219
H           -7.28114257519159        4.76933314474858        0.31680783024581
H           -7.08399153890950        3.17939127291299        1.09391261112755
H           -7.05474558299760        3.31660145949617       -0.68794520112579
H           -2.94394555188586        4.50212366142561        0.40745925832829
H           -1.11374465123864        2.84144768027942        0.30301270851186
H           -0.12044963188653       -1.50031224937986        1.47398450299199
H            2.30757828951834       -1.52149224202625        1.48079872997999
H            8.04446281979824        2.06094154558486       -0.39655773905875
H            6.79497611749608        3.09485317534357        0.32715790434678
H            6.78127294598384        2.79733201271234       -1.40526299449742
H            6.70659930032443       -3.11200346693607       -0.33813825645974
H            6.70916298764714       -2.81571981122664        1.39466305797154
H            7.98792298964240       -2.11431668484116        0.38076929363838
H            2.32744747270862        1.63253798581719       -1.45010017249158
H           -0.10047629994865        1.64679617508470       -1.43847363132990

 projected vibrational frequencies (cm⁻¹)
eigval :       -0.00    -0.00    -0.00     0.00     0.00     0.00
eigval :       15.07    19.57    23.89    35.43    53.60    55.39
eigval :       59.46    62.36    69.52    73.27    80.72    98.51
eigval :      111.37   115.91   131.82   155.73   159.05   164.31
eigval :      171.41   191.19   205.81   212.47   219.81   233.92
eigval :      242.21   251.54   259.85   265.80   275.80   307.10
eigval :      327.23   333.77   338.75   385.22   391.00   391.82
eigval :      394.03   399.35   414.01   422.46   429.45   456.18
eigval :      460.18   464.41   471.83   479.59   494.10   508.46
eigval :      526.51   564.80   565.41   581.85   588.86   596.22
eigval :      608.95   618.85   629.13   638.48   644.95   662.65
eigval :      666.96   673.66   696.86   730.80   782.28   799.81
eigval :      805.41   812.44   830.01   844.49   852.00   859.70
eigval :      881.01   892.81   899.87   908.19   915.75   920.89
eigval :      921.75   938.43   972.33   992.49  1006.96  1014.87
eigval :     1021.76  1022.70  1056.68  1058.37  1092.60  1108.94
eigval :     1116.97  1117.97  1121.09  1130.08  1144.69  1152.38
eigval :     1156.68  1175.39  1184.05  1194.46  1211.03  1230.34
eigval :     1233.15  1246.89  1257.86  1262.68  1268.18  1271.96
eigval :     1318.47  1326.27  1338.79  1345.00  1356.24  1366.14
eigval :     1382.25  1393.57  1394.83  1398.38  1400.02  1403.84
eigval :     1414.09  1420.08  1424.72  1443.57  1450.69  1462.84
eigval :     1463.78  1464.50  1465.46  1466.35  1468.37  1468.39
eigval :     1474.89  1478.77  1483.58  1490.60  1542.24  1546.63
eigval :     1559.28  1562.90  1584.40  2290.12  2309.06  2937.16
eigval :     2939.72  2949.84  2952.01  3006.59  3007.10  3021.27
eigval :     3021.44  3030.12  3031.73  3056.73  3057.41  3081.17
eigval :     3083.45  3102.26  3105.42  3111.07  3112.31  3112.84
eigval :     3115.14  3119.93  3121.02

   temp. (K)  partition function   enthalpy   heat capacity  entropy
                                   cal/mol     cal/K/mol   cal/K/mol   J/K/mol
 298.15  VIB  0.113E+15            18531.136    111.264    116.471
         ROT  0.411E+08              888.752      2.981     37.822
         INT  0.466E+22            19419.889    114.245    154.293
         TR   0.950E+28             1481.254      4.968     44.237
         TOT                       20901.1427   119.2132   198.5300   830.6495

       T/K    H(0)-H(T)+PV         H(T)/Eh          T*S/Eh         G(T)/Eh
   ------------------------------------------------------------------------
    298.15    0.333081E-01    0.458874E+00    0.943280E-01    0.364546E+00
   ------------------------------------------------------------------------

         :::::::::::::::::::::::::::::::::::::::::::::::::::::
         ::                  THERMODYNAMIC                  ::
         :::::::::::::::::::::::::::::::::::::::::::::::::::::
         :: total free energy         -92.677643524686 Eh   ::
         ::.................................................::
         :: total energy              -93.042189664815 Eh   ::
         :: zero point energy           0.425566056754 Eh   ::
         :: G(RRHO) w/o ZPVE           -0.061019916625 Eh   ::
         :: G(RRHO) contrib.            0.364546140129 Eh   ::
         :::::::::::::::::::::::::::::::::::::::::::::::::::::

           -------------------------------------------------
          | TOTAL ENERGY              -93.042189664815 Eh   |
          | TOTAL ENTHALPY            -92.583315516978 Eh   |
          | TOTAL FREE ENERGY         -92.677643524686 Eh   |
          | GRADIENT NORM               0.000105701564 Eh/α |
           -------------------------------------------------

 * finished run on 2025/07/18 at 00:24:58.590
