   * xtb version 6.7.1 (edcfbbe) compiled by 'albert@albert-system' on 2024-07-22

   ID    Z sym.   atoms
    1    6 C      1-9, 11-14, 16-31, 33-46, 48-54
    2    7 N      10, 15, 32, 47
    3    1 H      55-92

          program call               : xtb data2507/gas/α-2DMAC-DBP/α-2DMAC-DBP_gas_T1_crest.xyz --gfn 2 --spinpol --tblite --uhf 2 --ohess vtight --parallel 40 --molden --ceasefiles --namespace data2507/gas/α-2DMAC-DBP/α-2DMAC-DBP_gas_T1_finalOpt
 * total energy  :  -138.2143387 Eh     change        0.3664516E-07 Eh
 * total energy  :  -138.2143580 Eh     change       -0.1931587E-04 Eh
 * total energy  :  -138.2143620 Eh     change       -0.3981276E-05 Eh
 * total energy  :  -138.2143632 Eh     change       -0.1267807E-05 Eh
 * total energy  :  -138.2143639 Eh     change       -0.6337402E-06 Eh
 * total energy  :  -138.2143645 Eh     change       -0.6340795E-06 Eh
 * total energy  :  -138.2143655 Eh     change       -0.9598878E-06 Eh
 * total energy  :  -138.2143661 Eh     change       -0.6564518E-06 Eh
 * total energy  :  -138.2143668 Eh     change       -0.6502080E-06 Eh
 * total energy  :  -138.2143674 Eh     change       -0.5992480E-06 Eh
 * total energy  :  -138.2143681 Eh     change       -0.7352361E-06 Eh
 * total energy  :  -138.2143690 Eh     change       -0.9430018E-06 Eh
 * total energy  :  -138.2143699 Eh     change       -0.8610145E-06 Eh
 * total energy  :  -138.2143702 Eh     change       -0.3377688E-06 Eh
 * total energy  :  -138.2143704 Eh     change       -0.1331519E-06 Eh
 * total energy  :  -138.2143705 Eh     change       -0.1745268E-06 Eh
 * total energy  :  -138.2143705 Eh     change       -0.1969113E-08 Eh
 * total energy  :  -138.2143706 Eh     change       -0.9637805E-07 Eh
   *** GEOMETRY OPTIMIZATION CONVERGED AFTER 18 ITERATIONS ***

 final structure:
================
92
 xtb: 6.7.1 (edcfbbe)
C            6.83644720270524       -1.68897165580214        0.38371682220099
C            5.59006400214798       -0.92640115182212       -0.10221815493106
C            5.99677442167156        0.41182804043617       -0.74762765746989
C            4.87322930573562       -1.75659743318283       -1.14764667271396
C            5.55737434284702       -2.13173787956683       -2.29663056085470
C            4.94860581768062       -2.83526972633312       -3.31807425278715
C            3.60719879381753       -3.15641315324672       -3.20843810450651
C            2.90586096413392       -2.79932908061201       -2.07736588680752
C            3.52648900349213       -2.12029120374840       -1.02309493732946
N            2.80912721249138       -1.81911180518072        0.12852243405693
C            1.39461730480677       -1.86797321553083        0.09898416962026
C            0.68727702106490       -3.06435877525920        0.06028456569130
C           -0.69392229101109       -3.06288764614774       -0.03067350680937
C           -1.39793509056112       -1.86502439194097       -0.08157059039496
N           -2.81218285968193       -1.81299288034130       -0.11591994387393
C           -3.38822225393618       -1.11387842395598       -1.16504341162871
C           -2.64307029647495       -0.90310789297736       -2.33221519769567
C           -3.15907746152506       -0.18083700195703       -3.38449164173262
C           -4.44222463275339        0.33296353850186       -3.30205145134056
C           -5.20154777044745        0.08045980742294       -2.17511440324168
C           -4.70514704505726       -0.64642754837342       -1.10111131393828
C           -5.59503956814014       -0.92111450224549        0.09199367240176
C           -6.83604245905503       -1.69339802769480       -0.39245882592545
C           -6.01000114821605        0.42282784954783        0.71998047240365
C           -4.88169669117891       -1.73759538231256        1.15051309158715
C           -5.57047632509530       -2.10030669888483        2.30069885680065
C           -4.96537658498929       -2.79134038679046        3.33281092118022
C           -3.62319175925945       -3.11238927400564        3.23265824025948
C           -2.91733964319370       -2.76775890205560        2.10053747931713
C           -3.53412736573191       -2.10148614139289        1.03590645312515
C           -0.71447183791259       -0.63474273502566       -0.05732890851935
N           -1.35460594336647        0.52703199971181       -0.15487447479243
C           -0.69888915276050        1.68510758643942       -0.09584455819732
C           -1.39772324517389        2.92404803324676       -0.23158663090214
C           -2.77940305214878        2.90599942531108       -0.47961825562443
C           -3.47859887845051        4.07543663090456       -0.62763646177421
C           -2.80827801423212        5.29525087490308       -0.53106651591931
C           -1.45488088213498        5.32995866030809       -0.29334656308426
C           -0.70615159036502        4.15428532386835       -0.13603966983951
C            0.71782299543443        4.15330907237577        0.11367517685014
C            1.46927027196330        5.32803686172754        0.26497967858868
C            2.82251426523824        5.29141793159110        0.50330682776746
C            3.48996931586372        4.07056493084424        0.60633913187541
C            2.78810652617319        2.90200944885367        0.46417154619492
C            1.40649867773970        2.92198221378838        0.21586314283122
C            0.70465501569428        1.68399149527889        0.08734266082191
N            1.35750640302309        0.52466616143698        0.15387778980104
C            0.71431257475191       -0.63615578850134        0.06536762972816
C            3.38991538863815       -1.10924584235257        1.16778459115362
C            2.65016398836904       -0.88754646335417        2.33637355093256
C            3.17053758738467       -0.15432396156032        3.37887662025718
C            4.45270120194975        0.36000999180885        3.28497341449322
C            5.20681033562975        0.09708529271687        2.15691042692775
C            4.70602942247372       -0.64120894185922        1.09275234019021
H            6.53897508270079       -2.63508091105773        0.83210324253209
H            7.51270879523448       -1.89720261079151       -0.44038188767325
H            7.37819370378917       -1.11238120681033        1.12810611048689
H            6.65112394895466        0.24807233425034       -1.59954780272967
H            5.11006080924225        0.94057273956499       -1.09270049484765
H            6.51757497170729        1.04362788624773       -0.03324704402192
H            6.59627715788516       -1.86044384514849       -2.40708717526166
H            5.51115906551290       -3.11459237631859       -4.19576780188993
H            3.10317768069976       -3.68329438332760       -4.00485582508268
H            1.85722538186926       -3.04065689079302       -2.01343861449290
H            1.22836253443357       -3.99695939826208        0.10919579886826
H           -1.23761373390887       -3.99440328234342       -0.07056485260750
H           -1.64857240639773       -1.31548643170574       -2.40646519191637
H           -2.56070586622701       -0.01938876031271       -4.26846237371598
H           -4.85366070119887        0.91325415481965       -4.11376813901490
H           -6.20851315098641        0.46769225019459       -2.13435063376515
H           -6.53296808665886       -2.64444056370275       -0.82643970045401
H           -7.37417644582551       -1.12805562278099       -1.14802780217993
H           -7.51727027816487       -1.89276345935869        0.42976153709101
H           -5.12699634432130        0.95898351582860        1.06312192572470
H           -6.52990362464860        1.04428593341470       -0.00405162241974
H           -6.66778746778877        0.26643230496810        1.57062428134057
H           -6.61022016353300       -1.82915626150773        2.40336933214898
H           -5.53143940832896       -3.06113656974831        4.21122948687716
H           -3.12215132362194       -3.62957405282063        4.03727210920845
H           -1.86823394099443       -3.00888966234289        2.04366470824075
H           -3.26676997506836        1.94640484954058       -0.56268227970862
H           -4.54081620976469        4.05565213266383       -0.82153297317826
H           -3.35609928768586        6.21905598467725       -0.64806944917299
H           -0.96760491166911        6.29030821665769       -0.23256020380125
H            0.98427320938826        6.28920085710345        0.19905674676060
H            3.37244136839043        6.21453753912332        0.61575954345523
H            4.55207587461035        4.04926843710548        0.80066571102604
H            3.27326388298804        1.94177867020257        0.55230120401935
H            1.65638887408380       -1.30004912348699        2.41927261258119
H            2.57634653775995        0.01539894494596        4.26411059611361
H            4.86740638406442        0.94895417489727        4.08875282028255
H            6.21299513621103        0.48529194340515        2.10715622314951

 projected vibrational frequencies (cm⁻¹)
eigval :       -0.00     0.00     0.00     0.00     0.00     0.00
eigval :       14.55    14.77    17.89    18.92    23.24    23.51
eigval :       41.25    46.86    64.10    66.66    86.47    89.94
eigval :       92.84    96.18   101.90   105.79   112.88   116.50
eigval :      133.41   134.01   157.41   158.94   170.02   184.63
eigval :      196.06   196.96   199.92   219.44   219.48   227.78
eigval :      234.39   237.91   264.07   272.82   292.07   304.18
eigval :      305.63   312.11   329.44   331.31   334.75   342.97
eigval :      349.02   357.84   375.90   378.96   388.67   390.24
eigval :      391.36   401.95   403.91   407.92   416.71   417.23
eigval :      417.77   424.67   456.27   456.67   465.70   509.49
eigval :      511.35   511.94   515.10   522.16   525.60   533.38
eigval :      536.16   539.05   545.46   547.50   554.20   568.08
eigval :      568.42   583.49   585.27   586.21   597.13   611.39
eigval :      613.54   632.31   639.24   652.41   665.65   673.90
eigval :      675.18   685.27   686.95   690.51   698.89   700.26
eigval :      700.80   721.46   724.83   727.48   766.07   773.56
eigval :      776.50   777.43   778.82   778.84   780.57   823.88
eigval :      826.11   829.45   845.25   848.33   866.58   867.13
eigval :      873.98   875.51   875.57   875.84   905.00   909.42
eigval :      910.41   911.67   914.27   914.58   914.64   914.87
eigval :      916.07   916.56   922.50   922.71   922.72   923.24
eigval :      923.73   924.53   937.89   937.95   957.64   957.67
eigval :     1003.93  1014.52  1014.55  1035.45  1038.06  1076.17
eigval :     1077.30  1077.84  1083.07  1098.63  1099.78  1111.46
eigval :     1112.54  1115.20  1119.13  1119.65  1139.88  1140.18
eigval :     1151.09  1151.75  1156.76  1156.77  1169.42  1175.85
eigval :     1180.16  1181.55  1185.42  1185.54  1186.17  1187.84
eigval :     1195.79  1205.55  1224.56  1236.76  1242.09  1246.34
eigval :     1247.80  1250.12  1257.93  1258.53  1263.84  1264.40
eigval :     1271.58  1288.70  1290.18  1296.23  1296.25  1307.23
eigval :     1316.46  1319.64  1326.77  1329.98  1331.00  1335.32
eigval :     1336.56  1337.55  1347.24  1358.75  1361.26  1390.69
eigval :     1402.03  1402.06  1407.78  1413.29  1419.47  1419.48
eigval :     1430.26  1432.04  1432.70  1434.59  1434.82  1455.31
eigval :     1466.65  1467.75  1467.77  1481.67  1485.08  1486.68
eigval :     1489.06  1489.10  1490.10  1490.11  1499.80  1499.84
eigval :     1503.72  1503.82  1518.75  1520.59  1537.26  1553.52
eigval :     1567.83  1567.90  1582.19  1582.64  1585.46  1587.57
eigval :     1587.63  1594.86  1597.31  1597.82  3027.62  3027.66
eigval :     3029.45  3029.50  3038.93  3038.97  3043.27  3043.36
eigval :     3047.80  3047.89  3053.75  3053.94  3073.15  3073.80
eigval :     3079.75  3079.79  3079.87  3079.96  3083.11  3083.84
eigval :     3084.02  3084.50  3085.42  3085.43  3089.60  3093.35
eigval :     3093.44  3094.89  3096.59  3096.99  3099.26  3099.67
eigval :     3099.89  3100.16  3100.57  3105.61  3111.80  3112.06

   temp. (K)  partition function   enthalpy   heat capacity  entropy
                                   cal/mol     cal/K/mol   cal/K/mol   J/K/mol
 298.15  VIB  0.103E+20            25782.223    166.260    157.621
         ROT  0.395E+08              888.752      2.981     37.742
         INT  0.407E+27            26670.975    169.241    195.363
         TR   0.177E+29             1481.254      4.968     45.476
         TOT                       28152.2291   174.2095   240.8386  1007.6688

       T/K    H(0)-H(T)+PV         H(T)/Eh          T*S/Eh         G(T)/Eh
   ------------------------------------------------------------------------
    298.15    0.448634E-01    0.768063E+00    0.114430E+00    0.653633E+00
   ------------------------------------------------------------------------

         :::::::::::::::::::::::::::::::::::::::::::::::::::::
         ::                  THERMODYNAMIC                  ::
         :::::::::::::::::::::::::::::::::::::::::::::::::::::
         :: total free energy        -137.560737724507 Eh   ::
         ::.................................................::
         :: total energy             -138.214370649730 Eh   ::
         :: zero point energy           0.723199692839 Eh   ::
         :: G(RRHO) w/o ZPVE           -0.069566767616 Eh   ::
         :: G(RRHO) contrib.            0.653632925223 Eh   ::
         :::::::::::::::::::::::::::::::::::::::::::::::::::::

           -------------------------------------------------
          | TOTAL ENERGY             -138.214370649730 Eh   |
          | TOTAL ENTHALPY           -137.446307524171 Eh   |
          | TOTAL FREE ENERGY        -137.560737724507 Eh   |
          | GRADIENT NORM               0.000105945939 Eh/α |
           -------------------------------------------------

 * finished run on 2025/08/24 at 07:55:38.893
