   * xtb version 6.7.1 (edcfbbe) compiled by 'albert@albert-system' on 2024-07-22

   ID    Z sym.   atoms
    1    6 C      1-9, 11-14, 16-31, 33-46, 48-54
    2    7 N      10, 15, 32, 47
    3    1 H      55-92

          program call               : xtb data2507/gas/α-2DMAC-DBP/α-2DMAC-DBP_gas_S0_finalOpt.xtbopt.xyz --gfn 2 --spinpol --tblite --uhf 2 --ohess vtight --parallel 40 --molden --ceasefiles --namespace data2507/gas/α-2DMAC-DBP/α-2DMAC-DBP_gas_T1_preOpt
 * total energy  :  -138.2104289 Eh     change       -0.1991651E-08 Eh
 * total energy  :  -138.2132742 Eh     change       -0.2845317E-02 Eh
 * total energy  :  -138.2140678 Eh     change       -0.7935169E-03 Eh
 * total energy  :  -138.2141778 Eh     change       -0.1100811E-03 Eh
 * total energy  :  -138.2142491 Eh     change       -0.7124229E-04 Eh
 * total energy  :  -138.2142719 Eh     change       -0.2280866E-04 Eh
 * total energy  :  -138.2142958 Eh     change       -0.2391916E-04 Eh
 * total energy  :  -138.2143188 Eh     change       -0.2304043E-04 Eh
 * total energy  :  -138.2143392 Eh     change       -0.2036228E-04 Eh
 * total energy  :  -138.2143473 Eh     change       -0.8072981E-05 Eh
 * total energy  :  -138.2143684 Eh     change       -0.6241115E-06 Eh
 * total energy  :  -138.2143685 Eh     change       -0.1630893E-06 Eh
 * total energy  :  -138.2143688 Eh     change       -0.2418994E-06 Eh
 * total energy  :  -138.2143689 Eh     change       -0.1705891E-06 Eh
 * total energy  :  -138.2143691 Eh     change       -0.1520849E-06 Eh
 * total energy  :  -138.2143694 Eh     change       -0.2553581E-06 Eh
 * total energy  :  -138.2143696 Eh     change       -0.1992807E-06 Eh
 * total energy  :  -138.2143697 Eh     change       -0.1776846E-06 Eh
 * total energy  :  -138.2143698 Eh     change       -0.7590248E-07 Eh
   *** GEOMETRY OPTIMIZATION CONVERGED AFTER 29 ITERATIONS ***

 final structure:
================
92
 xtb: 6.7.1 (edcfbbe)
C            6.83868473661795       -1.68767664299088        0.40713522775746
C            5.59799456633175       -0.91348427870497       -0.07506920695635
C            6.01309891994994        0.43492109470201       -0.69332379785123
C            4.88799121770216       -1.72398311557653       -1.14041655405588
C            5.57978623391875       -2.07879218996889       -2.29125618429524
C            4.97803675193819       -2.76485700561835       -3.32863799322358
C            3.63627900850637       -3.08909285992925       -3.23306193101665
C            2.92739681388608       -2.75201317179191       -2.10056450596347
C            3.54070443385276       -2.09044719048790       -1.03100342229332
N            2.81548078994017       -1.80899027939226        0.12046389068795
C            1.40138761332016       -1.86306935247823        0.08177286619306
C            0.69951471375744       -3.06187330883977        0.02494089841434
C           -0.68134102271134       -3.06519741087867       -0.07136895197400
C           -1.39028564449125       -1.86981593890837       -0.10996545297205
N           -2.80469248757361       -1.82338859507439       -0.14682916370019
C           -3.38190545199027       -1.11599074253855       -1.18968916051467
C           -2.63565198698066       -0.89017371234935       -2.35330807310549
C           -3.15340273135428       -0.16042883497382       -3.39956759394428
C           -4.43921196103385        0.34624812731074       -3.31451112372763
C           -5.19905653203573        0.07976211292291       -2.19114420766109
C           -4.70098608169393       -0.65498380150349       -1.12328260750532
C           -5.59112082834868       -0.94408656595172        0.06625826636077
C           -6.82966382570988       -1.71498823437384       -0.42659858658788
C           -6.01026968803787        0.39251348763141        0.70702581050001
C           -4.87632735033048       -1.76900892823064        1.11723940515403
C           -5.56531088310430       -2.14602058719111        2.26269962277194
C           -4.95935263736621       -2.84631848437080        3.28804485556617
C           -3.61616484375589       -3.16251757898155        3.18594427102854
C           -2.90997078196490       -2.80336686490445        2.05856364672657
C           -3.52742205373462       -2.12721271533725        1.00057151775734
C           -0.71220361998757       -0.63699186015621       -0.06941340962859
N           -1.35685867259610        0.52307546282406       -0.15639811858164
C           -0.70609484027311        1.68319604048861       -0.08323501912925
C           -1.40973325132076        2.92054368877651       -0.20810498682191
C           -2.79100379794584        2.89924469671647       -0.45815793735450
C           -3.49488078817299        4.06718572577657       -0.59534776659296
C           -2.82973432504990        5.28873645485550       -0.48577528139335
C           -1.47675094901762        5.32667610394741       -0.24618935930030
C           -0.72332268053188        4.15259443776877       -0.09969643526339
C            0.70042066322086        4.15496663328358        0.15143358185373
C            1.44743876416413        5.33127632216270        0.31219667529620
C            2.80063623744406        5.29780568855452        0.55123603728248
C            3.47244689521240        4.07866312117019        0.64600615691335
C            2.77494328726906        2.90865349848929        0.49461427546752
C            1.39358014927159        2.92546784259859        0.24473737848109
C            0.69682452087134        1.68591061309303        0.10415512421078
N            1.35416123299298        0.52864753605816        0.16207984758229
C            0.71616131271595       -0.63377198660206        0.05885569531710
C            3.38793661210374       -1.11521231338717        1.17503011562999
C            2.63916935552115       -0.91106759322129        2.34102323326420
C            3.15232312902441       -0.19568256310825        3.39940181033899
C            4.43601921052881        0.31784951547992        3.32418911248924
C            5.19844508167595        0.07261797245188        2.19773815897503
C            4.70497655643529       -0.64719865262643        1.11764741298846
H            6.53558511166802       -2.64168489184575        0.83453443661871
H            7.52173211123961       -1.88130682555480       -0.41494596795022
H            7.37483268010428       -1.12661536415015        1.16728645614010
H            6.67303874876822        0.28472399771486       -1.54341645685625
H            5.13040678264104        0.97247183603174       -1.03507621585217
H            6.53067695081083        1.05211219572197        0.03601673794635
H            6.61927289930062       -1.80527233387233       -2.39018758292417
H            5.54638130403289       -3.02849841814646       -4.20745182495783
H            3.13790947235213       -3.60281330087850       -4.04154289164465
H            1.87865002936057       -2.99551572754175       -2.04714441628596
H            1.24451594916634       -3.99265477130097        0.06404996446333
H           -1.22083039265176       -3.99848352537569       -0.12465172944297
H           -1.63895247887439       -1.29683117635076       -2.42959303993645
H           -2.55434236563863        0.01236328884555       -4.28092433411599
H           -4.85220424534017        0.93198277876065       -4.12151436856309
H           -6.20780671699118        0.46209088271959       -2.14827087416383
H           -6.52371323433259       -2.66093293875605       -0.86960095318068
H           -7.36892402557692       -1.14381636613299       -1.17694987925970
H           -7.51088988198076       -1.92420378681663        0.39316390025066
H           -6.66791980653248        0.22596133983264        1.55585009672241
H           -5.12901366203247        0.92795571865980        1.05572926764031
H           -6.53168594707635        1.01936082103094       -0.01126573853421
H           -6.60594504364420       -1.87899286279276        2.36712048703747
H           -5.52560150403237       -3.12715611571184        4.16287355931146
H           -3.11457430731915       -3.68714608340916        3.98537699752105
H           -1.86011880394274       -3.04088218987982        2.00032193401761
H           -3.27425093760568        1.93850032034743       -0.55136845778541
H           -4.55678924175225        4.04492227911257       -0.79065465233460
H           -3.38130006355365        6.21137297958298       -0.59408844892824
H           -0.99358443879946        6.28838950740784       -0.17505494426672
H            0.95902239612273        6.29113279734677        0.25281023357773
H            3.34718481900522        6.22205401200623        0.67066880395336
H            4.53448608082937        4.05984127968000        0.84096520443790
H            3.26339882781117        1.94946749541917        0.57611333401032
H            1.64419708970324       -1.32328203138632        2.40958204943474
H            2.55134704753936       -0.03952217624015        4.28255904187132
H            4.84542120719627        0.89242231757381        4.14098979140007
H            6.20558493829517        0.45992691432567        2.16235279251427

 projected vibrational frequencies (cm⁻¹)
eigval :       -0.00    -0.00     0.00     0.00     0.00     0.00
eigval :       14.67    15.65    17.90    18.70    23.29    23.58
eigval :       41.17    46.38    64.65    66.70    86.56    90.02
eigval :       92.87    96.27   101.95   105.65   112.86   116.06
eigval :      133.57   133.91   157.48   159.00   169.84   184.49
eigval :      196.09   196.97   199.83   219.00   219.46   227.57
eigval :      234.08   237.74   264.38   272.49   292.00   304.23
eigval :      305.63   312.33   329.51   331.33   334.74   342.99
eigval :      349.02   357.83   376.13   379.15   388.74   390.28
eigval :      391.34   401.96   403.67   407.96   416.63   417.22
eigval :      417.87   423.68   456.28   456.75   465.58   509.48
eigval :      511.39   511.99   514.88   522.25   525.71   533.60
eigval :      536.20   539.01   545.50   547.55   554.15   567.91
eigval :      568.07   583.52   585.27   586.25   597.42   611.24
eigval :      613.76   632.43   639.16   652.49   665.13   673.79
eigval :      675.21   685.30   686.95   690.33   699.71   700.23
eigval :      701.13   721.35   724.55   727.49   766.22   773.27
eigval :      776.58   777.57   778.92   778.96   780.70   823.76
eigval :      826.09   829.31   845.54   848.17   866.67   867.25
eigval :      873.94   875.55   875.62   875.95   904.92   909.52
eigval :      910.45   911.69   914.36   914.69   914.75   915.01
eigval :      916.14   916.55   922.61   922.82   922.83   923.35
eigval :      923.85   924.55   937.92   937.99   957.72   957.73
eigval :     1003.87  1014.59  1014.66  1035.75  1037.60  1076.11
eigval :     1077.34  1077.87  1083.04  1098.47  1099.74  1111.42
eigval :     1112.36  1115.27  1119.09  1119.50  1139.98  1140.28
eigval :     1151.11  1151.49  1156.76  1156.79  1169.53  1175.96
eigval :     1180.33  1181.50  1185.78  1185.83  1186.55  1188.12
eigval :     1195.96  1205.61  1224.94  1236.66  1242.17  1246.47
eigval :     1247.95  1250.15  1257.93  1258.50  1264.28  1264.53
eigval :     1271.70  1288.98  1290.68  1296.33  1296.37  1307.67
eigval :     1316.63  1319.93  1327.25  1330.08  1331.09  1335.50
eigval :     1336.45  1337.48  1347.73  1358.83  1361.43  1390.80
eigval :     1402.24  1402.27  1408.11  1413.39  1419.94  1420.00
eigval :     1430.28  1432.25  1432.89  1434.75  1435.15  1454.90
eigval :     1466.44  1467.89  1467.93  1481.51  1484.91  1486.82
eigval :     1489.39  1489.41  1490.28  1490.30  1500.01  1500.02
eigval :     1503.97  1504.07  1518.47  1521.11  1536.96  1553.43
eigval :     1567.89  1567.98  1581.64  1582.59  1585.40  1587.61
eigval :     1587.68  1594.89  1597.10  1597.74  3027.65  3027.71
eigval :     3029.60  3029.67  3038.97  3038.99  3043.33  3043.37
eigval :     3048.03  3048.10  3053.92  3054.09  3073.22  3073.87
eigval :     3079.89  3079.93  3080.03  3080.12  3083.13  3083.93
eigval :     3084.12  3084.55  3085.58  3085.62  3089.66  3093.63
eigval :     3093.67  3094.88  3096.76  3097.09  3099.20  3099.29
eigval :     3099.91  3100.14  3100.66  3105.73  3111.89  3111.94

   temp. (K)  partition function   enthalpy   heat capacity  entropy
                                   cal/mol     cal/K/mol   cal/K/mol   J/K/mol
 298.15  VIB  0.980E+19            25781.991    166.254    157.571
         ROT  0.395E+08              888.752      2.981     37.743
         INT  0.387E+27            26670.743    169.235    195.314
         TR   0.177E+29             1481.254      4.968     45.476
         TOT                       28151.9973   174.2027   240.7900  1007.4654

       T/K    H(0)-H(T)+PV         H(T)/Eh          T*S/Eh         G(T)/Eh
   ------------------------------------------------------------------------
    298.15    0.448631E-01    0.768094E+00    0.114407E+00    0.653687E+00
   ------------------------------------------------------------------------

         :::::::::::::::::::::::::::::::::::::::::::::::::::::
         ::                  THERMODYNAMIC                  ::
         :::::::::::::::::::::::::::::::::::::::::::::::::::::
         :: total free energy        -137.560682687026 Eh   ::
         ::.................................................::
         :: total energy             -138.214369900466 Eh   ::
         :: zero point energy           0.723231250653 Eh   ::
         :: G(RRHO) w/o ZPVE           -0.069544037213 Eh   ::
         :: G(RRHO) contrib.            0.653687213439 Eh   ::
         :::::::::::::::::::::::::::::::::::::::::::::::::::::

           -------------------------------------------------
          | TOTAL ENERGY             -138.214369900466 Eh   |
          | TOTAL ENTHALPY           -137.446275586419 Eh   |
          | TOTAL FREE ENERGY        -137.560682687026 Eh   |
          | GRADIENT NORM               0.000064617784 Eh/α |
           -------------------------------------------------

 * finished run on 2025/08/24 at 07:48:59.615
