   * xtb version 6.7.1 (edcfbbe) compiled by 'albert@albert-system' on 2024-07-22

   ID    Z sym.   atoms
    1    6 C      1-9, 11-14, 16-31, 33-46, 48-54
    2    7 N      10, 15, 32, 47
    3    1 H      55-92

          program call               : xtb data2507/gas/α-2DMAC-DBP/α-2DMAC-DBP_gas_S0_crest.xyz --gfn 2 --ohess vtight --parallel 40 --molden --ceasefiles --namespace data2507/gas/α-2DMAC-DBP/α-2DMAC-DBP_gas_S0_finalOpt
          :  Hamiltonian                  GFN2-xTB          :
 * total energy  :  -138.2510166 Eh     change       -0.3753144E-08 Eh
 * total energy  :  -138.2510173 Eh     change       -0.6890993E-06 Eh
 * total energy  :  -138.2510180 Eh     change       -0.7151602E-06 Eh
 * total energy  :  -138.2510194 Eh     change       -0.1402400E-05 Eh
 * total energy  :  -138.2510206 Eh     change       -0.1193197E-05 Eh
 * total energy  :  -138.2510212 Eh     change       -0.5637617E-06 Eh
 * total energy  :  -138.2510217 Eh     change       -0.4624507E-06 Eh
 * total energy  :  -138.2510222 Eh     change       -0.5809027E-06 Eh
 * total energy  :  -138.2510227 Eh     change       -0.4178251E-06 Eh
 * total energy  :  -138.2510228 Eh     change       -0.1535983E-06 Eh
 * total energy  :  -138.2510228 Eh     change       -0.2409791E-07 Eh
   *** GEOMETRY OPTIMIZATION CONVERGED AFTER 11 ITERATIONS ***

 final structure:
================
92
 xtb: 6.7.1 (edcfbbe)
C            6.86697613830163       -1.67565077605894        0.40463877151231
C            5.61936589824206       -0.90849975048995       -0.07033977692472
C            6.02255120061327        0.44810976246923       -0.67704827527940
C            4.91640954124193       -1.71797529001236       -1.14337160771489
C            5.61791222418656       -2.07022135492573       -2.28898685346461
C            5.02725646268382       -2.75631634041521       -3.33289504160980
C            3.68668824900977       -3.08393171106601       -3.24808807560929
C            2.96720676425809       -2.74692192776178       -2.12116019464058
C            3.56844183620008       -2.08219921197564       -1.04858698067381
N            2.82965215476732       -1.78010370458861        0.09068043844080
C            1.41995371907535       -1.82606972992308        0.04479219944183
C            0.71067689960953       -3.00150674150359        0.01247797054551
C           -0.69145041608536       -3.00563046229214       -0.05182354045567
C           -1.40850281158962       -1.83448280943711       -0.06769008123833
N           -2.81828563727084       -1.79678636134363       -0.11277699555744
C           -3.39801428591949       -1.11898350247303       -1.17918633309546
C           -2.65373985201462       -0.92931762918608       -2.34744766252086
C           -3.17230997908434       -0.22925964639814       -3.41459024351954
C           -4.45735183869387        0.27944521564411       -3.34317742414366
C           -5.21656649855814        0.04031875011438       -2.21384691842228
C           -4.71771666866527       -0.66706149501057       -1.12726538703571
C           -5.61048556325156       -0.93700586703564        0.06664679461863
C           -6.86025700820512       -1.69270973187082       -0.42082826341963
C           -6.01036439714604        0.40736992043054        0.70210033455811
C           -4.90568304257370       -1.76870289473962        1.12136132159154
C           -5.60673011138944       -2.14882120054968        2.25831772027316
C           -5.01430729026947       -2.85553814089251        3.28735481404485
C           -3.67213729471386       -3.17496171560913        3.19706073959879
C           -2.95299504017175       -2.81021890297703        2.07856634416224
C           -3.55620538265014       -2.12560677793996        1.01972631840595
C           -0.70837710656948       -0.59607884010385       -0.03510989454910
N           -1.39193872051374        0.55267741025430       -0.08091105771243
C           -0.71593144477671        1.68343174702968       -0.05255854332127
C           -1.43021064182375        2.93280968849905       -0.17173303001562
C           -2.80940383675037        2.91123010555264       -0.39656228958564
C           -3.51206797179687        4.08485688652277       -0.53773637160449
C           -2.83698451535069        5.29802633899713       -0.46050653800226
C           -1.47600483606897        5.33077062567906       -0.24493136785249
C           -0.73263425456996        4.15475162947048       -0.09243249082630
C            0.70705357722505        4.15802488427052        0.13580212935961
C            1.44336589872351        5.33700955188678        0.29927169718134
C            2.80498993303996        5.31053838666009        0.51161650778045
C            3.48777672023037        4.10087754085195        0.57497855002068
C            2.79199358870897        2.92439253875163        0.42380348224452
C            1.41224753590441        2.93967640226577        0.20188875238017
C            0.70558563911498        1.68717710403145        0.07065610027876
N            1.38852189950911        0.56037086388301        0.08721860452868
C            0.71201793518249       -0.59195178222147        0.02789989766347
C            3.40534995231287       -1.11793949896957        1.16892319915811
C            2.65846371275970       -0.94890473174039        2.33867439790170
C            3.17392585998296       -0.26628222388217        3.41857735219440
C            4.45863505985155        0.24468124654327        3.35872610520541
C            5.22019319801003        0.02633139739287        2.22674853902180
C            4.72410281289545       -0.66206514698967        1.12683154154179
H            6.57124224615513       -2.63233808133916        0.83122628149053
H            7.54861696061488       -1.86385717459381       -0.41991025913228
H            7.40371446510071       -1.11361841432333        1.16365828315990
H            6.69907084228100        0.31149709449019       -1.51661336281858
H            5.13685194830112        0.97169807148506       -1.03253301881006
H            6.51746737456042        1.07094972464794        0.06356412587291
H            6.65746278117165       -1.79369868496770       -2.37944792572246
H            5.60380901255059       -3.01795699588707       -4.20701581081746
H            3.19563413209722       -3.60033477965378       -4.05958390440793
H            1.91807577978017       -2.99342082969780       -2.07966922043738
H            1.23959298640426       -3.94284679002540        0.03831509159764
H           -1.21401039064356       -3.95001878425832       -0.09169136807706
H           -1.65523390235350       -1.33567685619120       -2.41320815784396
H           -2.57411320899423       -0.08403518642287       -4.30189985911749
H           -4.87075455197097        0.84296575675673       -4.16584114043174
H           -6.22586758378514        0.42270531250104       -2.18065586900781
H           -6.56734732282208       -2.64355920292565       -0.86210529194393
H           -7.39486494178660       -1.11735774021932       -1.17125944189404
H           -7.54319122858013       -1.89141397211898        0.40012413626974
H           -6.68222214897160        0.25394162034724        1.54254607529451
H           -5.12277826342242        0.92403918786608        1.06300053515042
H           -6.50932785843696        1.04450410646539       -0.02352115251735
H           -6.64740640119110       -1.87843182805796        2.35393433781736
H           -5.59073317086660       -3.13918910821882        4.15466287789667
H           -3.17950321840411       -3.70644794780946        3.99778773621154
H           -1.90258318757644       -3.05042067330547        2.03343283047417
H           -3.29552894300359        1.95076039546209       -0.46893385590648
H           -4.57703392577782        4.06580933419380       -0.71340783001003
H           -3.38064588902439        6.22453252108648       -0.57516391472704
H           -0.98677000481929        6.29080459845226       -0.20258549074987
H            0.94803072360226        6.29434269729663        0.26817365532267
H            3.34312535068831        6.23918466394431        0.63471517877403
H            4.55334391910378        4.08672841610216        0.74747043472324
H            3.28414387704918        1.96621011945009        0.48523013199103
H            1.66043150353352       -1.35770394444350        2.39574359912453
H            2.57359378978117       -0.13674583801681        4.30688085384317
H            4.87001338914089        0.79377419495637        4.19209542314216
H            6.22935673144711        0.40974787315534        2.20248538485820

          :  Hamiltonian                  GFN2-xTB          :
         :: gradient norm              0.000075030084 Eh/a0 ::
         :: HOMO-LUMO gap              0.955140337227 eV    ::
         :: SCC energy              -140.754673618226 Eh    ::
         :: -> dispersion             -0.143539609960 Eh    ::
         :: repulsion energy           2.503650782541 Eh    ::

    * Orbital Energies and Occupations

         #    Occupation            Energy/Eh            Energy/eV
      -------------------------------------------------------------
         1        2.0000           -0.6800347             -18.5047
       ...           ...                  ...                  ...
       117        2.0000           -0.4033804             -10.9765
       118        2.0000           -0.3993293             -10.8663
       119        2.0000           -0.3975793             -10.8187
       120        2.0000           -0.3975268             -10.8173
       121        2.0000           -0.3946342             -10.7385
       122        2.0000           -0.3934872             -10.7073
       123        2.0000           -0.3932124             -10.6999
       124        2.0000           -0.3898625             -10.6087
       125        2.0000           -0.3881129             -10.5611
       126        2.0000           -0.3880338             -10.5589
       127        2.0000           -0.3559971              -9.6872
       128        2.0000           -0.3454501              -9.4002
       129        2.0000           -0.3385221              -9.2117 (HOMO)
       130                         -0.3034214              -8.2565 (LUMO)
       131                         -0.2679290              -7.2907
       132                         -0.2545579              -6.9269
       133                         -0.2304786              -6.2716
       134                         -0.2209835              -6.0133
       135                         -0.2193013              -5.9675
       136                         -0.2191750              -5.9641
       137                         -0.2149484              -5.8490
       138                         -0.2147917              -5.8448
       139                         -0.2137017              -5.8151
       140                         -0.2132334              -5.8024
       ...                                ...                  ...
       254                          0.7148211              19.4513
      -------------------------------------------------------------
                  HL-Gap            0.0351008 Eh            0.9551 eV

     #   Z          covCN         q      C6AA      α(0)
     1   6 C        3.761    -0.104    22.528     6.766
     2   6 C        3.909     0.022    20.143     6.379
     3   6 C        3.761    -0.101    22.483     6.759
     4   6 C        2.980    -0.012    28.299     8.726
     5   6 C        2.928    -0.036    28.898     8.816
     6   6 C        2.917    -0.044    29.100     8.846
     7   6 C        2.920    -0.033    28.823     8.804
     8   6 C        2.924    -0.059    29.463     8.901
     9   6 C        2.926     0.060    26.656     8.467
    10   7 N        2.753    -0.057    22.338     7.020
    11   6 C        2.928     0.055    26.776     8.486
    12   6 C        2.916    -0.046    29.133     8.851
    13   6 C        2.916    -0.046    29.136     8.851
    14   6 C        2.928     0.055    26.776     8.486
    15   7 N        2.753    -0.057    22.336     7.019
    16   6 C        2.935     0.065    26.534     8.448
    17   6 C        2.926    -0.049    29.225     8.866
    18   6 C        2.920    -0.032    28.805     8.801
    19   6 C        2.918    -0.043    29.076     8.842
    20   6 C        2.928    -0.036    28.903     8.817
    21   6 C        2.980    -0.011    28.275     8.722
    22   6 C        3.909     0.022    20.143     6.379
    23   6 C        3.761    -0.104    22.529     6.766
    24   6 C        3.761    -0.101    22.482     6.759
    25   6 C        2.980    -0.012    28.298     8.726
    26   6 C        2.928    -0.036    28.898     8.816
    27   6 C        2.917    -0.044    29.099     8.846
    28   6 C        2.920    -0.033    28.823     8.804
    29   6 C        2.924    -0.059    29.464     8.902
    30   6 C        2.926     0.060    26.657     8.467
    31   6 C        2.970     0.072    26.380     8.425
    32   7 N        1.849    -0.237    27.057     7.709
    33   6 C        2.964     0.086    26.086     8.378
    34   6 C        2.989    -0.001    28.049     8.688
    35   6 C        2.924    -0.025    28.639     8.776
    36   6 C        2.917    -0.028    28.690     8.783
    37   6 C        2.918    -0.026    28.663     8.779
    38   6 C        2.922    -0.033    28.833     8.806
    39   6 C        2.976     0.007    27.851     8.657
    40   6 C        2.976     0.007    27.850     8.657
    41   6 C        2.922    -0.033    28.833     8.806
    42   6 C        2.918    -0.026    28.663     8.779
    43   6 C        2.917    -0.028    28.690     8.783
    44   6 C        2.924    -0.025    28.638     8.776
    45   6 C        2.989    -0.001    28.048     8.688
    46   6 C        2.964     0.086    26.086     8.377
    47   7 N        1.849    -0.237    27.056     7.709
    48   6 C        2.970     0.072    26.380     8.425
    49   6 C        2.935     0.065    26.534     8.448
    50   6 C        2.926    -0.049    29.228     8.866
    51   6 C        2.920    -0.032    28.806     8.801
    52   6 C        2.918    -0.043    29.077     8.843
    53   6 C        2.928    -0.036    28.903     8.817
    54   6 C        2.980    -0.011    28.276     8.723
    55   1 H        0.925     0.032     2.562     2.503
    56   1 H        0.925     0.039     2.464     2.455
    57   1 H        0.925     0.039     2.461     2.453
    58   1 H        0.925     0.038     2.477     2.461
    59   1 H        0.925     0.034     2.529     2.487
    60   1 H        0.925     0.038     2.480     2.463
    61   1 H        0.926     0.030     2.585     2.514
    62   1 H        0.926     0.026     2.648     2.545
    63   1 H        0.926     0.027     2.632     2.537
    64   1 H        0.926     0.025     2.665     2.553
    65   1 H        0.926     0.051     2.302     2.372
    66   1 H        0.926     0.051     2.301     2.372
    67   1 H        0.926     0.019     2.749     2.593
    68   1 H        0.926     0.026     2.644     2.543
    69   1 H        0.926     0.025     2.655     2.548
    70   1 H        0.926     0.029     2.601     2.522
    71   1 H        0.925     0.032     2.561     2.503
    72   1 H        0.925     0.039     2.461     2.453
    73   1 H        0.925     0.039     2.464     2.455
    74   1 H        0.925     0.038     2.477     2.461
    75   1 H        0.925     0.034     2.529     2.487
    76   1 H        0.925     0.038     2.480     2.463
    77   1 H        0.926     0.030     2.585     2.514
    78   1 H        0.926     0.026     2.647     2.544
    79   1 H        0.926     0.027     2.631     2.537
    80   1 H        0.926     0.025     2.662     2.551
    81   1 H        0.926     0.060     2.199     2.319
    82   1 H        0.926     0.037     2.485     2.465
    83   1 H        0.926     0.036     2.508     2.477
    84   1 H        0.926     0.037     2.491     2.468
    85   1 H        0.926     0.037     2.490     2.468
    86   1 H        0.926     0.036     2.508     2.477
    87   1 H        0.926     0.037     2.484     2.465
    88   1 H        0.926     0.060     2.199     2.319
    89   1 H        0.926     0.019     2.749     2.593
    90   1 H        0.926     0.026     2.645     2.543
    91   1 H        0.926     0.025     2.655     2.548
    92   1 H        0.926     0.029     2.601     2.522

molecular dipole:
                 x           y           z       tot (Debye)
 q only:       -0.007       0.672       0.003
   full:       -0.007       0.739       0.003       1.879

 projected vibrational frequencies (cm⁻¹)
eigval :       -0.00    -0.00    -0.00     0.00     0.00     0.00
eigval :       13.92    14.80    16.81    18.17    23.50    23.59
eigval :       38.72    44.52    64.26    65.48    84.77    87.54
eigval :       89.14    94.70   103.88   108.23   113.72   114.15
eigval :      132.06   133.16   156.34   160.26   163.53   197.59
eigval :      199.43   200.22   201.20   220.59   222.01   228.62
eigval :      233.16   237.69   269.37   270.59   285.19   303.03
eigval :      305.29   307.32   330.45   334.03   334.41   344.55
eigval :      349.37   356.62   375.97   378.15   387.78   392.08
eigval :      393.55   397.80   401.08   404.00   412.16   414.82
eigval :      417.33   425.45   454.77   457.84   468.09   501.43
eigval :      505.17   513.91   514.63   514.92   527.38   539.43
eigval :      540.18   540.35   547.94   548.38   558.22   569.61
eigval :      571.26   584.93   585.94   587.61   602.86   616.12
eigval :      616.91   648.79   654.41   668.83   680.13   681.02
eigval :      683.97   685.46   687.67   696.88   697.03   703.90
eigval :      721.73   726.04   739.46   768.56   769.84   772.55
eigval :      776.63   777.50   779.90   780.11   790.27   825.22
eigval :      825.47   845.83   848.46   854.68   866.80   872.00
eigval :      872.81   872.92   875.58   881.33   910.66   912.10
eigval :      912.57   913.71   913.97   915.06   918.64   919.25
eigval :      921.93   921.95   921.98   922.61   927.26   930.36
eigval :      930.64   931.07   938.42   938.45   957.19   957.22
eigval :     1010.75  1014.80  1014.88  1040.09  1058.39  1074.09
eigval :     1077.69  1078.05  1085.41  1102.58  1108.46  1111.05
eigval :     1114.03  1115.08  1121.03  1121.43  1141.00  1141.27
eigval :     1147.76  1150.60  1159.95  1159.97  1168.45  1178.36
eigval :     1181.11  1181.59  1186.85  1187.09  1187.66  1189.61
eigval :     1196.11  1209.09  1235.37  1240.23  1243.81  1248.59
eigval :     1250.48  1251.40  1259.65  1265.29  1268.10  1278.73
eigval :     1283.37  1289.43  1295.22  1296.14  1296.71  1320.94
eigval :     1322.45  1323.84  1328.63  1331.44  1333.82  1336.28
eigval :     1339.20  1341.43  1351.24  1365.30  1385.65  1402.22
eigval :     1402.26  1420.55  1420.57  1427.89  1428.41  1431.14
eigval :     1436.53  1437.38  1440.76  1440.99  1461.22  1476.90
eigval :     1478.45  1479.10  1489.14  1490.54  1490.61  1491.13
eigval :     1491.62  1493.42  1497.05  1501.54  1501.67  1505.94
eigval :     1505.99  1511.88  1534.70  1555.23  1568.59  1574.07
eigval :     1575.72  1579.36  1586.52  1591.17  1591.36  1593.40
eigval :     1593.86  1598.88  1602.17  1602.97  3026.43  3026.49
eigval :     3029.11  3029.30  3035.72  3035.93  3042.15  3042.48
eigval :     3044.62  3044.91  3053.40  3053.87  3074.77  3074.78
eigval :     3076.94  3077.37  3077.44  3077.71  3078.43  3078.45
eigval :     3083.07  3083.28  3085.84  3086.24  3086.30  3089.61
eigval :     3090.57  3094.75  3094.89  3095.48  3095.60  3095.86
eigval :     3099.17  3105.17  3105.45  3108.07  3108.37  3109.29

   temp. (K)  partition function   enthalpy   heat capacity  entropy
                                   cal/mol     cal/K/mol   cal/K/mol   J/K/mol
 298.15  VIB  0.131E+20            25719.772    165.375    157.481
         ROT  0.399E+08              888.752      2.981     37.761
         INT  0.521E+27            26608.524    168.356    195.242
         TR   0.177E+29             1481.254      4.968     45.476
         TOT                       28089.7784   173.3242   240.7182  1007.1648

       T/K    H(0)-H(T)+PV         H(T)/Eh          T*S/Eh         G(T)/Eh
   ------------------------------------------------------------------------
    298.15    0.447639E-01    0.769923E+00    0.114373E+00    0.655550E+00
   ------------------------------------------------------------------------

         :::::::::::::::::::::::::::::::::::::::::::::::::::::
         ::                  THERMODYNAMIC                  ::
         :::::::::::::::::::::::::::::::::::::::::::::::::::::
         :: total free energy        -137.595472885301 Eh   ::
         ::.................................................::
         :: total energy             -138.251022835677 Eh   ::
         :: zero point energy           0.725159002166 Eh   ::
         :: G(RRHO) w/o ZPVE           -0.069609051790 Eh   ::
         :: G(RRHO) contrib.            0.655549950376 Eh   ::
         :::::::::::::::::::::::::::::::::::::::::::::::::::::

           -------------------------------------------------
          | TOTAL ENERGY             -138.251022835677 Eh   |
          | TOTAL ENTHALPY           -137.481099922271 Eh   |
          | TOTAL FREE ENERGY        -137.595472885301 Eh   |
          | GRADIENT NORM               0.000075030054 Eh/α |
          | HOMO-LUMO GAP               0.955140511278 eV   |
           -------------------------------------------------

 * finished run on 2025/08/24 at 07:48:48.569
