   * xtb version 6.7.1 (edcfbbe) compiled by 'albert@albert-system' on 2024-07-22

   ID    Z sym.   atoms
    1    6 C      1-9, 11-14, 16-31, 33-46, 48-54
    2    7 N      10, 15, 32, 47
    3    1 H      55-92

          program call               : xtb data2507/gas/α-2DMAC-DBP/α-2DMAC-DBP.xyz --gfn 2 --ohess vtight --parallel 40 --molden --ceasefiles --namespace data2507/gas/α-2DMAC-DBP/α-2DMAC-DBP_gas_S0_preOpt
          :  Hamiltonian                  GFN2-xTB          :
 * total energy  :  -138.2089936 Eh     change       -0.4613440E-08 Eh
 * total energy  :  -138.2360478 Eh     change       -0.2705413E-01 Eh
 * total energy  :  -138.2449899 Eh     change       -0.8942101E-02 Eh
 * total energy  :  -138.2464174 Eh     change       -0.1427527E-02 Eh
 * total energy  :  -138.2471233 Eh     change       -0.7058909E-03 Eh
 * total energy  :  -138.2474263 Eh     change       -0.3030207E-03 Eh
 * total energy  :  -138.2475790 Eh     change       -0.1527121E-03 Eh
 * total energy  :  -138.2476683 Eh     change       -0.8932463E-04 Eh
 * total energy  :  -138.2477220 Eh     change       -0.5367992E-04 Eh
 * total energy  :  -138.2477657 Eh     change       -0.4370878E-04 Eh
 * total energy  :  -138.2510193 Eh     change       -0.1252887E-05 Eh
 * total energy  :  -138.2510204 Eh     change       -0.1090928E-05 Eh
 * total energy  :  -138.2510212 Eh     change       -0.7952112E-06 Eh
 * total energy  :  -138.2510218 Eh     change       -0.5661263E-06 Eh
 * total energy  :  -138.2510223 Eh     change       -0.4907953E-06 Eh
 * total energy  :  -138.2510226 Eh     change       -0.3524897E-06 Eh
 * total energy  :  -138.2510228 Eh     change       -0.1992092E-06 Eh
 * total energy  :  -138.2510230 Eh     change       -0.1192395E-06 Eh
 * total energy  :  -138.2510230 Eh     change       -0.8613500E-07 Eh
   *** GEOMETRY OPTIMIZATION CONVERGED AFTER 170 ITERATIONS ***

 final structure:
================
92
 xtb: 6.7.1 (edcfbbe)
C            6.87117273628790       -1.67829652248440        0.24487276513278
C            5.61244961297762       -0.91421330823909       -0.20510178622768
C            6.00086674489370        0.43788137442348       -0.83121186958612
C            4.88341584654252       -1.73106743104225       -1.25490050544887
C            5.55716272178789       -2.09284189712817       -2.41412490385240
C            4.94114460488647       -2.78598148654973       -3.43853443292116
C            3.60250888179833       -3.11088748463250       -3.31965951275467
C            2.91029757336620       -2.76440279107878       -2.17860472068763
C            3.53764817795573       -2.09278791322756       -1.12547528765538
N            2.82656160795997       -1.78152544867485        0.02887317589581
C            1.41610966007991       -1.82455052627981        0.01693100737352
C            0.70357391417671       -2.99845317642547        0.00900973785123
C           -0.69977629723251       -2.99954800627395       -0.02044954912078
C           -1.41407571031561       -1.82675118426385       -0.02623477712112
N           -2.82469257609610       -1.78567954232586       -0.03602941516778
C           -3.42945455191130       -1.11793528380448       -1.09473845906058
C           -2.71398728875662       -0.94202580296017       -2.28295525249041
C           -3.25864482984599       -0.25454074116721       -3.34529210708649
C           -4.54168091777504        0.25497266228790       -3.24854107517298
C           -5.27252344319156        0.03049489432614       -2.09766789075201
C           -4.74686540901488       -0.66328428573320       -1.01499955317666
C           -5.60941216963537       -0.91631256247541        0.20461054437164
C           -6.86996150719341       -1.68016897766639       -0.24058091074532
C           -5.99515661468183        0.43692377610069        0.82992970223662
C           -4.87792215789771       -1.73216002500172        1.25349012235631
C           -5.54848372302955       -2.09170912512554        2.41525206724829
C           -4.93004106702608       -2.78416280394566        3.43866962122422
C           -3.59222048585250       -3.11100744652524        3.31597245003269
C           -2.90312201653516       -2.76663470483698        2.17240022703503
C           -3.53286441946539       -2.09519572265627        1.12059800974468
C           -0.71071009466032       -0.58993399602416       -0.01822921291622
N           -1.39285188622720        0.56004765992903       -0.05325152005915
C           -0.71396623626124        1.68939096675494       -0.04518785339338
C           -1.42838210623428        2.93994281596322       -0.15024090593523
C           -2.81284723470465        2.92060049559112       -0.34011194367893
C           -3.51681298972431        4.09531984148543       -0.46473013810631
C           -2.83776364162931        5.30733023942067       -0.40624269400002
C           -1.47162136696624        5.33783665773776       -0.22585096825914
C           -0.72671857595610        4.16065895391914       -0.09069203702138
C            0.71819943627555        4.16151731627785        0.10172038438056
C            1.46077384502628        5.33939246469503        0.24341871702518
C            2.82697902791435        5.31058291096362        0.42361519195680
C            3.50845657728611        4.09961576637107        0.47503251125901
C            2.80682031388730        2.92421268482094        0.34388698823960
C            1.42224969351766        2.94185251900449        0.15455939468251
C            0.71009409783965        1.69046878045085        0.04415412588767
N            1.39092529490990        0.56226837982664        0.04837693866572
C            0.71076177341165       -0.58879377742219        0.01052468035756
C            3.42899320433558       -1.11340453586231        1.08872549485678
C            2.71100041183490       -0.93666127792083        2.27531289188485
C            3.25300318232813       -0.24762106155962        3.33799285672660
C            4.53599374382376        0.26242321126957        3.24344879819623
C            5.26962712695269        0.03638371429050        2.09467390018022
C            4.74663583335292       -0.65895729964714        1.01170631113405
H            6.58591523584529       -2.63245774350530        0.68403076261209
H            7.53330793685981       -1.87126845767948       -0.59431680688990
H            7.42547957933853       -1.11167781632378        0.98765650076155
H            6.65571299913780        0.29491523868640       -1.68675093723970
H            5.10676467594473        0.95975773962281       -1.16766846079146
H            6.51487123513508        1.06538307702991       -0.10773506953210
H            6.59467387875121       -1.81866186306385       -2.53114086540266
H            5.49661185011171       -3.05522014817088       -4.32392672459274
H            3.09168569783484       -3.63240848969891       -4.11552805880353
H            1.86204866559215       -3.00875306561481       -2.11062243264081
H            1.23078199044455       -3.94091478125625        0.02788725139135
H           -1.22554608795693       -3.94279220014092       -0.04028976330243
H           -1.71737716580693       -1.34937511510519       -2.36839310200951
H           -2.68235397489771       -0.11991624864091       -4.24863149616831
H           -4.97555961151511        0.80791629306420       -4.06783596333944
H           -6.28077789084154        0.41336166673798       -2.04436002973558
H           -6.58663518103489       -2.63490610757072       -0.67973012908860
H           -7.42637310588009       -1.11395782784338       -0.98209751389142
H           -7.52948181747154       -1.87197853330670        0.60093396630064
H           -6.64893773603214        0.29565579731583        1.68656624126620
H           -5.09990852184203        0.95798251285977        1.16458646770161
H           -6.50940789341152        1.06435870766295        0.10656348446255
H           -6.58533426375101       -1.81626070198771        2.53511679969723
H           -5.48303073528312       -3.05150753917550        4.32618490630638
H           -3.07960093345324       -3.63230723651012        4.11082892036981
H           -1.85544054427214       -3.01254485916166        2.10127746999050
H           -3.30229299820405        1.96086103312154       -0.39863102664746
H           -4.58599351139216        4.07803632832682       -0.61284016828491
H           -3.38253116040230        6.23469496944162       -0.50795817240548
H           -0.97976371166160        6.29703489790809       -0.19730819794108
H            0.96699775758972        6.29775219544965        0.22032109223140
H            3.36989170166957        6.23843581049455        0.53062919586967
H            4.57769201604220        4.08362022578254        0.62285744606904
H            3.29823130709835        1.96515726971312        0.39688563376073
H            1.71446208926114       -1.34447605318775        2.35926807499828
H            2.67465108391993       -0.11219210228792        4.23989285071494
H            4.96772401952258        0.81677507234183        4.06292304479682
H            6.27797379744249        0.41925711778544        2.04323347586033

          :  Hamiltonian                  GFN2-xTB          :
         :: gradient norm              0.000026803087 Eh/a0 ::
         :: HOMO-LUMO gap              0.954402325635 eV    ::
         :: SCC energy              -140.754712322359 Eh    ::
         :: -> dispersion             -0.143519661777 Eh    ::
         :: repulsion energy           2.503689272607 Eh    ::

    * Orbital Energies and Occupations

         #    Occupation            Energy/Eh            Energy/eV
      -------------------------------------------------------------
         1        2.0000           -0.6800824             -18.5060
       ...           ...                  ...                  ...
       117        2.0000           -0.4033679             -10.9762
       118        2.0000           -0.3993506             -10.8669
       119        2.0000           -0.3975800             -10.8187
       120        2.0000           -0.3975246             -10.8172
       121        2.0000           -0.3946630             -10.7393
       122        2.0000           -0.3934782             -10.7071
       123        2.0000           -0.3932193             -10.7000
       124        2.0000           -0.3898894             -10.6094
       125        2.0000           -0.3880950             -10.5606
       126        2.0000           -0.3880467             -10.5593
       127        2.0000           -0.3560438              -9.6884
       128        2.0000           -0.3454187              -9.3993
       129        2.0000           -0.3385468              -9.2123 (HOMO)
       130                         -0.3034732              -8.2579 (LUMO)
       131                         -0.2679694              -7.2918
       132                         -0.2545916              -6.9278
       133                         -0.2305070              -6.2724
       134                         -0.2210243              -6.0144
       135                         -0.2192754              -5.9668
       136                         -0.2191660              -5.9638
       137                         -0.2149300              -5.8485
       138                         -0.2147904              -5.8447
       139                         -0.2136886              -5.8148
       140                         -0.2132302              -5.8023
       ...                                ...                  ...
       254                          0.7147912              19.4505
      -------------------------------------------------------------
                  HL-Gap            0.0350736 Eh            0.9544 eV

     #   Z          covCN         q      C6AA      α(0)
     1   6 C        3.761    -0.104    22.529     6.766
     2   6 C        3.909     0.022    20.143     6.379
     3   6 C        3.761    -0.101    22.482     6.759
     4   6 C        2.980    -0.012    28.299     8.726
     5   6 C        2.928    -0.036    28.898     8.816
     6   6 C        2.917    -0.044    29.099     8.846
     7   6 C        2.920    -0.033    28.823     8.804
     8   6 C        2.924    -0.059    29.463     8.901
     9   6 C        2.926     0.060    26.656     8.467
    10   7 N        2.753    -0.057    22.338     7.020
    11   6 C        2.928     0.055    26.774     8.486
    12   6 C        2.916    -0.046    29.134     8.851
    13   6 C        2.916    -0.046    29.133     8.851
    14   6 C        2.928     0.055    26.774     8.486
    15   7 N        2.753    -0.057    22.341     7.020
    16   6 C        2.935     0.065    26.534     8.448
    17   6 C        2.926    -0.049    29.228     8.866
    18   6 C        2.920    -0.032    28.806     8.801
    19   6 C        2.918    -0.043    29.077     8.843
    20   6 C        2.928    -0.036    28.903     8.817
    21   6 C        2.980    -0.011    28.276     8.722
    22   6 C        3.909     0.022    20.143     6.379
    23   6 C        3.761    -0.104    22.529     6.766
    24   6 C        3.761    -0.101    22.483     6.759
    25   6 C        2.980    -0.012    28.298     8.726
    26   6 C        2.928    -0.036    28.898     8.816
    27   6 C        2.917    -0.044    29.100     8.846
    28   6 C        2.920    -0.033    28.823     8.804
    29   6 C        2.924    -0.059    29.463     8.901
    30   6 C        2.926     0.060    26.656     8.467
    31   6 C        2.970     0.072    26.380     8.425
    32   7 N        1.849    -0.237    27.056     7.709
    33   6 C        2.964     0.086    26.086     8.377
    34   6 C        2.990    -0.001    28.049     8.688
    35   6 C        2.924    -0.025    28.639     8.776
    36   6 C        2.917    -0.028    28.690     8.783
    37   6 C        2.918    -0.026    28.663     8.779
    38   6 C        2.922    -0.033    28.833     8.806
    39   6 C        2.976     0.007    27.850     8.657
    40   6 C        2.976     0.007    27.850     8.657
    41   6 C        2.922    -0.033    28.833     8.806
    42   6 C        2.918    -0.026    28.663     8.779
    43   6 C        2.917    -0.028    28.690     8.783
    44   6 C        2.924    -0.025    28.639     8.776
    45   6 C        2.989    -0.001    28.049     8.688
    46   6 C        2.964     0.086    26.086     8.377
    47   7 N        1.849    -0.237    27.056     7.709
    48   6 C        2.970     0.072    26.380     8.425
    49   6 C        2.935     0.065    26.534     8.448
    50   6 C        2.926    -0.049    29.227     8.866
    51   6 C        2.920    -0.032    28.805     8.801
    52   6 C        2.918    -0.043    29.077     8.843
    53   6 C        2.928    -0.036    28.903     8.817
    54   6 C        2.980    -0.011    28.276     8.722
    55   1 H        0.925     0.032     2.562     2.503
    56   1 H        0.925     0.039     2.464     2.455
    57   1 H        0.925     0.039     2.461     2.453
    58   1 H        0.925     0.038     2.477     2.461
    59   1 H        0.925     0.034     2.529     2.487
    60   1 H        0.925     0.038     2.480     2.463
    61   1 H        0.926     0.030     2.585     2.514
    62   1 H        0.926     0.026     2.647     2.544
    63   1 H        0.926     0.027     2.632     2.537
    64   1 H        0.926     0.025     2.664     2.553
    65   1 H        0.926     0.052     2.301     2.372
    66   1 H        0.926     0.052     2.301     2.372
    67   1 H        0.926     0.019     2.749     2.593
    68   1 H        0.926     0.026     2.645     2.543
    69   1 H        0.926     0.025     2.655     2.548
    70   1 H        0.926     0.029     2.601     2.522
    71   1 H        0.925     0.032     2.562     2.503
    72   1 H        0.925     0.039     2.461     2.453
    73   1 H        0.925     0.039     2.464     2.455
    74   1 H        0.925     0.038     2.477     2.461
    75   1 H        0.925     0.034     2.529     2.487
    76   1 H        0.925     0.038     2.480     2.463
    77   1 H        0.926     0.030     2.585     2.514
    78   1 H        0.926     0.026     2.647     2.544
    79   1 H        0.926     0.027     2.632     2.537
    80   1 H        0.926     0.025     2.665     2.553
    81   1 H        0.926     0.060     2.199     2.319
    82   1 H        0.926     0.037     2.484     2.465
    83   1 H        0.926     0.036     2.508     2.477
    84   1 H        0.926     0.037     2.490     2.468
    85   1 H        0.926     0.037     2.490     2.468
    86   1 H        0.926     0.036     2.508     2.477
    87   1 H        0.926     0.037     2.484     2.465
    88   1 H        0.926     0.060     2.199     2.319
    89   1 H        0.926     0.019     2.750     2.593
    90   1 H        0.926     0.026     2.645     2.543
    91   1 H        0.926     0.025     2.655     2.548
    92   1 H        0.926     0.029     2.601     2.522

molecular dipole:
                 x           y           z       tot (Debye)
 q only:        0.001       0.673       0.002
   full:        0.001       0.741       0.002       1.883

 projected vibrational frequencies (cm⁻¹)
eigval :       -0.00    -0.00    -0.00    -0.00     0.00     0.00
eigval :       13.82    14.72    16.67    18.06    23.49    23.81
eigval :       38.68    44.51    64.17    65.36    84.72    87.44
eigval :       89.17    94.71   103.75   108.15   113.68   114.11
eigval :      132.45   132.99   156.38   160.22   163.27   197.55
eigval :      199.35   199.87   201.14   220.61   221.99   228.54
eigval :      233.01   237.66   269.35   270.67   285.13   303.11
eigval :      305.34   307.40   330.38   334.06   334.12   344.49
eigval :      349.31   356.65   375.98   378.19   387.79   392.01
eigval :      393.51   397.87   401.09   403.88   412.17   414.74
eigval :      417.31   425.48   454.71   457.75   468.11   501.47
eigval :      505.19   513.91   514.65   514.92   527.36   539.40
eigval :      540.20   540.31   547.92   548.37   558.15   569.59
eigval :      571.27   584.93   585.94   587.62   602.85   616.12
eigval :      616.91   648.87   654.44   668.85   680.15   680.99
eigval :      683.95   685.47   687.68   696.88   697.02   703.88
eigval :      721.72   726.06   739.49   768.57   769.87   772.55
eigval :      776.64   777.50   779.88   780.09   790.27   825.21
eigval :      825.46   845.82   848.41   854.69   866.79   871.98
eigval :      872.76   872.84   875.36   881.35   910.66   912.13
eigval :      912.57   913.71   913.97   915.06   918.65   919.26
eigval :      921.91   921.93   921.94   922.63   927.24   930.36
eigval :      930.65   930.82   938.40   938.43   957.18   957.18
eigval :     1010.74  1014.82  1014.86  1040.04  1058.40  1074.09
eigval :     1077.69  1078.04  1085.40  1102.58  1108.46  1110.98
eigval :     1114.01  1115.06  1121.01  1121.38  1140.99  1141.26
eigval :     1147.75  1150.59  1159.93  1159.95  1168.42  1178.33
eigval :     1181.11  1181.58  1186.86  1187.09  1187.65  1189.59
eigval :     1196.05  1209.08  1235.37  1240.23  1243.80  1248.58
eigval :     1250.47  1251.40  1259.62  1265.31  1268.09  1278.76
eigval :     1283.36  1289.39  1295.23  1296.14  1296.71  1320.98
eigval :     1322.46  1323.85  1328.62  1331.46  1333.86  1336.29
eigval :     1339.24  1341.43  1351.22  1365.33  1385.72  1402.24
eigval :     1402.25  1420.54  1420.56  1427.91  1428.41  1431.18
eigval :     1436.55  1437.40  1440.78  1441.01  1461.22  1476.92
eigval :     1478.50  1479.15  1489.17  1490.56  1490.62  1491.18
eigval :     1491.63  1493.43  1497.07  1501.56  1501.57  1505.95
eigval :     1506.00  1511.90  1534.73  1555.22  1568.59  1574.14
eigval :     1575.74  1579.43  1586.52  1591.21  1591.40  1593.42
eigval :     1593.88  1598.88  1602.19  1602.99  3026.51  3026.59
eigval :     3029.23  3029.27  3035.91  3035.95  3042.29  3042.31
eigval :     3044.90  3044.93  3053.54  3053.61  3074.76  3074.79
eigval :     3076.98  3077.38  3077.40  3077.75  3078.44  3078.47
eigval :     3083.12  3083.13  3085.85  3086.24  3086.30  3089.63
eigval :     3090.59  3094.76  3094.82  3095.48  3095.58  3095.86
eigval :     3099.21  3105.12  3105.22  3108.19  3108.19  3109.33

   temp. (K)  partition function   enthalpy   heat capacity  entropy
                                   cal/mol     cal/K/mol   cal/K/mol   J/K/mol
 298.15  VIB  0.134E+20            25722.094    165.375    157.518
         ROT  0.399E+08              888.752      2.981     37.760
         INT  0.535E+27            26610.846    168.356    195.278
         TR   0.177E+29             1481.254      4.968     45.476
         TOT                       28092.1000   173.3243   240.7540  1007.3148

       T/K    H(0)-H(T)+PV         H(T)/Eh          T*S/Eh         G(T)/Eh
   ------------------------------------------------------------------------
    298.15    0.447676E-01    0.769922E+00    0.114390E+00    0.655532E+00
   ------------------------------------------------------------------------

         :::::::::::::::::::::::::::::::::::::::::::::::::::::
         ::                  THERMODYNAMIC                  ::
         :::::::::::::::::::::::::::::::::::::::::::::::::::::
         :: total free energy        -137.595491475075 Eh   ::
         ::.................................................::
         :: total energy             -138.251023049752 Eh   ::
         :: zero point energy           0.725153964814 Eh   ::
         :: G(RRHO) w/o ZPVE           -0.069622390137 Eh   ::
         :: G(RRHO) contrib.            0.655531574676 Eh   ::
         :::::::::::::::::::::::::::::::::::::::::::::::::::::

           -------------------------------------------------
          | TOTAL ENERGY             -138.251023049752 Eh   |
          | TOTAL ENTHALPY           -137.481101474046 Eh   |
          | TOTAL FREE ENERGY        -137.595491475075 Eh   |
          | GRADIENT NORM               0.000026782369 Eh/α |
          | HOMO-LUMO GAP               0.954402475131 eV   |
           -------------------------------------------------

 * finished run on 2025/08/24 at 07:42:51.732
