   * xtb version 6.7.1 (edcfbbe) compiled by 'albert@albert-system' on 2024-07-22

   ID    Z sym.   atoms
    1    6 C      1, 2, 4-6, 8-13, 15-24
    2    7 N      3, 7
    3    8 O      14, 25, 26
    4    1 H      27-40

          program call               : xtb data2507/toluene/PXZ-BOO/PXZ-BOO.xyz --gfn 2 --gbsa toluene --ohess vtight --parallel 40 --molden --ceasefiles --namespace data2507/toluene/PXZ-BOO/PXZ-BOO_toluene_S0_preOpt
      * Solvation model:               GBSA
        Solvent                        toluene
        Solvent mass                       9.2140E+01 g/mol
          :  Hamiltonian                  GFN2-xTB          :
 * total energy  :   -70.2254284 Eh     change       -0.5699405E-09 Eh
 * total energy  :   -70.2325903 Eh     change       -0.7161855E-02 Eh
 * total energy  :   -70.2349101 Eh     change       -0.2319824E-02 Eh
 * total energy  :   -70.2353255 Eh     change       -0.4153458E-03 Eh
 * total energy  :   -70.2355069 Eh     change       -0.1814086E-03 Eh
 * total energy  :   -70.2355514 Eh     change       -0.4449302E-04 Eh
 * total energy  :   -70.2355809 Eh     change       -0.2952386E-04 Eh
 * total energy  :   -70.2356181 Eh     change       -0.3719569E-04 Eh
 * total energy  :   -70.2356584 Eh     change       -0.4034444E-04 Eh
 * total energy  :   -70.2357516 Eh     change       -0.9313587E-04 Eh
 * total energy  :   -70.2374667 Eh     change       -0.6318507E-06 Eh
 * total energy  :   -70.2374673 Eh     change       -0.6078468E-06 Eh
 * total energy  :   -70.2374679 Eh     change       -0.5613991E-06 Eh
 * total energy  :   -70.2374684 Eh     change       -0.4830458E-06 Eh
 * total energy  :   -70.2374688 Eh     change       -0.3936332E-06 Eh
 * total energy  :   -70.2374691 Eh     change       -0.3016503E-06 Eh
 * total energy  :   -70.2374693 Eh     change       -0.2045987E-06 Eh
 * total energy  :   -70.2374694 Eh     change       -0.1144452E-06 Eh
 * total energy  :   -70.2374694 Eh     change       -0.5795761E-07 Eh
   *** GEOMETRY OPTIMIZATION CONVERGED AFTER 59 ITERATIONS ***

 final structure:
================
40
 xtb: 6.7.1 (edcfbbe)
C            5.75079804011768        0.89574837710829       -1.59869097103811
C            4.66845143381962        0.40809158856057       -0.70526594072627
N            3.44120516908025        0.55931297503637       -1.00154181282642
C            2.48620914183931        0.08661705383808       -0.12752350912959
C            1.13865657180240        0.24074907819212       -0.44050966488938
C            0.16714348419198       -0.23491981329103        0.42987689257272
N           -1.19355061531883       -0.07941621720132        0.13039853405298
C           -2.03226536274456       -1.20045616503868        0.04896059013322
C           -1.54422287457798       -2.50011148090274        0.12241071661094
C           -2.39858147626335       -3.58828967476019        0.03280007776096
C           -3.75431783393466       -3.39898554328415       -0.14941714443846
C           -4.25228856783420       -2.11066358023508       -0.26823991907131
C           -3.40219885349608       -1.02204465496834       -0.18173159390669
O           -3.96562291381195        0.21793583942622       -0.35316805184352
C           -3.12593835948207        1.30458223728683       -0.32179649689452
C           -3.70967461119921        2.54304278317159       -0.52349642146840
C           -2.94370795102069        3.69672546284624       -0.46419132376334
C           -1.59561756889546        3.60052551411697       -0.18119526164843
C           -1.00621492603184        2.36146216164534        0.01766577146440
C           -1.75110129044139        1.19162585374070       -0.07567817414548
C            0.54656447707090       -0.87556345294132        1.62243435736460
C            1.87330658075310       -1.03515169551370        1.93685350621863
C            2.86013324308190       -0.55776855347024        1.06794993572551
C            4.27267997521015       -0.70681194886165        1.36434352662195
O            4.75232505451892       -1.23177396691946        2.34358641204831
O            5.13343418967130       -0.19200918054231        0.42186234055941
H            6.36551425157082        1.61895894535784       -1.06572649181863
H            6.39244572128874        0.06389861280107       -1.88323995707700
H            5.31421008242089        1.35239125979038       -2.48017660981392
H            0.87278552579381        0.71781614876930       -1.37025231250049
H           -0.48570144387322       -2.66724531660326        0.24326222684893
H           -1.99021860914203       -4.58473352646769        0.10127246027309
H           -4.42479761175939       -4.24124179669838       -0.21383143424342
H           -5.30146529827940       -1.92539185261432       -0.43651961507902
H           -4.77013974215228        2.57928851814553       -0.71724326322386
H           -3.40647654938940        4.65746168772051       -0.62542119236680
H           -0.98806960187113        4.48916564932435       -0.10734309751151
H            0.04325047244391        2.31012634080314        0.25884261193227
H           -0.21899217482235       -1.22803265425133        2.29664431929230
H            2.18205082166559       -1.51491901311308        2.85303697994914

          :  Hamiltonian                  GFN2-xTB          :
         :: gradient norm              0.000022780291 Eh/a0 ::
         :: HOMO-LUMO gap              1.593244807272 eV    ::
         :: SCC energy               -71.322489545610 Eh    ::
         :: -> dispersion             -0.049986891906 Eh    ::
         :: -> Gsolv                  -0.032310995710 Eh    ::
         :: repulsion energy           1.085020110665 Eh    ::

    * Orbital Energies and Occupations

         #    Occupation            Energy/Eh            Energy/eV
      -------------------------------------------------------------
         1        2.0000           -0.7736424             -21.0519
       ...           ...                  ...                  ...
        51        2.0000           -0.4559514             -12.4071
        52        2.0000           -0.4545147             -12.3680
        53        2.0000           -0.4428869             -12.0516
        54        2.0000           -0.4398284             -11.9683
        55        2.0000           -0.4348435             -11.8327
        56        2.0000           -0.4328937             -11.7796
        57        2.0000           -0.4296858             -11.6923
        58        2.0000           -0.4208977             -11.4532
        59        2.0000           -0.4202025             -11.4343
        60        2.0000           -0.4171037             -11.3500
        61        2.0000           -0.4108631             -11.1802
        62        2.0000           -0.3958734             -10.7723
        63        2.0000           -0.3517219              -9.5708 (HOMO)
        64                         -0.2931712              -7.9776 (LUMO)
        65                         -0.2824275              -7.6852
        66                         -0.2438961              -6.6368
        67                         -0.2351467              -6.3987
        68                         -0.2265662              -6.1652
        69                         -0.2220697              -6.0428
        70                         -0.2065241              -5.6198
        71                         -0.1944959              -5.2925
        72                         -0.1081090              -2.9418
        73                         -0.1012599              -2.7554
        74                         -0.0790829              -2.1520
       ...                                ...                  ...
       118                          0.6683749              18.1874
      -------------------------------------------------------------
                  HL-Gap            0.0585507 Eh            1.5932 eV

     #   Z          covCN         q      C6AA      α(0)
     1   6 C        3.758    -0.140    23.245     6.874
     2   6 C        2.829     0.252    22.773     7.820
     3   7 N        1.837    -0.270    27.864     7.823
     4   6 C        2.971     0.096    25.857     8.341
     5   6 C        2.923    -0.054    29.334     8.882
     6   6 C        2.919     0.077    26.275     8.406
     7   7 N        2.750    -0.060    22.409     7.031
     8   6 C        2.921     0.040    27.111     8.539
     9   6 C        2.924    -0.058    29.451     8.900
    10   6 C        2.919    -0.038    28.934     8.821
    11   6 C        2.919    -0.038    28.942     8.822
    12   6 C        2.920    -0.056    29.395     8.891
    13   6 C        2.884     0.125    25.255     8.239
    14   8 O        1.709    -0.264    18.367     5.786
    15   6 C        2.884     0.125    25.260     8.240
    16   6 C        2.920    -0.056    29.389     8.890
    17   6 C        2.919    -0.038    28.943     8.822
    18   6 C        2.919    -0.037    28.926     8.820
    19   6 C        2.924    -0.059    29.460     8.901
    20   6 C        2.919     0.040    27.109     8.538
    21   6 C        2.920    -0.039    28.966     8.826
    22   6 C        2.916    -0.019    28.479     8.751
    23   6 C        2.974    -0.053    29.301     8.879
    24   6 C        2.720     0.347    21.099     7.519
    25   8 O        0.857    -0.439    22.470     6.355
    26   8 O        1.708    -0.253    18.195     5.759
    27   1 H        0.925     0.097     1.809     2.103
    28   1 H        0.925     0.097     1.813     2.106
    29   1 H        0.925     0.097     1.811     2.105
    30   1 H        0.926     0.075     2.027     2.227
    31   1 H        0.926     0.041     2.440     2.443
    32   1 H        0.926     0.045     2.386     2.416
    33   1 H        0.926     0.047     2.364     2.404
    34   1 H        0.926     0.053     2.287     2.365
    35   1 H        0.926     0.053     2.287     2.365
    36   1 H        0.926     0.047     2.360     2.402
    37   1 H        0.926     0.046     2.375     2.410
    38   1 H        0.926     0.042     2.417     2.431
    39   1 H        0.926     0.065     2.140     2.288
    40   1 H        0.926     0.063     2.159     2.298

molecular dipole:
                 x           y           z       tot (Debye)
 q only:       -0.805       0.761      -1.416
   full:       -0.623       0.613      -1.143       3.657

 projected vibrational frequencies (cm⁻¹)
eigval :       -0.00    -0.00    -0.00     0.00     0.00     0.00
eigval :       29.29    31.36    36.61    53.08    63.08    97.40
eigval :      124.25   126.28   145.55   156.41   171.35   233.29
eigval :      247.59   270.66   276.19   284.64   296.08   307.02
eigval :      380.13   394.17   412.94   429.01   434.72   443.12
eigval :      453.57   501.46   508.51   515.71   526.68   535.11
eigval :      557.13   561.22   585.60   617.98   640.16   658.55
eigval :      659.94   663.10   670.23   681.94   740.90   755.55
eigval :      778.15   778.32   800.62   839.05   854.85   857.56
eigval :      863.85   867.27   891.41   898.00   904.54   915.03
eigval :      915.37   918.52   930.93   958.32   978.20   990.72
eigval :     1012.84  1043.17  1088.30  1089.69  1106.30  1110.91
eigval :     1128.76  1159.30  1170.42  1174.83  1181.69  1193.77
eigval :     1199.81  1216.31  1233.61  1242.63  1258.48  1260.54
eigval :     1302.27  1308.69  1325.92  1341.85  1354.65  1371.57
eigval :     1416.37  1421.95  1425.55  1428.79  1437.87  1452.03
eigval :     1476.01  1497.74  1527.53  1565.05  1567.60  1577.85
eigval :     1587.88  1599.42  1639.63  1705.06  3017.59  3029.97
eigval :     3078.27  3089.83  3090.69  3094.40  3097.64  3098.44
eigval :     3104.24  3106.00  3107.98  3111.11  3112.38  3115.24

   temp. (K)  partition function   enthalpy   heat capacity  entropy
                                   cal/mol     cal/K/mol   cal/K/mol   J/K/mol
 298.15  VIB  0.452E+08            11130.132     72.981     67.123
         ROT  0.126E+08              888.752      2.981     35.466
         INT  0.568E+15            12018.884     75.962    102.590
         TR   0.613E+28             1481.254      4.968     43.367
         TOT                       13500.1384    80.9301   145.9562   610.6809

       T/K    H(0)-H(T)+PV         H(T)/Eh          T*S/Eh         G(T)/Eh
   ------------------------------------------------------------------------
    298.15    0.215138E-01    0.314656E+00    0.693485E-01    0.245308E+00
   ------------------------------------------------------------------------

         :::::::::::::::::::::::::::::::::::::::::::::::::::::
         ::                  THERMODYNAMIC                  ::
         :::::::::::::::::::::::::::::::::::::::::::::::::::::
         :: total free energy         -69.992161638829 Eh   ::
         ::.................................................::
         :: total energy              -70.237469435397 Eh   ::
         :: zero point energy           0.293142474527 Eh   ::
         :: G(RRHO) w/o ZPVE           -0.047834677959 Eh   ::
         :: G(RRHO) contrib.            0.245307796568 Eh   ::
         :::::::::::::::::::::::::::::::::::::::::::::::::::::

           -------------------------------------------------
          | TOTAL ENERGY              -70.237469435397 Eh   |
          | TOTAL ENTHALPY            -69.922813120943 Eh   |
          | TOTAL FREE ENERGY         -69.992161638829 Eh   |
          | GRADIENT NORM               0.000022764199 Eh/α |
          | HOMO-LUMO GAP               1.593245996145 eV   |
           -------------------------------------------------

 * finished run on 2025/09/04 at 09:15:40.655
