   * xtb version 6.7.1 (edcfbbe) compiled by 'albert@albert-system' on 2024-07-22

   ID    Z sym.   atoms
    1    6 C      1, 2, 4-6, 8-13, 15-24
    2    7 N      3, 7
    3    8 O      14, 25, 26
    4    1 H      27-40

          program call               : xtb data2507/toluene/PXZ-BOO/PXZ-BOO_toluene_S0_crest.xyz --gfn 2 --gbsa toluene --ohess vtight --parallel 40 --molden --ceasefiles --namespace data2507/toluene/PXZ-BOO/PXZ-BOO_toluene_S0_finalOpt
      * Solvation model:               GBSA
        Solvent                        toluene
        Solvent mass                       9.2140E+01 g/mol
          :  Hamiltonian                  GFN2-xTB          :
 * total energy  :   -70.2373787 Eh     change       -0.3772982E-09 Eh
 * total energy  :   -70.2374386 Eh     change       -0.5991496E-04 Eh
 * total energy  :   -70.2374574 Eh     change       -0.1877743E-04 Eh
 * total energy  :   -70.2374605 Eh     change       -0.3050970E-05 Eh
 * total energy  :   -70.2374597 Eh     change        0.7940959E-06 Eh
 * total energy  :   -70.2374622 Eh     change       -0.2493927E-05 Eh
 * total energy  :   -70.2374634 Eh     change       -0.1216246E-05 Eh
 * total energy  :   -70.2374650 Eh     change       -0.1643385E-05 Eh
 * total energy  :   -70.2374670 Eh     change       -0.1932392E-05 Eh
 * total energy  :   -70.2374691 Eh     change       -0.2149221E-05 Eh
 * total energy  :   -70.2374711 Eh     change       -0.1974353E-05 Eh
 * total energy  :   -70.2374719 Eh     change       -0.8373763E-06 Eh
 * total energy  :   -70.2374722 Eh     change       -0.2656076E-06 Eh
 * total energy  :   -70.2374724 Eh     change       -0.2614014E-06 Eh
 * total energy  :   -70.2374726 Eh     change       -0.1461292E-06 Eh
 * total energy  :   -70.2374727 Eh     change       -0.1259706E-06 Eh
 * total energy  :   -70.2374728 Eh     change       -0.1015537E-06 Eh
 * total energy  :   -70.2374729 Eh     change       -0.6994897E-07 Eh
   *** GEOMETRY OPTIMIZATION CONVERGED AFTER 18 ITERATIONS ***

 final structure:
================
40
 xtb: 6.7.1 (edcfbbe)
C            5.51007400233716        1.39267980289715       -1.88003715744224
C            4.49811290537400        0.71189714253993       -1.03150580771188
N            3.25218649454711        0.90035449652897       -1.20108595833612
C            2.36475167622132        0.24054717947747       -0.37876508511335
C            0.99766581984215        0.43412784354841       -0.55553700790495
C            0.09351277930777       -0.22949518183501        0.26278936904166
N           -1.28585368111279       -0.03878409958557        0.10020296135269
C           -2.12471619279521       -1.13224415866199       -0.15895092362066
C           -1.62839750552239       -2.40804367792516       -0.40096881990618
C           -2.48384703646329       -3.46821028033382       -0.65862343810146
C           -3.85004102070362       -3.27018493358540       -0.69653096064739
C           -4.35946332108316       -1.99569176780963       -0.50178177959129
C           -3.50857396689770       -0.93460097868716       -0.24646435630707
O           -4.08669443453904        0.30281264599597       -0.10865419209322
C           -3.24968228428231        1.37421385553627        0.08744568538065
C           -3.84946641242763        2.61726808890045        0.18873198464068
C           -3.08388041133537        3.74656398425977        0.43330530606059
C           -1.71883735060007        3.61718429369633        0.59606547641422
C           -1.11338102626050        2.37437991706501        0.48969432937340
C           -1.86009706006180        1.23702192379978        0.20551837560558
C            0.56010987121529       -1.09868720611548        1.26441024392059
C            1.90659869328159       -1.29689118190872        1.44406880507981
C            2.82637170464369       -0.63216099849847        0.62599528970555
C            4.25718574095463       -0.81605329902452        0.78255628955585
O            4.80826030912396       -1.52610644930377        1.59290538909257
O            5.04564025558979       -0.10130291349916       -0.09031591275252
H            5.00800062683701        2.02585808351424       -2.60336677463390
H            6.17166708055266        1.98769171201620       -1.25305417445574
H            6.11969984413672        0.64871220632339       -2.38965371601235
H            0.66342781708054        1.09010338512638       -1.34334107189931
H           -0.56324395449928       -2.57669707026738       -0.39593795201795
H           -2.06867716209330       -4.44845417827559       -0.83499139898445
H           -4.52083272421847       -4.09207420793745       -0.89057267614319
H           -5.41880331600508       -1.79853958490029       -0.55004004804175
H           -4.92126554236199        2.67454592290453        0.08190340337533
H           -3.55946038507053        4.71164022814292        0.50817438118989
H           -1.11002964155228        4.48143746820652        0.81210894472767
H           -0.04908822054135        2.29225702079095        0.64044142288553
H           -0.15406714046689       -1.59827631925179        1.90107796115026
H            2.28219640974872       -1.95176472316461        2.21536964996452

          :  Hamiltonian                  GFN2-xTB          :
         :: gradient norm              0.000066636571 Eh/a0 ::
         :: HOMO-LUMO gap              1.591568204199 eV    ::
         :: SCC energy               -71.322502014578 Eh    ::
         :: -> dispersion             -0.049987112684 Eh    ::
         :: -> Gsolv                  -0.032314145094 Eh    ::
         :: repulsion energy           1.085029130621 Eh    ::

    * Orbital Energies and Occupations

         #    Occupation            Energy/Eh            Energy/eV
      -------------------------------------------------------------
         1        2.0000           -0.7736386             -21.0518
       ...           ...                  ...                  ...
        51        2.0000           -0.4559375             -12.4067
        52        2.0000           -0.4545113             -12.3679
        53        2.0000           -0.4428971             -12.0518
        54        2.0000           -0.4398165             -11.9680
        55        2.0000           -0.4348424             -11.8327
        56        2.0000           -0.4329183             -11.7803
        57        2.0000           -0.4296917             -11.6925
        58        2.0000           -0.4208722             -11.4525
        59        2.0000           -0.4202310             -11.4351
        60        2.0000           -0.4171157             -11.3503
        61        2.0000           -0.4108701             -11.1803
        62        2.0000           -0.3958680             -10.7721
        63        2.0000           -0.3516967              -9.5702 (HOMO)
        64                         -0.2932077              -7.9786 (LUMO)
        65                         -0.2824500              -7.6859
        66                         -0.2438857              -6.6365
        67                         -0.2351344              -6.3983
        68                         -0.2265776              -6.1655
        69                         -0.2220570              -6.0425
        70                         -0.2065290              -5.6199
        71                         -0.1945303              -5.2934
        72                         -0.1081096              -2.9418
        73                         -0.1013023              -2.7566
        74                         -0.0790971              -2.1523
       ...                                ...                  ...
       118                          0.6683387              18.1864
      -------------------------------------------------------------
                  HL-Gap            0.0584890 Eh            1.5916 eV

     #   Z          covCN         q      C6AA      α(0)
     1   6 C        3.759    -0.140    23.246     6.874
     2   6 C        2.829     0.252    22.773     7.820
     3   7 N        1.837    -0.270    27.863     7.823
     4   6 C        2.971     0.096    25.857     8.341
     5   6 C        2.923    -0.054    29.334     8.882
     6   6 C        2.919     0.077    26.275     8.406
     7   7 N        2.751    -0.060    22.410     7.031
     8   6 C        2.921     0.040    27.110     8.538
     9   6 C        2.924    -0.058    29.450     8.899
    10   6 C        2.919    -0.038    28.935     8.821
    11   6 C        2.919    -0.038    28.943     8.822
    12   6 C        2.920    -0.056    29.395     8.891
    13   6 C        2.884     0.125    25.256     8.239
    14   8 O        1.709    -0.264    18.368     5.786
    15   6 C        2.884     0.125    25.261     8.240
    16   6 C        2.920    -0.056    29.389     8.890
    17   6 C        2.919    -0.038    28.943     8.822
    18   6 C        2.919    -0.037    28.926     8.820
    19   6 C        2.924    -0.059    29.461     8.901
    20   6 C        2.919     0.040    27.108     8.538
    21   6 C        2.920    -0.039    28.965     8.826
    22   6 C        2.916    -0.019    28.478     8.751
    23   6 C        2.974    -0.053    29.301     8.879
    24   6 C        2.719     0.347    21.098     7.519
    25   8 O        0.857    -0.439    22.468     6.355
    26   8 O        1.708    -0.253    18.196     5.759
    27   1 H        0.925     0.097     1.811     2.104
    28   1 H        0.925     0.097     1.811     2.104
    29   1 H        0.925     0.097     1.811     2.105
    30   1 H        0.926     0.075     2.027     2.226
    31   1 H        0.926     0.041     2.442     2.444
    32   1 H        0.926     0.045     2.386     2.416
    33   1 H        0.926     0.046     2.364     2.404
    34   1 H        0.926     0.053     2.287     2.365
    35   1 H        0.926     0.053     2.287     2.365
    36   1 H        0.926     0.047     2.361     2.403
    37   1 H        0.926     0.046     2.376     2.410
    38   1 H        0.926     0.042     2.418     2.432
    39   1 H        0.926     0.065     2.141     2.288
    40   1 H        0.926     0.063     2.159     2.298

molecular dipole:
                 x           y           z       tot (Debye)
 q only:       -0.905       1.025      -1.168
   full:       -0.703       0.827      -0.946       3.660

 projected vibrational frequencies (cm⁻¹)
eigval :       -0.00    -0.00    -0.00    -0.00     0.00     0.00
eigval :       30.97    33.95    37.22    55.22    83.94    98.24
eigval :      124.05   127.73   145.55   156.40   171.10   234.43
eigval :      248.73   271.17   278.70   286.43   295.47   308.54
eigval :      380.62   394.27   413.29   429.80   435.18   443.61
eigval :      453.72   501.66   509.53   515.57   527.35   535.44
eigval :      557.97   561.01   585.88   618.42   640.52   657.89
eigval :      661.85   665.57   671.23   682.54   741.40   755.76
eigval :      778.58   780.11   800.73   837.28   854.92   858.09
eigval :      864.83   868.13   891.29   899.59   905.53   914.74
eigval :      915.64   919.96   929.14   959.43   979.09   990.75
eigval :     1012.29  1043.55  1088.53  1089.88  1107.70  1111.73
eigval :     1129.33  1162.19  1174.42  1175.79  1183.13  1195.24
eigval :     1200.49  1216.85  1234.34  1243.39  1258.76  1260.90
eigval :     1302.50  1308.76  1326.21  1342.04  1355.02  1372.13
eigval :     1417.59  1424.39  1426.42  1429.36  1439.20  1452.13
eigval :     1476.10  1497.91  1527.37  1565.23  1568.11  1578.10
eigval :     1588.36  1599.59  1640.09  1705.01  3017.45  3029.97
eigval :     3080.15  3090.65  3090.70  3093.79  3098.48  3098.82
eigval :     3103.66  3105.74  3107.79  3111.39  3112.29  3115.49

   temp. (K)  partition function   enthalpy   heat capacity  entropy
                                   cal/mol     cal/K/mol   cal/K/mol   J/K/mol
 298.15  VIB  0.289E+08            11078.762     73.186     66.597
         ROT  0.126E+08              888.752      2.981     35.466
         INT  0.364E+15            11967.514     76.167    102.063
         TR   0.613E+28             1481.254      4.968     43.367
         TOT                       13448.7681    81.1352   145.4294   608.4765

       T/K    H(0)-H(T)+PV         H(T)/Eh          T*S/Eh         G(T)/Eh
   ------------------------------------------------------------------------
    298.15    0.214320E-01    0.314774E+00    0.690982E-01    0.245676E+00
   ------------------------------------------------------------------------

         :::::::::::::::::::::::::::::::::::::::::::::::::::::
         ::                  THERMODYNAMIC                  ::
         :::::::::::::::::::::::::::::::::::::::::::::::::::::
         :: total free energy         -69.991797125746 Eh   ::
         ::.................................................::
         :: total energy              -70.237472886583 Eh   ::
         :: zero point energy           0.293341975521 Eh   ::
         :: G(RRHO) w/o ZPVE           -0.047666214684 Eh   ::
         :: G(RRHO) contrib.            0.245675760837 Eh   ::
         :::::::::::::::::::::::::::::::::::::::::::::::::::::

           -------------------------------------------------
          | TOTAL ENERGY              -70.237472886583 Eh   |
          | TOTAL ENTHALPY            -69.922698934844 Eh   |
          | TOTAL FREE ENERGY         -69.991797125746 Eh   |
          | GRADIENT NORM               0.000066670317 Eh/α |
          | HOMO-LUMO GAP               1.591567057659 eV   |
           -------------------------------------------------

 * finished run on 2025/09/04 at 09:16:55.904
