   * xtb version 6.7.1 (edcfbbe) compiled by 'albert@albert-system' on 2024-07-22

   ID    Z sym.   atoms
    1    6 C      1, 2, 4-6, 8-13, 15-24
    2    7 N      3, 7
    3    8 O      14, 25, 26
    4    1 H      27-40

          program call               : xtb data2507/toluene/PXZ-BOO/PXZ-BOO_toluene_T1_crest.xyz --gfn 2 --uhf 2 --gbsa toluene --ohess vtight --parallel 40 --molden --ceasefiles --namespace data2507/toluene/PXZ-BOO/PXZ-BOO_toluene_T1_finalOpt
      * Solvation model:               GBSA
        Solvent                        toluene
        Solvent mass                       9.2140E+01 g/mol
          :  Hamiltonian                  GFN2-xTB          :
 * total energy  :   -70.1551774 Eh     change       -0.6063914E-09 Eh
 * total energy  :   -70.1555848 Eh     change       -0.4073733E-03 Eh
 * total energy  :   -70.1557465 Eh     change       -0.1616770E-03 Eh
 * total energy  :   -70.1557572 Eh     change       -0.1075685E-04 Eh
 * total energy  :   -70.1557620 Eh     change       -0.4781232E-05 Eh
 * total energy  :   -70.1557631 Eh     change       -0.1094759E-05 Eh
 * total energy  :   -70.1557637 Eh     change       -0.6197229E-06 Eh
 * total energy  :   -70.1557641 Eh     change       -0.3698950E-06 Eh
 * total energy  :   -70.1557643 Eh     change       -0.2681912E-06 Eh
 * total energy  :   -70.1557646 Eh     change       -0.2898578E-06 Eh
 * total energy  :   -70.1557649 Eh     change       -0.2539075E-06 Eh
 * total energy  :   -70.1557651 Eh     change       -0.2477685E-06 Eh
 * total energy  :   -70.1557654 Eh     change       -0.2891649E-06 Eh
 * total energy  :   -70.1557658 Eh     change       -0.3567690E-06 Eh
 * total energy  :   -70.1557661 Eh     change       -0.3047114E-06 Eh
 * total energy  :   -70.1557663 Eh     change       -0.2025088E-06 Eh
 * total energy  :   -70.1557664 Eh     change       -0.9258730E-07 Eh
   *** GEOMETRY OPTIMIZATION CONVERGED AFTER 17 ITERATIONS ***

 final structure:
================
40
 xtb: 6.7.1 (edcfbbe)
C            5.47412871775197       -1.18709078875696       -2.08450586703297
C            4.48011649607658       -0.60118498826641       -1.13730690685356
N            3.23339124908279       -0.76236292652346       -1.32936240133851
C            2.34762543183877       -0.20522268869643       -0.42214341844439
C            0.99321992793341       -0.36708184564664       -0.61179689447106
C            0.09087333483457        0.20063431147448        0.29964154929145
N           -1.30322970811308        0.03948798438713        0.10718350710258
C           -1.87529331083453       -1.20672889771315        0.20672023963746
C           -1.13510428230232       -2.35926662534581        0.50600365497967
C           -1.75397018952717       -3.58419678913776        0.58808371060919
C           -3.13702301094542       -3.70372899457366        0.38794791979247
C           -3.89514657335512       -2.58435301147769        0.12312225325972
C           -3.28584487914781       -1.33580652112685        0.03514848522936
O           -4.07123873455119       -0.26219306522427       -0.19517072298220
C           -3.50133224801283        0.95799455843619       -0.29121045753784
C           -4.32646454227346        2.05025500037330       -0.53792955424828
C           -3.78145314295814        3.30835193987256       -0.67791221714487
C           -2.39184521644300        3.48606813640860       -0.58970065542869
C           -1.56185026821178        2.42050784828538       -0.33947804547983
C           -2.08994692375672        1.13241529882124       -0.16206218555952
C            0.56365741871819        0.92990961404660        1.40954845036353
C            1.90396491383572        1.08756609631378        1.61123755463787
C            2.84189140635418        0.52860482445252        0.69980140839978
C            4.23476946151827        0.68385366147030        0.87287846857703
O            4.83027759183186        1.27811337706986        1.77148427568787
O            5.05498029140529        0.07542997426014       -0.11833876788119
H            6.12209205542411       -1.87894120250646       -1.54932540096908
H            4.95037250114926       -1.70330103914016       -2.88178671693237
H            6.09830406272148       -0.39464493851001       -2.49322251464589
H            0.64150612204939       -0.91085757342696       -1.47407132571823
H           -0.07382813198209       -2.27063370907654        0.67209250869779
H           -1.16874790686737       -4.46088541945461        0.81475117795604
H           -3.60847573960180       -4.67077945368842        0.45394818699853
H           -4.96287752364018       -2.64123857323372       -0.01539264457555
H           -5.38773280768991        1.87943540318967       -0.62200432533047
H           -4.42062185357429        4.15470051635403       -0.86943254975744
H           -1.96963264490331        4.46900181215926       -0.72438999600156
H           -0.49417396524185        2.55856961425014       -0.28225985023081
H           -0.14878817500485        1.34414443126684        2.10772128187492
H            2.29017252681228        1.63268483333410        2.45861839816896

          :  Hamiltonian                  GFN2-xTB          :
         :: gradient norm              0.000067552761 Eh/a0 ::
         :: HOMO-LUMO gap              0.056705591155 eV    ::
         :: SCC energy               -71.222974866473 Eh    ::
         :: -> dispersion             -0.049839059200 Eh    ::
         :: -> Gsolv                  -0.047112081483 Eh    ::
         :: repulsion energy           1.067208479571 Eh    ::

    * Orbital Energies and Occupations

         #    Occupation            Energy/Eh            Energy/eV
      -------------------------------------------------------------
         1        2.0000           -0.7733725             -21.0445
       ...           ...                  ...                  ...
        52        2.0000           -0.4570110             -12.4359
        53        2.0000           -0.4485758             -12.2064
        54        2.0000           -0.4441683             -12.0864
        55        2.0000           -0.4436951             -12.0736
        56        2.0000           -0.4406902             -11.9918
        57        2.0000           -0.4386302             -11.9357
        58        2.0000           -0.4191138             -11.4047
        59        2.0000           -0.4096408             -11.1469
        60        2.0000           -0.3983587             -10.8399
        61        2.0000           -0.3954154             -10.7598
        62        2.0000           -0.3877729             -10.5518
        63        1.0000           -0.3686012             -10.0302
        64        0.7496           -0.2741105              -7.4589 (HOMO)
        65        0.2504           -0.2720270              -7.4022 (LUMO)
        66                         -0.2555968              -6.9551
        67                         -0.2523744              -6.8675
        68                         -0.2382911              -6.4842
        69                         -0.2243212              -6.1041
        70                         -0.1967864              -5.3548
        71                         -0.1786956              -4.8626
        72                         -0.1316199              -3.5816
        73                         -0.1034200              -2.8142
        74                         -0.0750940              -2.0434
        75                         -0.0258710              -0.7040
       ...                                ...                  ...
       118                          0.6795056              18.4903
      -------------------------------------------------------------
                  HL-Gap            0.0020835 Eh            0.0567 eV

     #   Z          covCN         q      C6AA      α(0)
     1   6 C        3.759    -0.132    23.088     6.850
     2   6 C        2.823     0.252    22.777     7.820
     3   7 N        1.837    -0.306    28.786     7.951
     4   6 C        2.966     0.081    26.197     8.395
     5   6 C        2.917    -0.059    29.468     8.902
     6   6 C        2.926     0.018    27.614     8.618
     7   7 N        2.751     0.032    20.678     6.754
     8   6 C        2.928     0.039    27.119     8.540
     9   6 C        2.915    -0.041    29.025     8.834
    10   6 C        2.916    -0.027    28.675     8.781
    11   6 C        2.917    -0.024    28.593     8.769
    12   6 C        2.911    -0.047    29.170     8.856
    13   6 C        2.888     0.132    25.111     8.216
    14   8 O        1.711    -0.178    16.996     5.566
    15   6 C        2.887     0.131    25.123     8.218
    16   6 C        2.911    -0.047    29.166     8.856
    17   6 C        2.917    -0.025    28.626     8.774
    18   6 C        2.915    -0.027    28.678     8.782
    19   6 C        2.915    -0.041    29.029     8.835
    20   6 C        2.928     0.038    27.153     8.546
    21   6 C        2.912    -0.042    29.043     8.837
    22   6 C        2.915    -0.040    29.005     8.831
    23   6 C        2.967    -0.069    29.708     8.940
    24   6 C        2.714     0.308    21.768     7.637
    25   8 O        0.856    -0.525    24.344     6.615
    26   8 O        1.704    -0.309    19.153     5.909
    27   1 H        0.925     0.079     1.986     2.204
    28   1 H        0.925     0.084     1.942     2.179
    29   1 H        0.925     0.079     1.990     2.206
    30   1 H        0.926     0.054     2.270     2.356
    31   1 H        0.926     0.063     2.169     2.303
    32   1 H        0.926     0.064     2.158     2.297
    33   1 H        0.926     0.068     2.105     2.269
    34   1 H        0.926     0.075     2.031     2.229
    35   1 H        0.926     0.075     2.036     2.231
    36   1 H        0.926     0.067     2.116     2.275
    37   1 H        0.926     0.063     2.169     2.303
    38   1 H        0.926     0.061     2.186     2.312
    39   1 H        0.926     0.044     2.399     2.422
    40   1 H        0.926     0.035     2.522     2.483

molecular dipole:
                 x           y           z       tot (Debye)
 q only:       -6.024      -1.278      -1.650
   full:       -5.740      -1.125      -1.433      15.306

 projected vibrational frequencies (cm⁻¹)
eigval :       -0.00    -0.00    -0.00    -0.00     0.00     0.00
eigval :       20.95    31.74    34.58    69.80    89.46    94.10
eigval :      110.21   118.77   121.34   147.10   164.81   233.53
eigval :      239.01   268.66   277.70   279.78   287.14   316.95
eigval :      374.74   390.01   398.41   416.03   426.27   437.71
eigval :      461.92   468.08   487.90   495.54   529.23   535.78
eigval :      542.13   546.53   574.73   588.74   599.31   607.84
eigval :      650.39   658.06   661.82   671.58   684.18   742.47
eigval :      757.94   763.31   781.80   796.74   835.50   848.05
eigval :      850.69   860.47   863.46   888.14   894.24   895.48
eigval :      897.96   899.21   906.92   908.01   942.88   959.99
eigval :     1013.48  1027.31  1058.90  1064.76  1104.41  1120.08
eigval :     1127.77  1144.07  1156.96  1161.52  1176.61  1196.29
eigval :     1201.39  1213.62  1230.87  1243.20  1244.22  1253.42
eigval :     1282.21  1294.72  1330.09  1339.81  1360.37  1363.94
eigval :     1374.90  1378.50  1389.58  1404.30  1408.64  1421.98
eigval :     1435.22  1441.61  1451.20  1469.73  1472.84  1485.57
eigval :     1499.36  1568.64  1620.22  1653.23  3014.45  3025.73
eigval :     3074.10  3078.95  3095.89  3103.50  3103.63  3103.85
eigval :     3108.04  3108.60  3114.96  3116.18  3119.45  3120.17

   temp. (K)  partition function   enthalpy   heat capacity  entropy
                                   cal/mol     cal/K/mol   cal/K/mol   J/K/mol
 298.15  VIB  0.663E+08            11387.757     74.996     68.743
         ROT  0.125E+08              888.752      2.981     35.461
         INT  0.831E+15            12276.510     77.977    104.205
         TR   0.613E+28             1481.254      4.968     43.367
         TOT                       13757.7635    82.9452   147.5715   617.4389

       T/K    H(0)-H(T)+PV         H(T)/Eh          T*S/Eh         G(T)/Eh
   ------------------------------------------------------------------------
    298.15    0.219244E-01    0.310976E+00    0.701160E-01    0.240860E+00
   ------------------------------------------------------------------------

         :::::::::::::::::::::::::::::::::::::::::::::::::::::
         ::                  THERMODYNAMIC                  ::
         :::::::::::::::::::::::::::::::::::::::::::::::::::::
         :: total free energy         -69.914906574636 Eh   ::
         ::.................................................::
         :: total energy              -70.155766386748 Eh   ::
         :: zero point energy           0.289051378609 Eh   ::
         :: G(RRHO) w/o ZPVE           -0.048191566497 Eh   ::
         :: G(RRHO) contrib.            0.240859812112 Eh   ::
         :::::::::::::::::::::::::::::::::::::::::::::::::::::

           -------------------------------------------------
          | TOTAL ENERGY              -70.155766386748 Eh   |
          | TOTAL ENTHALPY            -69.844790616482 Eh   |
          | TOTAL FREE ENERGY         -69.914906574636 Eh   |
          | GRADIENT NORM               0.000069227609 Eh/α |
          | HOMO-LUMO GAP               0.056694954547 eV   |
           -------------------------------------------------

 * finished run on 2025/09/04 at 09:18:31.332
