   * xtb version 6.7.1 (edcfbbe) compiled by 'albert@albert-system' on 2024-07-22

   ID    Z sym.   atoms
    1    6 C      1, 2, 4-6, 8-13, 15-24
    2    7 N      3, 7
    3    8 O      14, 25, 26
    4    1 H      27-40

          program call               : xtb data2507/toluene/PXZ-BOO/PXZ-BOO_toluene_S0_finalOpt.xtbopt.xyz --gfn 2 --uhf 2 --gbsa toluene --ohess vtight --parallel 40 --molden --ceasefiles --namespace data2507/toluene/PXZ-BOO/PXZ-BOO_toluene_T1_preOpt
      * Solvation model:               GBSA
        Solvent                        toluene
        Solvent mass                       9.2140E+01 g/mol
          :  Hamiltonian                  GFN2-xTB          :
 * total energy  :   -70.1482650 Eh     change       -0.1360547E-09 Eh
 * total energy  :   -70.1538546 Eh     change       -0.5589618E-02 Eh
 * total energy  :   -70.1553337 Eh     change       -0.1479126E-02 Eh
 * total energy  :   -70.1554715 Eh     change       -0.1377906E-03 Eh
 * total energy  :   -70.1555858 Eh     change       -0.1142925E-03 Eh
 * total energy  :   -70.1556175 Eh     change       -0.3169768E-04 Eh
 * total energy  :   -70.1556393 Eh     change       -0.2179258E-04 Eh
 * total energy  :   -70.1556516 Eh     change       -0.1227193E-04 Eh
 * total energy  :   -70.1556522 Eh     change       -0.5925089E-06 Eh
 * total energy  :   -70.1556595 Eh     change       -0.7302765E-05 Eh
 * total energy  :   -70.1557515 Eh     change       -0.1801512E-06 Eh
 * total energy  :   -70.1557517 Eh     change       -0.1904985E-06 Eh
 * total energy  :   -70.1557520 Eh     change       -0.2550183E-06 Eh
 * total energy  :   -70.1557523 Eh     change       -0.3665493E-06 Eh
 * total energy  :   -70.1557528 Eh     change       -0.4892240E-06 Eh
 * total energy  :   -70.1557532 Eh     change       -0.4090389E-06 Eh
 * total energy  :   -70.1557535 Eh     change       -0.2564991E-06 Eh
 * total energy  :   -70.1557536 Eh     change       -0.1219634E-06 Eh
 * total energy  :   -70.1557537 Eh     change       -0.6991702E-07 Eh
   *** GEOMETRY OPTIMIZATION CONVERGED AFTER 39 ITERATIONS ***

 final structure:
================
40
 xtb: 6.7.1 (edcfbbe)
C            5.49471894705528        1.26245449295773       -1.99371088921361
C            4.49101446294190        0.63749145173232       -1.08239325966608
N            3.24648825187457        0.81399821519327       -1.27511641216832
C            2.35154441693271        0.22024144180842       -0.40075330682176
C            0.99939713240974        0.39800117405340       -0.59167290976619
C            0.08769711815670       -0.20448829538071        0.28795971261043
N           -1.30410367277478       -0.02637770752699        0.09715901773514
C           -2.09822002442858       -1.10488765379151       -0.20642443142654
C           -1.57754899527731       -2.38795069063476       -0.43659823461662
C           -2.41466369410580       -3.44053024887909       -0.71576547625827
C           -3.80443956000967       -3.25478074249341       -0.78126665789633
C           -4.34247610267293       -2.00025731350851       -0.59019726423666
C           -3.50994477982480       -0.92055252756435       -0.31580813135261
O           -4.07321125367230        0.29819453999816       -0.17259401104311
C           -3.28009217406114        1.36018016983256        0.08390378163087
C           -3.88312679116661        2.60801860600023        0.21618337257395
C           -3.11766692843378        3.71549170381470        0.50835615879280
C           -1.73401254941283        3.58360743156162        0.69352660464536
C           -1.12160652818262        2.35869118505169        0.56940788224800
C           -1.86909909936336        1.21950438315407        0.23948228070122
C            0.54965499019889       -0.98717713121792        1.36599664033670
C            1.88751214602211       -1.16275211813194        1.56783308092078
C            2.83450829319336       -0.56789935937605        0.68892936707621
C            4.22525024007945       -0.73896565309195        0.86353754444644
O            4.81141414346777       -1.37745390066462        1.73766660136369
O            5.05546297293158       -0.08953632839159       -0.09267356575982
H            4.97983878967237        1.82758739571703       -2.76305567663886
H            6.14920115798895        1.91596716663617       -1.41978956939048
H            6.11072762380112        0.48612710160959       -2.44373680163857
H            0.65636357122190        0.98110723734561       -1.43144398708012
H           -0.50987107870914       -2.53191406514896       -0.39709213761805
H           -1.99800987088132       -4.41935568063233       -0.89160305749805
H           -4.44947534958049       -4.09134463651533       -0.99474074838777
H           -5.40388193603698       -1.82245011875344       -0.65612525863994
H           -4.95173981334551        2.67357166630317        0.08887415170545
H           -3.58407905318933        4.68214884088843        0.60760165340416
H           -1.14255155856252        4.45016656211239        0.94188924556079
H           -0.05969727794810        2.26071609331459        0.72546756384755
H           -0.16954477210454       -1.42820420687100        2.04046529419810
H            2.26533515018286       -1.74933935534665        2.39091654495995

          :  Hamiltonian                  GFN2-xTB          :
         :: gradient norm              0.000027887509 Eh/a0 ::
         :: HOMO-LUMO gap              0.059314147627 eV    ::
         :: SCC energy               -71.222959681940 Eh    ::
         :: -> dispersion             -0.049848217716 Eh    ::
         :: -> Gsolv                  -0.047104205640 Eh    ::
         :: repulsion energy           1.067205999310 Eh    ::

    * Orbital Energies and Occupations

         #    Occupation            Energy/Eh            Energy/eV
      -------------------------------------------------------------
         1        2.0000           -0.7733304             -21.0434
       ...           ...                  ...                  ...
        52        2.0000           -0.4570083             -12.4358
        53        2.0000           -0.4485939             -12.2069
        54        2.0000           -0.4441990             -12.0873
        55        2.0000           -0.4437051             -12.0738
        56        2.0000           -0.4406405             -11.9904
        57        2.0000           -0.4386210             -11.9355
        58        2.0000           -0.4191079             -11.4045
        59        2.0000           -0.4096079             -11.1460
        60        2.0000           -0.3983414             -10.8394
        61        2.0000           -0.3954088             -10.7596
        62        2.0000           -0.3877676             -10.5517
        63        1.0000           -0.3685937             -10.0299
        64        0.7590           -0.2741510              -7.4600 (HOMO)
        65        0.2410           -0.2719708              -7.4007 (LUMO)
        66                         -0.2555897              -6.9549
        67                         -0.2523761              -6.8675
        68                         -0.2383195              -6.4850
        69                         -0.2243299              -6.1043
        70                         -0.1967509              -5.3539
        71                         -0.1786346              -4.8609
        72                         -0.1316134              -3.5814
        73                         -0.1034599              -2.8153
        74                         -0.0750669              -2.0427
        75                         -0.0258789              -0.7042
       ...                                ...                  ...
       118                          0.6795216              18.4907
      -------------------------------------------------------------
                  HL-Gap            0.0021802 Eh            0.0593 eV

     #   Z          covCN         q      C6AA      α(0)
     1   6 C        3.759    -0.132    23.088     6.850
     2   6 C        2.823     0.252    22.778     7.820
     3   7 N        1.837    -0.306    28.785     7.951
     4   6 C        2.966     0.081    26.199     8.396
     5   6 C        2.917    -0.059    29.470     8.902
     6   6 C        2.926     0.018    27.616     8.618
     7   7 N        2.751     0.033    20.677     6.754
     8   6 C        2.929     0.038    27.157     8.546
     9   6 C        2.915    -0.041    29.030     8.835
    10   6 C        2.915    -0.027    28.677     8.781
    11   6 C        2.917    -0.025    28.630     8.774
    12   6 C        2.911    -0.047    29.167     8.856
    13   6 C        2.887     0.131    25.123     8.218
    14   8 O        1.711    -0.179    17.000     5.567
    15   6 C        2.888     0.132    25.108     8.215
    16   6 C        2.912    -0.047    29.171     8.856
    17   6 C        2.917    -0.023    28.588     8.768
    18   6 C        2.916    -0.027    28.675     8.781
    19   6 C        2.915    -0.041    29.028     8.835
    20   6 C        2.928     0.040    27.114     8.539
    21   6 C        2.912    -0.042    29.041     8.837
    22   6 C        2.915    -0.040    29.006     8.832
    23   6 C        2.967    -0.069    29.706     8.940
    24   6 C        2.714     0.308    21.769     7.637
    25   8 O        0.856    -0.525    24.346     6.615
    26   8 O        1.704    -0.309    19.155     5.909
    27   1 H        0.925     0.084     1.942     2.179
    28   1 H        0.925     0.079     1.987     2.204
    29   1 H        0.925     0.079     1.989     2.205
    30   1 H        0.926     0.054     2.267     2.355
    31   1 H        0.926     0.061     2.186     2.312
    32   1 H        0.926     0.062     2.170     2.304
    33   1 H        0.926     0.067     2.118     2.276
    34   1 H        0.926     0.074     2.037     2.232
    35   1 H        0.926     0.075     2.031     2.229
    36   1 H        0.926     0.068     2.104     2.268
    37   1 H        0.926     0.064     2.156     2.296
    38   1 H        0.926     0.063     2.164     2.301
    39   1 H        0.926     0.044     2.400     2.423
    40   1 H        0.926     0.035     2.521     2.483

molecular dipole:
                 x           y           z       tot (Debye)
 q only:       -6.006       1.397      -1.616
   full:       -5.725       1.230      -1.404      15.305

 projected vibrational frequencies (cm⁻¹)
eigval :       -0.00    -0.00     0.00     0.00     0.00     0.00
eigval :       21.99    29.36    34.13    71.50    83.39    92.64
eigval :      112.08   119.53   123.16   147.03   165.92   233.98
eigval :      238.35   268.53   276.59   278.87   286.75   317.36
eigval :      376.31   391.45   398.49   416.97   426.56   437.58
eigval :      460.28   469.07   487.78   494.88   529.07   535.40
eigval :      541.86   546.13   574.90   588.73   599.16   607.85
eigval :      649.32   657.89   662.17   671.34   681.21   742.50
eigval :      759.63   764.22   781.72   800.36   837.61   848.11
eigval :      850.65   863.09   864.27   889.90   894.34   896.31
eigval :      898.27   899.44   908.29   910.40   942.23   959.35
eigval :     1012.21  1026.78  1058.53  1064.11  1104.06  1119.88
eigval :     1128.40  1143.33  1156.61  1161.25  1176.65  1195.96
eigval :     1200.90  1213.51  1230.75  1243.16  1244.09  1253.50
eigval :     1281.38  1293.32  1329.89  1339.60  1360.13  1363.39
eigval :     1373.63  1377.25  1389.13  1403.93  1408.50  1421.37
eigval :     1434.94  1440.97  1451.58  1469.43  1472.66  1486.23
eigval :     1499.08  1568.88  1620.10  1653.22  3015.38  3026.69
eigval :     3073.96  3078.57  3096.62  3103.05  3103.59  3104.36
eigval :     3108.10  3108.25  3115.54  3116.17  3119.61  3120.22

   temp. (K)  partition function   enthalpy   heat capacity  entropy
                                   cal/mol     cal/K/mol   cal/K/mol   J/K/mol
 298.15  VIB  0.701E+08            11390.416     74.941     68.766
         ROT  0.125E+08              888.752      2.981     35.461
         INT  0.879E+15            12279.168     77.922    104.228
         TR   0.613E+28             1481.254      4.968     43.367
         TOT                       13760.4222    82.8905   147.5943   617.5347

       T/K    H(0)-H(T)+PV         H(T)/Eh          T*S/Eh         G(T)/Eh
   ------------------------------------------------------------------------
    298.15    0.219286E-01    0.310979E+00    0.701268E-01    0.240853E+00
   ------------------------------------------------------------------------

         :::::::::::::::::::::::::::::::::::::::::::::::::::::
         ::                  THERMODYNAMIC                  ::
         :::::::::::::::::::::::::::::::::::::::::::::::::::::
         :: total free energy         -69.914901104504 Eh   ::
         ::.................................................::
         :: total energy              -70.155753684550 Eh   ::
         :: zero point energy           0.289050784284 Eh   ::
         :: G(RRHO) w/o ZPVE           -0.048198204238 Eh   ::
         :: G(RRHO) contrib.            0.240852580046 Eh   ::
         :::::::::::::::::::::::::::::::::::::::::::::::::::::

           -------------------------------------------------
          | TOTAL ENERGY              -70.155753684550 Eh   |
          | TOTAL ENTHALPY            -69.844774271621 Eh   |
          | TOTAL FREE ENERGY         -69.914901104504 Eh   |
          | GRADIENT NORM               0.000030674138 Eh/α |
          | HOMO-LUMO GAP               0.059325116303 eV   |
           -------------------------------------------------

 * finished run on 2025/09/04 at 09:16:57.863
