   * xtb version 6.7.1 (edcfbbe) compiled by 'albert@albert-system' on 2024-07-22

   ID    Z sym.   atoms
    1    6 C      1-8, 10-23, 25-40
    2   15 P      9, 24
    3    1 H      41-80

          program call               : xtb data2507/toluene/LEt/LEt_toluene_S0_finalOpt.xtbopt.xyz --gfn 2 --uhf 2 --gbsa toluene --ohess vtight --parallel 40 --molden --ceasefiles --namespace data2507/toluene/LEt/LEt_toluene_T1_preOpt
      * Solvation model:               GBSA
        Solvent                        toluene
        Solvent mass                       9.2140E+01 g/mol
          :  Hamiltonian                  GFN2-xTB          :
 * total energy  :  -106.7304628 Eh     change       -0.1583207E-07 Eh
 * total energy  :  -106.7388237 Eh     change       -0.8360933E-02 Eh
 * total energy  :  -106.7418956 Eh     change       -0.3071943E-02 Eh
 * total energy  :  -106.7427889 Eh     change       -0.8932405E-03 Eh
 * total energy  :  -106.7434873 Eh     change       -0.6984638E-03 Eh
 * total energy  :  -106.7438155 Eh     change       -0.3281692E-03 Eh
 * total energy  :  -106.7442237 Eh     change       -0.4081953E-03 Eh
 * total energy  :  -106.7446973 Eh     change       -0.4735745E-03 Eh
 * total energy  :  -106.7451204 Eh     change       -0.4230770E-03 Eh
 * total energy  :  -106.7454647 Eh     change       -0.3443498E-03 Eh
 * total energy  :  -106.7471661 Eh     change       -0.4427237E-06 Eh
 * total energy  :  -106.7471665 Eh     change       -0.4015380E-06 Eh
 * total energy  :  -106.7471668 Eh     change       -0.3047259E-06 Eh
 * total energy  :  -106.7471671 Eh     change       -0.2868984E-06 Eh
 * total energy  :  -106.7471675 Eh     change       -0.3409228E-06 Eh
 * total energy  :  -106.7471678 Eh     change       -0.3817120E-06 Eh
 * total energy  :  -106.7471681 Eh     change       -0.2924171E-06 Eh
 * total energy  :  -106.7471683 Eh     change       -0.2025604E-06 Eh
 * total energy  :  -106.7471684 Eh     change       -0.9938286E-07 Eh
   *** GEOMETRY OPTIMIZATION CONVERGED AFTER 84 ITERATIONS ***

 final structure:
================
80
 xtb: 6.7.1 (edcfbbe)
C           -0.79539918652050        0.88361268784803       -3.26869925978344
C           -2.12171901679926        1.36412327016691       -2.68045706104639
C           -1.87865692310164        2.39364078476054       -1.61907972087356
C           -2.02010118498806        3.74547776398032       -1.89392821702844
C           -1.71984983752858        4.70737248882728       -0.94381153660343
C           -1.26387838423299        4.32102709522172        0.30927490868861
C           -1.13209251465166        2.97998598996094        0.60902026538122
C           -1.43828617650571        2.00808848477429       -0.34300865804331
P           -1.38761344982600        0.24058280618363        0.11107293353932
C           -3.14324263809866       -0.25249370591056        0.16205183648171
C           -4.14345540363028        0.70750678026803        0.34296279071357
C           -5.46549108279978        0.31916970234789        0.42779911855340
C           -5.80647529647245       -1.02040529628082        0.31757547174414
C           -4.81301194721362       -1.97285303214597        0.13008893266717
C           -3.48031090408519       -1.60824374957090        0.04847102013221
C           -2.40808257553044       -2.63297797624789       -0.17348072832127
C           -1.99483227785736       -2.70129029407032       -1.64277921960007
C           -0.88162113717248        0.19918868384448        1.82771610725088
C           -1.63699002774683        0.33210750440482        2.98184747136730
C           -1.00723236191627        0.26211996263013        4.20900782028642
C            0.38749974058303        0.03881747195080        4.28574134181115
C            1.13972305778237       -0.14679042306395        3.15443543387679
C            0.50577343854367       -0.14026234779585        1.90311512185321
P            1.20197985761410       -0.27612948872286        0.26605331094396
C            1.39452996615321       -2.07736481561512       -0.05073166380697
C            1.00170305416473       -2.98971400874675        0.92764353493053
C            1.04192194149798       -4.34737691745776        0.68005420612259
C            1.43549997578407       -4.80803728837342       -0.56792938102705
C            1.79838439461246       -3.90513345908143       -1.55206424486064
C            1.78451426573726       -2.53724466099320       -1.31391480914444
C            2.21698335384302       -1.58217131339746       -2.38582368854748
C            3.73470753986971       -1.58238592461267       -2.56665711995592
C            2.92571718855429        0.29467480985696        0.41304630685627
C            3.86047191207187       -0.58099101437176        0.98360207480009
C            5.12913857795136       -0.13576757009565        1.29136473639258
C            5.48464268944006        1.18101623616290        1.03772966667985
C            4.55927551465795        2.04799910758125        0.47049356739683
C            3.28013903288551        1.62423867557403        0.15115398990775
C            2.31516978535209        2.56024334971542       -0.51202044290413
C            2.62496037744938        2.72037621213308       -2.00002606068038
H           -0.16937617646178        0.47096932786061       -2.47730253864464
H           -0.96693730091002        0.11310734865831       -4.01690676225250
H           -0.26276139061957        1.71039772136903       -3.73316256278783
H           -2.74553679491957        1.78388241788629       -3.47230868589884
H           -2.65050335182019        0.50947099126988       -2.24472048532051
H           -2.36624661961278        4.05015047738231       -2.87206996980866
H           -1.83739933286246        5.75519410416471       -1.17839161099007
H           -1.01912007076388        5.06494562775812        1.05375248111273
H           -0.79011309681310        2.67400553309260        1.58896130966568
H           -3.87718211548662        1.75169889571938        0.42883605024659
H           -6.23298863169241        1.06457567838679        0.58160892528455
H           -6.84131097644531       -1.32392409152257        0.37651793166516
H           -5.08146134642338       -3.01711576885142        0.04900032907456
H           -1.52957844829156       -2.36492893844015        0.42548182968671
H           -2.75747252825953       -3.61415609892115        0.15442984992653
H           -2.85146791516009       -2.93704289363863       -2.27096380350517
H           -1.23186079152448       -3.46321201574121       -1.78216877654174
H           -1.58319393039468       -1.74271970503127       -1.95544303923252
H           -2.69997142805927        0.52728140019330        2.91694319231742
H           -1.57211694805460        0.40183828651040        5.11878454013342
H            0.85745392204665       -0.00082962942091        5.25871963390442
H            2.20323190360598       -0.33815925807396        3.21974626882031
H            0.68595398986496       -2.62248495561516        1.89628613163629
H            0.75947141945887       -5.04528091319770        1.45537882086350
H            1.45232162752896       -5.86866547184442       -0.77331800005171
H            2.09449282214503       -4.26616530847137       -2.52735042203034
H            1.74280996200837       -1.85268190650907       -3.33265500355552
H            1.88841639511035       -0.57341006293158       -2.10909065398068
H            4.08806796822766       -2.57649478378265       -2.83185558969032
H            4.22641205452081       -1.27675423869742       -1.64553121951934
H            4.02049923620185       -0.89133095930094       -3.35666708197341
H            3.58164957807542       -1.60873455285978        1.17390061397316
H            5.84444687271660       -0.81665211466545        1.73187568277052
H            6.47744606939199        1.53178696010894        1.27835144391515
H            4.84036700751088        3.07277988644419        0.27050530844661
H            2.35546748223882        3.53918158582347       -0.02792119841665
H            1.29839925551990        2.16352568478146       -0.39449902885433
H            3.63208519002543        3.10789544815076       -2.13886430455111
H            2.55417166830280        1.76105665424465       -2.50674612814686
H            1.92042105922577        3.41055765645540       -2.45798598718211

          :  Hamiltonian                  GFN2-xTB          :
         :: gradient norm              0.000051197483 Eh/a0 ::
         :: HOMO-LUMO gap              0.267154533128 eV    ::
         :: SCC energy              -108.639568399132 Eh    ::
         :: -> dispersion             -0.122201818905 Eh    ::
         :: -> Gsolv                  -0.037860877304 Eh    ::
         :: repulsion energy           1.892399952662 Eh    ::

    * Orbital Energies and Occupations

         #    Occupation            Energy/Eh            Energy/eV
      -------------------------------------------------------------
         1        2.0000           -0.6728643             -18.3096
       ...           ...                  ...                  ...
        90        2.0000           -0.4069448             -11.0735
        91        2.0000           -0.4041834             -10.9984
        92        2.0000           -0.3997977             -10.8790
        93        2.0000           -0.3991768             -10.8622
        94        2.0000           -0.3985626             -10.8454
        95        2.0000           -0.3972331             -10.8093
        96        2.0000           -0.3958347             -10.7712
        97        2.0000           -0.3926008             -10.6832
        98        2.0000           -0.3923209             -10.6756
        99        2.0000           -0.3866841             -10.5222
       100        2.0000           -0.3824726             -10.4076
       101        1.0000           -0.3361696              -9.1476
       102        0.9939           -0.2503556              -6.8125 (HOMO)
       103        0.0053           -0.2405380              -6.5454 (LUMO)
       104        0.0008           -0.2387568              -6.4969
       105        0.0000           -0.2324075              -6.3241
       106                         -0.2261753              -6.1545
       107                         -0.2231236              -6.0715
       108                         -0.2225256              -6.0552
       109                         -0.2201769              -5.9913
       110                         -0.2192897              -5.9672
       111                         -0.2170975              -5.9075
       112                         -0.1626097              -4.4248
       113                         -0.1424784              -3.8770
       ...                                ...                  ...
       210                          1.2555803              34.1661
      -------------------------------------------------------------
                  HL-Gap            0.0098176 Eh            0.2672 eV

     #   Z          covCN         q      C6AA      α(0)
     1   6 C        3.754    -0.093    22.339     6.740
     2   6 C        3.809    -0.053    21.512     6.602
     3   6 C        3.036     0.015    27.653     8.625
     4   6 C        2.923    -0.038    28.946     8.823
     5   6 C        2.917    -0.033    28.823     8.804
     6   6 C        2.918    -0.036    28.886     8.813
     7   6 C        2.989    -0.025    28.615     8.775
     8   6 C        2.921     0.015    27.686     8.629
     9  15 P        4.157    -0.094   164.456    23.036
    10   6 C        2.922     0.012    27.739     8.637
    11   6 C        2.982    -0.031    28.754     8.796
    12   6 C        2.918    -0.034    28.857     8.809
    13   6 C        2.917    -0.037    28.920     8.819
    14   6 C        2.923    -0.040    28.999     8.831
    15   6 C        3.041     0.014    27.670     8.628
    16   6 C        3.811    -0.050    21.458     6.594
    17   6 C        3.753    -0.094    22.348     6.741
    18   6 C        3.120    -0.002    27.906     8.652
    19   6 C        2.941    -0.028    28.712     8.788
    20   6 C        2.918    -0.056    29.383     8.889
    21   6 C        2.916    -0.043    29.079     8.843
    22   6 C        2.938    -0.033    28.823     8.805
    23   6 C        3.133    -0.007    27.972     8.658
    24  15 P        4.133    -0.116   165.462    23.107
    25   6 C        2.920     0.013    27.730     8.635
    26   6 C        2.987    -0.025    28.615     8.775
    27   6 C        2.918    -0.034    28.856     8.809
    28   6 C        2.918    -0.032    28.791     8.799
    29   6 C        2.924    -0.037    28.921     8.819
    30   6 C        3.028     0.017    27.605     8.618
    31   6 C        3.808    -0.052    21.500     6.601
    32   6 C        3.753    -0.095    22.374     6.745
    33   6 C        2.921     0.012    27.757     8.640
    34   6 C        3.004    -0.030    28.739     8.794
    35   6 C        2.917    -0.036    28.884     8.813
    36   6 C        2.917    -0.040    28.987     8.829
    37   6 C        2.923    -0.040    29.001     8.831
    38   6 C        3.027     0.013    27.694     8.632
    39   6 C        3.808    -0.049    21.451     6.593
    40   6 C        3.753    -0.094    22.361     6.743
    41   1 H        0.925     0.050     2.314     2.379
    42   1 H        0.925     0.041     2.440     2.443
    43   1 H        0.925     0.040     2.448     2.447
    44   1 H        0.924     0.038     2.477     2.461
    45   1 H        0.924     0.049     2.329     2.387
    46   1 H        0.925     0.035     2.521     2.483
    47   1 H        0.926     0.031     2.566     2.505
    48   1 H        0.926     0.029     2.604     2.523
    49   1 H        0.925     0.031     2.569     2.507
    50   1 H        0.926     0.030     2.592     2.518
    51   1 H        0.926     0.030     2.589     2.516
    52   1 H        0.926     0.030     2.587     2.515
    53   1 H        0.925     0.032     2.556     2.500
    54   1 H        0.924     0.049     2.331     2.388
    55   1 H        0.924     0.036     2.500     2.473
    56   1 H        0.925     0.039     2.465     2.455
    57   1 H        0.925     0.038     2.473     2.459
    58   1 H        0.925     0.051     2.304     2.374
    59   1 H        0.925     0.018     2.762     2.599
    60   1 H        0.926     0.012     2.857     2.643
    61   1 H        0.925     0.014     2.829     2.630
    62   1 H        0.925     0.017     2.782     2.608
    63   1 H        0.925     0.030     2.588     2.516
    64   1 H        0.926     0.029     2.607     2.525
    65   1 H        0.926     0.031     2.565     2.505
    66   1 H        0.925     0.036     2.502     2.474
    67   1 H        0.924     0.047     2.363     2.404
    68   1 H        0.924     0.056     2.243     2.342
    69   1 H        0.925     0.038     2.474     2.460
    70   1 H        0.925     0.034     2.528     2.486
    71   1 H        0.925     0.039     2.462     2.454
    72   1 H        0.925     0.029     2.598     2.520
    73   1 H        0.925     0.026     2.648     2.544
    74   1 H        0.926     0.026     2.643     2.543
    75   1 H        0.925     0.030     2.590     2.516
    76   1 H        0.924     0.035     2.515     2.480
    77   1 H        0.924     0.052     2.294     2.368
    78   1 H        0.925     0.038     2.469     2.457
    79   1 H        0.925     0.042     2.426     2.436
    80   1 H        0.925     0.038     2.471     2.458

molecular dipole:
                 x           y           z       tot (Debye)
 q only:        0.006      -0.156      -1.968
   full:       -0.027      -0.113      -1.393       3.553

 projected vibrational frequencies (cm⁻¹)
eigval :       -0.00    -0.00    -0.00     0.00     0.00     0.00
eigval :       13.02    22.45    30.24    30.96    41.69    43.67
eigval :       46.84    50.63    54.29    55.88    58.33    62.78
eigval :       63.79    78.79    89.41    97.43   102.65   110.71
eigval :      115.96   124.33   127.14   131.44   150.87   162.99
eigval :      166.89   172.62   183.05   184.92   192.43   198.68
eigval :      209.71   214.45   232.72   239.10   241.67   286.33
eigval :      298.18   301.90   306.49   306.96   336.12   354.35
eigval :      360.38   370.91   372.23   379.51   386.58   397.27
eigval :      403.06   411.77   423.44   430.62   438.01   450.18
eigval :      454.16   476.01   497.17   501.34   503.68   505.95
eigval :      542.36   543.54   547.06   547.18   590.31   650.23
eigval :      654.64   655.44   660.06   662.98   667.24   669.33
eigval :      674.68   688.74   707.44   723.76   758.63   760.89
eigval :      761.39   769.67   786.51   787.98   788.70   789.42
eigval :      815.14   815.97   816.69   821.40   828.44   861.09
eigval :      867.41   872.78   882.89   883.98   895.97   898.72
eigval :      900.46   904.57   912.51   913.99   916.33   916.83
eigval :      924.83   989.93   996.40   997.77   999.08  1000.38
eigval :     1009.43  1030.55  1032.08  1037.25  1038.92  1041.88
eigval :     1046.19  1051.00  1055.62  1070.02  1078.53  1078.97
eigval :     1079.58  1081.41  1089.77  1092.65  1094.07  1095.17
eigval :     1144.14  1147.08  1152.58  1154.19  1158.39  1172.30
eigval :     1175.25  1176.62  1177.46  1177.53  1188.42  1198.30
eigval :     1209.76  1213.04  1216.87  1226.26  1229.26  1230.24
eigval :     1232.02  1257.39  1257.46  1258.33  1260.54  1308.51
eigval :     1311.38  1312.75  1315.46  1316.11  1321.80  1323.04
eigval :     1325.69  1326.86  1340.84  1383.19  1399.90  1400.96
eigval :     1402.10  1403.68  1406.43  1409.65  1414.27  1414.85
eigval :     1439.57  1440.33  1442.29  1445.96  1456.74  1457.16
eigval :     1462.13  1467.28  1468.53  1486.04  1488.80  1490.58
eigval :     1492.51  1493.62  1494.31  1498.57  1499.72  1501.32
eigval :     1506.48  1515.77  1531.71  1537.28  1542.76  1546.53
eigval :     1557.78  1570.22  2895.07  2909.01  2917.19  2929.71
eigval :     2962.56  2963.90  2975.47  2976.22  2999.81  3014.34
eigval :     3027.54  3028.35  3028.84  3030.38  3030.48  3033.40
eigval :     3035.47  3037.22  3038.26  3040.50  3040.64  3043.57
eigval :     3045.53  3053.21  3055.82  3061.39  3062.19  3062.88
eigval :     3063.42  3063.86  3064.03  3065.30  3069.56  3071.81
eigval :     3072.14  3078.65  3082.37  3082.75  3084.85  3085.24

   temp. (K)  partition function   enthalpy   heat capacity  entropy
                                   cal/mol     cal/K/mol   cal/K/mol   J/K/mol
 298.15  VIB  0.470E+19            24048.021    143.397    152.952
         ROT  0.328E+08              888.752      2.981     37.372
         INT  0.154E+27            24936.773    146.378    190.325
         TR   0.128E+29             1481.254      4.968     44.826
         TOT                       26418.0273   151.3457   235.1504   983.8692

       T/K    H(0)-H(T)+PV         H(T)/Eh          T*S/Eh         G(T)/Eh
   ------------------------------------------------------------------------
    298.15    0.420998E-01    0.690575E+00    0.111728E+00    0.578848E+00
   ------------------------------------------------------------------------

         :::::::::::::::::::::::::::::::::::::::::::::::::::::
         ::                  THERMODYNAMIC                  ::
         :::::::::::::::::::::::::::::::::::::::::::::::::::::
         :: total free energy        -106.168320918550 Eh   ::
         ::.................................................::
         :: total energy             -106.747168449977 Eh   ::
         :: zero point energy           0.648475262201 Eh   ::
         :: G(RRHO) w/o ZPVE           -0.069627730774 Eh   ::
         :: G(RRHO) contrib.            0.578847531427 Eh   ::
         :::::::::::::::::::::::::::::::::::::::::::::::::::::

           -------------------------------------------------
          | TOTAL ENERGY             -106.747168449977 Eh   |
          | TOTAL ENTHALPY           -106.056593381505 Eh   |
          | TOTAL FREE ENERGY        -106.168320918550 Eh   |
          | GRADIENT NORM               0.000051613813 Eh/α |
          | HOMO-LUMO GAP               0.267150889578 eV   |
           -------------------------------------------------

 * finished run on 2025/09/12 at 10:07:09.668
