   * xtb version 6.7.1 (edcfbbe) compiled by 'albert@albert-system' on 2024-07-22

   ID    Z sym.   atoms
    1    6 C      1-8, 10-23, 25-40
    2   15 P      9, 24
    3    1 H      41-80

          program call               : xtb data2507/toluene/LEt/LEt_toluene_T1_crest.xyz --gfn 2 --uhf 2 --gbsa toluene --ohess vtight --parallel 40 --molden --ceasefiles --namespace data2507/toluene/LEt/LEt_toluene_T1_finalOpt
      * Solvation model:               GBSA
        Solvent                        toluene
        Solvent mass                       9.2140E+01 g/mol
          :  Hamiltonian                  GFN2-xTB          :
 * total energy  :  -106.7470003 Eh     change       -0.4715517E-08 Eh
 * total energy  :  -106.7471439 Eh     change       -0.1436568E-03 Eh
 * total energy  :  -106.7472786 Eh     change       -0.1346159E-03 Eh
 * total energy  :  -106.7473351 Eh     change       -0.5656165E-04 Eh
 * total energy  :  -106.7474045 Eh     change       -0.6941553E-04 Eh
 * total energy  :  -106.7474544 Eh     change       -0.4986979E-04 Eh
 * total energy  :  -106.7475026 Eh     change       -0.4823639E-04 Eh
 * total energy  :  -106.7475375 Eh     change       -0.3485821E-04 Eh
 * total energy  :  -106.7475565 Eh     change       -0.1898862E-04 Eh
 * total energy  :  -106.7475738 Eh     change       -0.1734880E-04 Eh
 * total energy  :  -106.7477555 Eh     change       -0.7421722E-06 Eh
 * total energy  :  -106.7477559 Eh     change       -0.4733677E-06 Eh
 * total energy  :  -106.7477563 Eh     change       -0.3569451E-06 Eh
 * total energy  :  -106.7477567 Eh     change       -0.3891139E-06 Eh
 * total energy  :  -106.7477571 Eh     change       -0.4064172E-06 Eh
 * total energy  :  -106.7477575 Eh     change       -0.3760602E-06 Eh
 * total energy  :  -106.7477578 Eh     change       -0.3002201E-06 Eh
 * total energy  :  -106.7477580 Eh     change       -0.2235362E-06 Eh
 * total energy  :  -106.7477580 Eh     change       -0.5296627E-08 Eh
   *** GEOMETRY OPTIMIZATION CONVERGED AFTER 44 ITERATIONS ***

 final structure:
================
80
 xtb: 6.7.1 (edcfbbe)
C           -3.46358540355209        1.09430934908138       -2.94238837897068
C           -1.98988582833468        1.26340132400803       -2.57449047969518
C           -1.80183548707579        2.27515256140584       -1.48295420228413
C           -1.99547020249012        3.62666664912708       -1.73700855853395
C           -1.83528561898272        4.57206737797453       -0.73874347911559
C           -1.47294853109077        4.17469092033839        0.53916671037208
C           -1.27539737665335        2.83441327361758        0.80984230243469
C           -1.43628171926243        1.88148927989397       -0.19312040664256
P           -1.24633280413213        0.09850790788061        0.19511915838217
C           -2.97362045741813       -0.46714455764750        0.29572929982727
C           -3.94746286514708        0.41476643717572        0.78029510084757
C           -5.25596450044803       -0.00371234880187        0.91063978798752
C           -5.61412239127614       -1.29118336696027        0.54031330112314
C           -4.64883055146803       -2.16326951811299        0.05368856958588
C           -3.32570226771109       -1.77127103057593       -0.06938175807476
C           -2.28482459008656       -2.74847860457017       -0.52630529875162
C           -1.83150950875099       -3.62593677843294        0.63979613773483
C           -0.60676708641940        0.01435299225811        1.85716083224864
C           -1.25920640994641       -0.05756407941207        3.08257300224986
C           -0.51320600812375       -0.15192496521504        4.23642669824719
C            0.90413890754452       -0.20552127826585        4.17919238136880
C            1.56352512059559       -0.19579244213123        2.97667118338066
C            0.81918613855748       -0.16455790821132        1.79185946975808
P            1.34633959333841       -0.09310471561765        0.09404652231711
C            1.52199921391391       -1.83840979125825       -0.45342490408064
C            1.63579104630387       -2.84893864030754        0.49736300060714
C            1.71446026970485       -4.17138989967895        0.10647095673408
C            1.64011106984768       -4.49710412445325       -1.24016121741371
C            1.49731763045429       -3.49698938176111       -2.18544700019568
C            1.44165889039102       -2.16057071622445       -1.81141976338966
C            1.34369305869365       -1.08200363448657       -2.84746682170888
C            2.71974378477913       -0.73224829704631       -3.41449838879559
C            3.06446142107092        0.51374624667858        0.08112350696089
C            4.12506583928785       -0.39601928395641        0.16798853984975
C            5.42111296272064        0.06028352932568        0.29347511376258
C            5.68048194628463        1.42275232282823        0.32695101188848
C            4.62968959603424        2.32688500611822        0.23399118635703
C            3.32190194972499        1.89313162440329        0.10978323516596
C            2.19561742217969        2.86817028878221       -0.04569535285273
C            1.82732289618214        3.04832247289151       -1.51747182093833
H           -3.57286145312273        0.34623556535967       -3.72430498797100
H           -4.03616164080661        0.77346199527352       -2.07456499411223
H           -3.87990627189119        2.03336376297380       -3.29997845198522
H           -1.59224528257511        0.29945390721515       -2.23224468188215
H           -1.43025300378776        1.57142543370899       -3.46138082871547
H           -2.26709516710576        3.94203922041766       -2.73465996395653
H           -1.99004623831386        5.61907232586736       -0.95608720915651
H           -1.34405793748496        4.90740245697935        1.32292989542699
H           -0.99525624853480        2.51330420126273        1.80554918159232
H           -3.66884835489022        1.42404449555952        1.05072397565752
H           -6.00142278183948        0.67914731993637        1.29370599798277
H           -6.64059201077877       -1.61550506678100        0.62767538894185
H           -4.93049901253539       -3.16693660349750       -0.23286718526636
H           -2.68241113310710       -3.37899717606643       -1.32463937707907
H           -1.41644678188515       -2.20213631335524       -0.91406897412703
H           -2.67496235322854       -4.16937813727399        1.06064314530373
H           -1.39488755356580       -3.00737272229507        1.42276182133779
H           -1.08225219534057       -4.33984675329871        0.30704891785288
H           -2.33957146964282        0.00533770854421        3.12643451282575
H           -1.00124041810782       -0.16242317182028        5.20017172163635
H            1.46145268039752       -0.27369855283633        5.10287707720451
H            2.64413639880423       -0.25917054520539        2.93388916902967
H            1.67261462468193       -2.58551676137704        1.54673882089339
H            1.82642978613557       -4.94783874161497        0.85006076102521
H            1.68733675445691       -5.53128069440411       -1.54977968722895
H            1.43000404222121       -3.75428499974811       -3.23345711218583
H            0.68866178951414       -1.40419911108032       -3.66040999293416
H            0.90997128454649       -0.18753958969495       -2.38277727514888
H            2.63209712749044        0.05137268070864       -4.16385358034134
H            3.17412215378106       -1.60630114856317       -3.87650480820428
H            3.37723111374272       -0.38193266690388       -2.62098545374551
H            3.92534907574941       -1.45785861241191        0.13813044902782
H            6.23355018238150       -0.64922647483209        0.36612322570813
H            6.69511189508835        1.78057107913024        0.42117364975677
H            4.83449822198977        3.38849322557269        0.25452081740915
H            2.47057139106366        3.83319853398386        0.38492047645809
H            1.31881577270157        2.48626906844174        0.49152483889750
H            2.68305182350831        3.41077574634896       -2.08332825800290
H            1.51197660255131        2.09472535267713       -1.93742405580926
H            1.00897432148771        3.75700225773173       -1.61747634391616

          :  Hamiltonian                  GFN2-xTB          :
         :: gradient norm              0.000044526589 Eh/a0 ::
         :: HOMO-LUMO gap              0.246687275275 eV    ::
         :: SCC energy              -108.641186105571 Eh    ::
         :: -> dispersion             -0.123067190998 Eh    ::
         :: -> Gsolv                  -0.037589685695 Eh    ::
         :: repulsion energy           1.893428116124 Eh    ::

    * Orbital Energies and Occupations

         #    Occupation            Energy/Eh            Energy/eV
      -------------------------------------------------------------
         1        2.0000           -0.6726887             -18.3048
       ...           ...                  ...                  ...
        90        2.0000           -0.4062748             -11.0553
        91        2.0000           -0.4033008             -10.9744
        92        2.0000           -0.4004150             -10.8958
        93        2.0000           -0.3990671             -10.8592
        94        2.0000           -0.3982388             -10.8366
        95        2.0000           -0.3967442             -10.7960
        96        2.0000           -0.3959766             -10.7751
        97        2.0000           -0.3935232             -10.7083
        98        2.0000           -0.3926366             -10.6842
        99        2.0000           -0.3856739             -10.4947
       100        2.0000           -0.3817929             -10.3891
       101        1.0000           -0.3353062              -9.1241
       102        0.9913           -0.2494032              -6.7866 (HOMO)
       103        0.0081           -0.2403378              -6.5399 (LUMO)
       104        0.0006           -0.2378916              -6.4734
       105        0.0001           -0.2357555              -6.4152
       106                         -0.2255096              -6.1364
       107                         -0.2238833              -6.0922
       108                         -0.2229277              -6.0662
       109                         -0.2200368              -5.9875
       110                         -0.2192754              -5.9668
       111                         -0.2153210              -5.8592
       112                         -0.1579509              -4.2981
       113                         -0.1419720              -3.8633
       ...                                ...                  ...
       210                          1.4183942              38.5965
      -------------------------------------------------------------
                  HL-Gap            0.0090654 Eh            0.2467 eV

     #   Z          covCN         q      C6AA      α(0)
     1   6 C        3.753    -0.096    22.388     6.747
     2   6 C        3.809    -0.052    21.508     6.602
     3   6 C        3.036     0.018    27.572     8.613
     4   6 C        2.924    -0.036    28.902     8.816
     5   6 C        2.918    -0.031    28.769     8.796
     6   6 C        2.918    -0.033    28.834     8.805
     7   6 C        2.985    -0.024    28.586     8.770
     8   6 C        2.922     0.017    27.635     8.621
     9  15 P        4.200    -0.114   165.396    23.102
    10   6 C        2.922     0.014    27.694     8.630
    11   6 C        2.996    -0.030    28.738     8.794
    12   6 C        2.917    -0.035    28.872     8.811
    13   6 C        2.917    -0.038    28.947     8.823
    14   6 C        2.924    -0.040    28.999     8.831
    15   6 C        3.033     0.015    27.644     8.624
    16   6 C        3.809    -0.050    21.460     6.594
    17   6 C        3.754    -0.090    22.275     6.730
    18   6 C        3.135    -0.003    27.883     8.643
    19   6 C        2.937    -0.029    28.723     8.790
    20   6 C        2.917    -0.056    29.379     8.888
    21   6 C        2.916    -0.048    29.188     8.859
    22   6 C        2.936    -0.031    28.782     8.799
    23   6 C        3.146    -0.007    27.923     8.645
    24  15 P        4.181    -0.114   165.392    23.102
    25   6 C        2.921     0.015    27.687     8.629
    26   6 C        2.987    -0.023    28.560     8.766
    27   6 C        2.918    -0.034    28.854     8.809
    28   6 C        2.918    -0.031    28.784     8.798
    29   6 C        2.923    -0.037    28.922     8.819
    30   6 C        3.032     0.015    27.638     8.623
    31   6 C        3.809    -0.051    21.485     6.598
    32   6 C        3.753    -0.094    22.356     6.742
    33   6 C        2.921     0.014    27.709     8.632
    34   6 C        2.987    -0.031    28.756     8.796
    35   6 C        2.917    -0.035    28.879     8.812
    36   6 C        2.917    -0.038    28.944     8.822
    37   6 C        2.922    -0.040    29.005     8.832
    38   6 C        3.037     0.015    27.653     8.625
    39   6 C        3.810    -0.050    21.460     6.594
    40   6 C        3.754    -0.092    22.313     6.736
    41   1 H        0.925     0.041     2.440     2.443
    42   1 H        0.925     0.033     2.546     2.495
    43   1 H        0.925     0.040     2.446     2.446
    44   1 H        0.924     0.058     2.218     2.329
    45   1 H        0.924     0.050     2.326     2.385
    46   1 H        0.926     0.038     2.471     2.458
    47   1 H        0.926     0.033     2.539     2.492
    48   1 H        0.926     0.031     2.578     2.511
    49   1 H        0.925     0.031     2.573     2.508
    50   1 H        0.925     0.029     2.597     2.520
    51   1 H        0.926     0.028     2.617     2.530
    52   1 H        0.926     0.029     2.606     2.524
    53   1 H        0.926     0.032     2.554     2.499
    54   1 H        0.924     0.043     2.413     2.429
    55   1 H        0.924     0.051     2.306     2.375
    56   1 H        0.925     0.038     2.480     2.463
    57   1 H        0.925     0.032     2.563     2.504
    58   1 H        0.925     0.038     2.482     2.464
    59   1 H        0.925     0.017     2.782     2.608
    60   1 H        0.926     0.010     2.889     2.658
    61   1 H        0.926     0.011     2.870     2.649
    62   1 H        0.925     0.014     2.831     2.631
    63   1 H        0.925     0.032     2.562     2.503
    64   1 H        0.926     0.029     2.606     2.525
    65   1 H        0.926     0.032     2.562     2.503
    66   1 H        0.925     0.037     2.495     2.470
    67   1 H        0.924     0.044     2.392     2.419
    68   1 H        0.924     0.056     2.241     2.341
    69   1 H        0.925     0.040     2.444     2.445
    70   1 H        0.925     0.037     2.485     2.465
    71   1 H        0.925     0.036     2.503     2.474
    72   1 H        0.926     0.031     2.571     2.507
    73   1 H        0.926     0.028     2.613     2.528
    74   1 H        0.926     0.028     2.611     2.527
    75   1 H        0.925     0.031     2.578     2.511
    76   1 H        0.924     0.035     2.519     2.482
    77   1 H        0.924     0.049     2.335     2.390
    78   1 H        0.925     0.039     2.462     2.454
    79   1 H        0.925     0.045     2.379     2.412
    80   1 H        0.925     0.037     2.485     2.465

molecular dipole:
                 x           y           z       tot (Debye)
 q only:       -0.261       0.126      -2.027
   full:       -0.229       0.105      -1.488       3.835

 projected vibrational frequencies (cm⁻¹)
eigval :       -0.00    -0.00    -0.00     0.00     0.00     0.00
eigval :        9.74    13.70    19.68    26.17    30.15    37.72
eigval :       38.92    41.01    46.30    51.49    55.90    60.10
eigval :       62.27    69.09    74.99    87.45   104.44   109.16
eigval :      114.99   120.36   121.61   132.52   148.22   158.03
eigval :      172.26   178.26   182.21   186.33   192.86   199.83
eigval :      212.10   219.97   221.83   226.56   229.53   280.68
eigval :      298.69   303.91   306.11   310.68   335.85   350.49
eigval :      358.82   367.00   372.28   383.38   392.89   393.35
eigval :      396.46   405.74   417.04   430.69   438.14   448.02
eigval :      454.14   476.30   495.07   499.55   504.11   506.45
eigval :      542.78   544.38   545.59   547.59   580.08   646.36
eigval :      653.03   654.81   657.45   666.99   668.27   669.77
eigval :      677.44   691.97   708.82   722.62   755.48   759.30
eigval :      768.79   770.56   787.82   788.24   788.77   789.69
eigval :      810.42   814.63   816.34   820.41   823.74   859.35
eigval :      861.84   880.79   884.50   885.24   896.27   899.14
eigval :      900.69   910.51   911.89   913.46   913.77   924.41
eigval :      927.73   986.24   996.95   997.42   999.87  1000.52
eigval :     1006.64  1028.70  1030.93  1034.51  1038.42  1040.19
eigval :     1045.37  1049.54  1055.33  1068.74  1077.83  1078.31
eigval :     1078.55  1082.08  1090.16  1092.65  1093.24  1094.78
eigval :     1144.33  1149.72  1153.31  1154.20  1160.58  1173.15
eigval :     1176.29  1177.13  1177.93  1179.92  1183.22  1201.38
eigval :     1206.80  1212.85  1216.39  1226.62  1227.78  1229.13
eigval :     1231.35  1257.08  1257.27  1257.46  1259.55  1308.67
eigval :     1309.94  1310.43  1313.15  1314.63  1319.48  1320.85
eigval :     1325.47  1327.86  1335.83  1392.00  1399.25  1402.81
eigval :     1404.82  1405.84  1407.87  1409.72  1416.94  1417.43
eigval :     1435.13  1443.75  1446.75  1449.15  1453.50  1457.94
eigval :     1461.09  1461.67  1463.58  1479.28  1487.49  1490.46
eigval :     1490.88  1492.81  1494.44  1498.84  1499.81  1501.03
eigval :     1506.25  1511.15  1535.27  1541.59  1551.30  1559.73
eigval :     1565.22  1569.97  2895.85  2899.76  2907.11  2907.84
eigval :     2960.28  2966.20  2969.45  2974.34  3016.52  3017.61
eigval :     3026.88  3027.69  3027.76  3029.43  3030.88  3031.24
eigval :     3032.87  3037.35  3037.51  3037.82  3038.05  3039.44
eigval :     3044.36  3047.95  3057.75  3061.46  3061.91  3062.89
eigval :     3063.67  3065.76  3066.22  3068.31  3068.96  3071.65
eigval :     3071.80  3076.77  3081.66  3083.34  3084.22  3084.79

   temp. (K)  partition function   enthalpy   heat capacity  entropy
                                   cal/mol     cal/K/mol   cal/K/mol   J/K/mol
 298.15  VIB  0.833E+20            24249.252    142.153    155.267
         ROT  0.324E+08              888.752      2.981     37.349
         INT  0.270E+28            25138.004    145.134    192.616
         TR   0.128E+29             1481.254      4.968     44.826
         TOT                       26619.2584   150.1024   237.4421   993.4578

       T/K    H(0)-H(T)+PV         H(T)/Eh          T*S/Eh         G(T)/Eh
   ------------------------------------------------------------------------
    298.15    0.424205E-01    0.690400E+00    0.112816E+00    0.577584E+00
   ------------------------------------------------------------------------

         :::::::::::::::::::::::::::::::::::::::::::::::::::::
         ::                  THERMODYNAMIC                  ::
         :::::::::::::::::::::::::::::::::::::::::::::::::::::
         :: total free energy        -106.170174231971 Eh   ::
         ::.................................................::
         :: total energy             -106.747757989520 Eh   ::
         :: zero point energy           0.647979676039 Eh   ::
         :: G(RRHO) w/o ZPVE           -0.070395918490 Eh   ::
         :: G(RRHO) contrib.            0.577583757549 Eh   ::
         :::::::::::::::::::::::::::::::::::::::::::::::::::::

           -------------------------------------------------
          | TOTAL ENERGY             -106.747757989520 Eh   |
          | TOTAL ENTHALPY           -106.057357825092 Eh   |
          | TOTAL FREE ENERGY        -106.170174231971 Eh   |
          | GRADIENT NORM               0.000044687015 Eh/α |
          | HOMO-LUMO GAP               0.246681391548 eV   |
           -------------------------------------------------

 * finished run on 2025/09/12 at 10:19:40.601
