   * xtb version 6.7.1 (edcfbbe) compiled by 'albert@albert-system' on 2024-07-22

   ID    Z sym.   atoms
    1    6 C      1-8, 10-23, 25-40
    2   15 P      9, 24
    3    1 H      41-80

          program call               : xtb data2507/toluene/LEt/LEt.xyz --gfn 2 --gbsa toluene --ohess vtight --parallel 40 --molden --ceasefiles --namespace data2507/toluene/LEt/LEt_toluene_S0_preOpt
      * Solvation model:               GBSA
        Solvent                        toluene
        Solvent mass                       9.2140E+01 g/mol
          :  Hamiltonian                  GFN2-xTB          :
 * total energy  :  -106.7992792 Eh     change       -0.1011927E-08 Eh
 * total energy  :  -106.8163479 Eh     change       -0.1706877E-01 Eh
 * total energy  :  -106.8228461 Eh     change       -0.6498122E-02 Eh
 * total energy  :  -106.8264980 Eh     change       -0.3651923E-02 Eh
 * total energy  :  -106.8297453 Eh     change       -0.3247331E-02 Eh
 * total energy  :  -106.8319090 Eh     change       -0.2163692E-02 Eh
 * total energy  :  -106.8330981 Eh     change       -0.1189102E-02 Eh
 * total energy  :  -106.8336127 Eh     change       -0.5145652E-03 Eh
 * total energy  :  -106.8338636 Eh     change       -0.2509492E-03 Eh
 * total energy  :  -106.8340993 Eh     change       -0.2356724E-03 Eh
 * total energy  :  -106.8361918 Eh     change       -0.2436828E-05 Eh
 * total energy  :  -106.8361934 Eh     change       -0.1603409E-05 Eh
 * total energy  :  -106.8361943 Eh     change       -0.8518977E-06 Eh
 * total energy  :  -106.8361946 Eh     change       -0.3574678E-06 Eh
 * total energy  :  -106.8361952 Eh     change       -0.6244208E-06 Eh
 * total energy  :  -106.8361955 Eh     change       -0.2107415E-06 Eh
 * total energy  :  -106.8361957 Eh     change       -0.2331899E-06 Eh
 * total energy  :  -106.8361959 Eh     change       -0.1919140E-06 Eh
 * total energy  :  -106.8361959 Eh     change       -0.2897346E-07 Eh
   *** GEOMETRY OPTIMIZATION CONVERGED AFTER 49 ITERATIONS ***

 final structure:
================
80
 xtb: 6.7.1 (edcfbbe)
C           -2.28180597592511        3.95969452240466       -2.03501364398742
C           -2.09258812052544        2.62502111040796       -1.32752903317973
C           -2.14904264936258        2.65828404412696        0.17472768225866
C           -2.44018046472833        3.80705003581474        0.89376858795514
C           -2.48106373693467        3.79281747802342        2.27860741128068
C           -2.22409974116941        2.62127434246940        2.96613743216719
C           -1.93088341016221        1.46526677555917        2.26447818615538
C           -1.90074980771107        1.46795399411603        0.87597803882773
P           -1.46343306637722       -0.00442829850924       -0.13299840681209
C           -3.14351289768809       -0.67989441738179       -0.46925020061158
C           -4.30224566168652       -0.06269526419856       -0.00466185501595
C           -5.54936964251497       -0.57065379640377       -0.31757521700125
C           -5.65405415401417       -1.69801733104138       -1.11461404414434
C           -4.50777540908468       -2.31055767532353       -1.58691753270298
C           -3.24568488257826       -1.82000153795497       -1.27493924928523
C           -2.03257887283368       -2.53752309805417       -1.79321955114207
C           -1.82738773662978       -3.87769038812075       -1.08665732059289
C           -0.92652776721792       -1.20519043503017        1.13433097167955
C           -1.73005094799144       -1.80278459788299        2.09362964543073
C           -1.17772560243757       -2.72210586144526        2.97163881054607
C            0.16395962965656       -3.05773021024981        2.87550021639504
C            0.96582690846849       -2.48524545103460        1.90109096558022
C            0.42956734238072       -1.54080621128094        1.03677822651524
P            1.22599537331704       -0.83231542410592       -0.44569848284211
C            2.87889298199422       -1.67265212215515       -0.40911054261556
C            3.00654202929049       -2.56891012016806       -1.47242881275688
C            4.14018431718237       -3.33723211892416       -1.64641056572191
C            5.18201829831917       -3.21471997185019       -0.74259333502354
C            5.06792695959892       -2.33050009555374        0.31352110852767
C            3.93163330391158       -1.54889758952340        0.50145745429890
C            3.90885790634216       -0.60834919092400        1.67235636166527
C            4.75578166624361        0.63465911546242        1.39588423792198
C            1.56780768528732        0.90049017356987        0.05179253129860
C            1.18716908233588        1.41467496239382        1.28698655064439
C            1.35349997244548        2.75558423160394        1.57812693506392
C            1.89387894371910        3.60404284670965        0.62836332303386
C            2.26834479773736        3.10178991233973       -0.60546569876793
C            2.10878447610574        1.75749838896072       -0.91316888953219
C            2.48133965197996        1.25070680464194       -2.27699131126770
C            1.27416567790131        1.27853458201111       -3.21450512929365
H           -3.26500522325489        4.37692008072052       -1.82758573514336
H           -1.52056745238934        4.67230721635148       -1.72422575510446
H           -2.19696233938152        3.81633446755939       -3.11019176617759
H           -2.85368470503648        1.91956927355584       -1.68291062874598
H           -1.11912217879443        2.20629460466735       -1.60782719434553
H           -2.63821478236592        4.73269282713714        0.37637969587431
H           -2.71016119844153        4.70033237395350        2.81912077439111
H           -2.24965110977380        2.60335529312960        4.04681240878401
H           -1.72353138921255        0.55546668559704        2.81025989831836
H           -4.22877699515474        0.82349047805321        0.61006181616140
H           -6.43785673615585       -0.08248658256640        0.05717338864770
H           -6.62580537678801       -2.09572546875222       -1.36985610512967
H           -4.59000120406460       -3.18500501397859       -2.21757311031211
H           -2.14477564789467       -2.71245519943559       -2.86656504936536
H           -1.14375923731018       -1.91525747496673       -1.64107845791933
H           -0.94171602889646       -4.37670699842202       -1.47351572746582
H           -2.68612746151240       -4.52827737058905       -1.23746413756126
H           -1.69600161461546       -3.72610260761475       -0.01715743448265
H           -2.78527884760918       -1.56595673541482        2.14099340413656
H           -1.79915490280487       -3.18888403213180        3.72299040327160
H            0.58566483299564       -3.78528982259099        3.55467459179571
H            2.00134977728352       -2.78181200816179        1.81164172948559
H            2.18578324860098       -2.65305895214118       -2.17482249743153
H            4.21173438465589       -4.02527609561882       -2.47644226313691
H            6.07826973276797       -3.80745189903856       -0.85766302685813
H            5.87896776290932       -2.24354109604814        1.02422508812172
H            2.88595346194366       -0.30752625630058        1.89322336127298
H            4.30953558222214       -1.12081118279426        2.55203993088088
H            5.78612905446804        0.35680751256301        1.18376407181153
H            4.74415590023340        1.29797169534426        2.25815900957120
H            4.36205544678555        1.17762129498031        0.53959244980478
H            0.76960692245353        0.75888741315852        2.03948926567627
H            1.05516588225852        3.13548082344435        2.54466935837104
H            2.02223794727658        4.65417432812451        0.84808711735440
H            2.69007366829516        3.76497253996260       -1.34862073514448
H            2.85159802878027        0.22411404491594       -2.19866015955193
H            3.28044516244335        1.86789723063671       -2.69500192555505
H            0.90969368783275        2.29667054326398       -3.33340655533813
H            1.54491007758224        0.88763603582627       -4.19263378557194
H            0.47140141302649        0.66618292011869       -2.80556256842349

          :  Hamiltonian                  GFN2-xTB          :
         :: gradient norm              0.000137499769 Eh/a0 ::
         :: HOMO-LUMO gap              2.836632375324 eV    ::
         :: SCC energy              -108.733646856541 Eh    ::
         :: -> dispersion             -0.123369112352 Eh    ::
         :: -> Gsolv                  -0.036968376147 Eh    ::
         :: repulsion energy           1.897450949552 Eh    ::

    * Orbital Energies and Occupations

         #    Occupation            Energy/Eh            Energy/eV
      -------------------------------------------------------------
         1        2.0000           -0.6659798             -18.1222
       ...           ...                  ...                  ...
        89        2.0000           -0.4103894             -11.1673
        90        2.0000           -0.4068487             -11.0709
        91        2.0000           -0.4036436             -10.9837
        92        2.0000           -0.4007937             -10.9062
        93        2.0000           -0.3974917             -10.8163
        94        2.0000           -0.3967392             -10.7958
        95        2.0000           -0.3944362             -10.7332
        96        2.0000           -0.3936245             -10.7111
        97        2.0000           -0.3924638             -10.6795
        98        2.0000           -0.3899689             -10.6116
        99        2.0000           -0.3869988             -10.5308
       100        2.0000           -0.3708727             -10.0920
       101        2.0000           -0.3514704              -9.5640 (HOMO)
       102                         -0.2472261              -6.7274 (LUMO)
       103                         -0.2397154              -6.5230
       104                         -0.2354331              -6.4065
       105                         -0.2338472              -6.3633
       106                         -0.2245158              -6.1094
       107                         -0.2225210              -6.0551
       108                         -0.2209136              -6.0114
       109                         -0.2204795              -5.9996
       110                         -0.2190423              -5.9604
       111                         -0.2167174              -5.8972
       112                         -0.1683383              -4.5807
       ...                                ...                  ...
       210                          1.1812275              32.1428
      -------------------------------------------------------------
                  HL-Gap            0.1042444 Eh            2.8366 eV

     #   Z          covCN         q      C6AA      α(0)
     1   6 C        3.751    -0.099    22.455     6.758
     2   6 C        3.822    -0.052    21.498     6.598
     3   6 C        3.057     0.014    27.654     8.624
     4   6 C        2.922    -0.041    29.030     8.836
     5   6 C        2.919    -0.033    28.821     8.804
     6   6 C        2.918    -0.037    28.930     8.820
     7   6 C        2.964    -0.028    28.706     8.788
     8   6 C        2.921     0.016    27.659     8.625
     9  15 P        3.875    -0.167   167.885    23.275
    10   6 C        2.918     0.015    27.688     8.629
    11   6 C        2.967    -0.031    28.764     8.797
    12   6 C        2.919    -0.036    28.894     8.815
    13   6 C        2.917    -0.032    28.804     8.801
    14   6 C        2.925    -0.038    28.951     8.824
    15   6 C        3.045     0.015    27.643     8.623
    16   6 C        3.810    -0.054    21.537     6.606
    17   6 C        3.753    -0.090    22.284     6.732
    18   6 C        3.069     0.026    27.355     8.576
    19   6 C        2.952    -0.027    28.680     8.784
    20   6 C        2.919    -0.033    28.829     8.805
    21   6 C        2.919    -0.031    28.767     8.795
    22   6 C        2.950    -0.031    28.780     8.799
    23   6 C        3.059     0.026    27.362     8.578
    24  15 P        3.908    -0.193   169.103    23.360
    25   6 C        2.916     0.013    27.730     8.635
    26   6 C        3.077    -0.028    28.620     8.771
    27   6 C        2.916    -0.036    28.892     8.814
    28   6 C        2.918    -0.031    28.776     8.797
    29   6 C        2.927    -0.039    28.974     8.827
    30   6 C        2.985     0.015    27.670     8.629
    31   6 C        3.807    -0.052    21.510     6.602
    32   6 C        3.753    -0.092    22.316     6.736
    33   6 C        2.920     0.030    27.320     8.571
    34   6 C        2.970    -0.021    28.527     8.761
    35   6 C        2.919    -0.034    28.837     8.806
    36   6 C        2.918    -0.031    28.772     8.796
    37   6 C        2.924    -0.039    28.967     8.826
    38   6 C        3.055     0.014    27.643     8.622
    39   6 C        3.812    -0.050    21.462     6.594
    40   6 C        3.753    -0.094    22.351     6.742
    41   1 H        0.925     0.037     2.486     2.466
    42   1 H        0.925     0.038     2.478     2.462
    43   1 H        0.925     0.039     2.469     2.457
    44   1 H        0.924     0.050     2.320     2.382
    45   1 H        0.924     0.061     2.184     2.311
    46   1 H        0.926     0.038     2.469     2.457
    47   1 H        0.926     0.027     2.626     2.534
    48   1 H        0.926     0.024     2.674     2.557
    49   1 H        0.926     0.028     2.622     2.532
    50   1 H        0.926     0.031     2.567     2.506
    51   1 H        0.926     0.028     2.618     2.530
    52   1 H        0.926     0.030     2.588     2.516
    53   1 H        0.925     0.033     2.537     2.491
    54   1 H        0.924     0.044     2.398     2.422
    55   1 H        0.925     0.066     2.130     2.282
    56   1 H        0.925     0.037     2.488     2.467
    57   1 H        0.925     0.037     2.495     2.470
    58   1 H        0.925     0.027     2.633     2.538
    59   1 H        0.925     0.032     2.552     2.498
    60   1 H        0.926     0.029     2.598     2.521
    61   1 H        0.926     0.030     2.584     2.514
    62   1 H        0.926     0.034     2.532     2.488
    63   1 H        0.925     0.040     2.452     2.449
    64   1 H        0.926     0.029     2.598     2.520
    65   1 H        0.926     0.029     2.604     2.524
    66   1 H        0.925     0.030     2.590     2.517
    67   1 H        0.925     0.046     2.370     2.408
    68   1 H        0.924     0.033     2.550     2.497
    69   1 H        0.925     0.036     2.509     2.477
    70   1 H        0.925     0.032     2.562     2.503
    71   1 H        0.925     0.031     2.567     2.505
    72   1 H        0.925     0.023     2.688     2.564
    73   1 H        0.926     0.022     2.706     2.572
    74   1 H        0.926     0.028     2.614     2.528
    75   1 H        0.925     0.032     2.563     2.503
    76   1 H        0.924     0.049     2.330     2.387
    77   1 H        0.924     0.034     2.534     2.489
    78   1 H        0.925     0.037     2.493     2.469
    79   1 H        0.925     0.039     2.462     2.454
    80   1 H        0.925     0.052     2.293     2.368

molecular dipole:
                 x           y           z       tot (Debye)
 q only:        0.088       0.173      -0.542
   full:        0.052       0.100       0.174       0.527

 projected vibrational frequencies (cm⁻¹)
eigval :       -0.00    -0.00    -0.00     0.00     0.00     0.00
eigval :       19.08    22.21    29.03    35.37    37.87    45.57
eigval :       45.86    50.92    55.77    65.54    66.66    70.14
eigval :       74.46    88.31    99.06   102.45   111.62   112.92
eigval :      127.20   132.55   146.46   147.64   156.60   174.04
eigval :      181.24   183.99   195.79   199.26   210.45   216.35
eigval :      221.69   238.35   243.16   247.99   263.05   290.07
eigval :      295.84   301.57   304.07   314.25   350.14   365.31
eigval :      376.42   386.54   396.18   408.16   408.86   417.56
eigval :      421.25   428.35   437.59   455.69   464.96   481.37
eigval :      486.39   490.20   499.21   502.57   512.97   518.15
eigval :      544.20   548.34   550.82   555.26   645.95   654.26
eigval :      659.61   666.18   668.25   674.27   682.34   684.70
eigval :      688.72   696.72   709.76   759.67   769.44   770.69
eigval :      771.36   775.09   780.13   790.47   791.47   795.56
eigval :      815.38   818.65   818.86   819.14   878.44   882.63
eigval :      885.31   886.71   887.78   911.28   915.57   917.58
eigval :      917.89   920.48   926.59   926.93   929.29   929.84
eigval :      934.56  1001.47  1001.57  1002.95  1003.72  1007.39
eigval :     1036.64  1039.30  1042.51  1044.03  1063.05  1063.60
eigval :     1067.48  1076.72  1078.11  1081.19  1081.38  1085.08
eigval :     1095.66  1101.72  1102.23  1105.29  1107.19  1127.77
eigval :     1152.02  1157.94  1158.82  1160.39  1163.30  1181.08
eigval :     1181.79  1182.93  1184.26  1185.52  1216.43  1220.56
eigval :     1221.60  1224.19  1229.45  1233.19  1234.51  1236.89
eigval :     1248.83  1261.27  1261.91  1262.68  1266.15  1308.21
eigval :     1309.69  1312.57  1313.32  1315.82  1317.98  1319.75
eigval :     1321.30  1334.94  1398.60  1405.32  1407.50  1407.81
eigval :     1413.82  1415.05  1416.11  1421.94  1425.41  1427.45
eigval :     1443.19  1452.65  1454.67  1458.21  1461.78  1463.00
eigval :     1475.01  1477.51  1491.15  1495.72  1496.28  1498.56
eigval :     1502.28  1502.52  1504.47  1508.88  1561.53  1565.64
eigval :     1567.44  1568.65  1571.52  1571.80  1585.18  1586.90
eigval :     1587.55  1590.05  2909.29  2924.79  2934.87  2947.76
eigval :     2951.74  2958.93  2965.08  3008.96  3020.60  3024.94
eigval :     3027.75  3028.00  3028.19  3029.08  3029.43  3032.25
eigval :     3032.59  3035.59  3035.73  3036.65  3042.33  3049.80
eigval :     3053.21  3058.33  3059.92  3060.00  3063.32  3063.65
eigval :     3065.95  3068.18  3069.20  3069.37  3071.23  3073.29
eigval :     3076.79  3080.30  3081.56  3082.31  3083.17  3099.66

   temp. (K)  partition function   enthalpy   heat capacity  entropy
                                   cal/mol     cal/K/mol   cal/K/mol   J/K/mol
 298.15  VIB  0.451E+18            23356.057    141.368    147.165
         ROT  0.334E+08              888.752      2.981     37.411
         INT  0.151E+26            24244.810    144.349    184.576
         TR   0.128E+29             1481.254      4.968     44.826
         TOT                       25726.0635   149.3171   229.4021   959.8183

       T/K    H(0)-H(T)+PV         H(T)/Eh          T*S/Eh         G(T)/Eh
   ------------------------------------------------------------------------
    298.15    0.409971E-01    0.695512E+00    0.108996E+00    0.586515E+00
   ------------------------------------------------------------------------

         :::::::::::::::::::::::::::::::::::::::::::::::::::::
         ::                  THERMODYNAMIC                  ::
         :::::::::::::::::::::::::::::::::::::::::::::::::::::
         :: total free energy        -106.249680487225 Eh   ::
         ::.................................................::
         :: total energy             -106.836195908882 Eh   ::
         :: zero point energy           0.654514658446 Eh   ::
         :: G(RRHO) w/o ZPVE           -0.067999236790 Eh   ::
         :: G(RRHO) contrib.            0.586515421656 Eh   ::
         :::::::::::::::::::::::::::::::::::::::::::::::::::::

           -------------------------------------------------
          | TOTAL ENERGY             -106.836195908882 Eh   |
          | TOTAL ENTHALPY           -106.140684158726 Eh   |
          | TOTAL FREE ENERGY        -106.249680487225 Eh   |
          | GRADIENT NORM               0.000137471336 Eh/α |
          | HOMO-LUMO GAP               2.836633327800 eV   |
           -------------------------------------------------

 * finished run on 2025/09/12 at 10:00:26.795
