   * xtb version 6.7.1 (edcfbbe) compiled by 'albert@albert-system' on 2024-07-22

   ID    Z sym.   atoms
    1    6 C      1-8, 10-23, 25-40
    2   15 P      9, 24
    3    1 H      41-80

          program call               : xtb data2507/toluene/LEt/LEt_toluene_S0_crest.xyz --gfn 2 --gbsa toluene --ohess vtight --parallel 40 --molden --ceasefiles --namespace data2507/toluene/LEt/LEt_toluene_S0_finalOpt
      * Solvation model:               GBSA
        Solvent                        toluene
        Solvent mass                       9.2140E+01 g/mol
          :  Hamiltonian                  GFN2-xTB          :
 * total energy  :  -106.8448001 Eh     change       -0.1328800E-08 Eh
 * total energy  :  -106.8449120 Eh     change       -0.1119194E-03 Eh
 * total energy  :  -106.8450123 Eh     change       -0.1002956E-03 Eh
 * total energy  :  -106.8450754 Eh     change       -0.6316722E-04 Eh
 * total energy  :  -106.8451650 Eh     change       -0.8951280E-04 Eh
 * total energy  :  -106.8452445 Eh     change       -0.7954335E-04 Eh
 * total energy  :  -106.8453234 Eh     change       -0.7894091E-04 Eh
 * total energy  :  -106.8453551 Eh     change       -0.3162848E-04 Eh
 * total energy  :  -106.8454154 Eh     change       -0.6035065E-04 Eh
 * total energy  :  -106.8454395 Eh     change       -0.2405914E-04 Eh
 * total energy  :  -106.8456400 Eh     change       -0.8225815E-06 Eh
 * total energy  :  -106.8456408 Eh     change       -0.7236470E-06 Eh
 * total energy  :  -106.8456413 Eh     change       -0.5705977E-06 Eh
 * total energy  :  -106.8456418 Eh     change       -0.4918778E-06 Eh
 * total energy  :  -106.8456422 Eh     change       -0.3255611E-06 Eh
 * total energy  :  -106.8456424 Eh     change       -0.2730632E-06 Eh
 * total energy  :  -106.8456426 Eh     change       -0.1701878E-06 Eh
 * total energy  :  -106.8456427 Eh     change       -0.1187126E-06 Eh
 * total energy  :  -106.8456427 Eh     change       -0.2782912E-08 Eh
   *** GEOMETRY OPTIMIZATION CONVERGED AFTER 44 ITERATIONS ***

 final structure:
================
80
 xtb: 6.7.1 (edcfbbe)
C           -0.91336093446542        0.54853959091938       -3.48500283280369
C           -2.17172802408148        1.13469871712314       -2.84686422707078
C           -1.80822115195180        2.17202925949698       -1.82454284238015
C           -1.79122176806667        3.51572707186227       -2.16980196616087
C           -1.42770928715111        4.48599930171669       -1.25172367450044
C           -1.07297179519131        4.11487426839692        0.03295412712784
C           -1.08505902841500        2.77854587099769        0.39319551965446
C           -1.45483358976932        1.79911890811428       -0.52233829324066
P           -1.45101900201520        0.00727537148427       -0.12114479594481
C           -3.25418991769408       -0.24351871023095        0.20163068637827
C           -4.13636682610421        0.81772190779516        0.37747850184248
C           -5.47969368495161        0.58817186836380        0.61531682196091
C           -5.95689734392018       -0.70983181847801        0.67599385986599
C           -5.08541966176899       -1.77022557004584        0.49805244480507
C           -3.73487025517664       -1.55536505179020        0.25967347414332
C           -2.81654045660534       -2.72064626704415        0.02711059792837
C           -2.69141303610957       -3.01600755078214       -1.46707587220130
C           -0.86356274644145        0.06658871284128        1.60997310655918
C           -1.62366161232510        0.06712902062255        2.76740054038535
C           -0.98609398041342        0.11345738656289        3.99939774640630
C            0.39608193562706        0.16065016696493        4.07316301691610
C            1.16373863008484        0.13357003362155        2.91717935758724
C            0.53415862334684        0.05918026024192        1.68604716297734
P            1.30654108655831        0.01977857380040        0.02734929523295
C            1.36224509650257       -1.79268832338621       -0.26787509687770
C            0.88560837425981       -2.70999869177846        0.66518856245544
C            0.88473557462033       -4.06555276642997        0.39236011680287
C            1.34964759956247       -4.52240406457041       -0.82889936060213
C            1.82016095212724       -3.61767743992230       -1.76257439395359
C            1.83986584711259       -2.25325706472980       -1.50018028717765
C            2.39726387521956       -1.31668895748136       -2.53277390906693
C            3.91828680204812       -1.42665761112143       -2.64060099354499
C            3.06088778937180        0.30615440928707        0.53279037446196
C            3.90205715134760       -0.73883006920371        0.90350234034069
C            5.20915009766213       -0.49436389650600        1.28488256274169
C            5.69173500104082        0.80320524454377        1.29648009578330
C            4.86052288677440        1.84712424222173        0.93040458067267
C            3.54538635991344        1.61721883277482        0.54821180806003
C            2.67637926103579        2.76708181009919        0.12654709691496
C            2.79398765129520        3.00849287524990       -1.37775906454548
H           -0.28551132074058        0.10087767503125       -2.71568605604783
H           -1.17542547242269       -0.21770006425634       -4.21115909927912
H           -0.34402212881676        1.32770208773293       -3.98716805294740
H           -2.80303813090610        1.57957916258798       -3.61941042259168
H           -2.74039181899460        0.33198422308532       -2.36583452180095
H           -2.06847230396436        3.80576092878703       -3.17408620975854
H           -1.42216890681472        5.52806699452312       -1.53787380959345
H           -0.78801093228235        4.86321221950419        0.75901710871831
H           -0.81710741608533        2.50130070962430        1.40381226604628
H           -3.76921692228361        1.83376896624560        0.33311443579644
H           -6.15148957924289        1.42327793029691        0.75527209783548
H           -7.00498401305862       -0.89579797474983        0.86259766093437
H           -5.45810287709798       -2.78446715118128        0.54618940872431
H           -1.82327606371784       -2.49488420332422        0.42743867030669
H           -3.19950978033556       -3.60368353273964        0.54360090646129
H           -3.67037685454713       -3.20910587522692       -1.90150017827276
H           -2.05580562996791       -3.88304155317642       -1.62986889750422
H           -2.24717983189055       -2.16259023528887       -1.97642783441607
H           -2.70359147413742        0.04330136094982        2.71408445234663
H           -1.57485897956132        0.12232154662297        4.90589217877017
H            0.88321310366855        0.21025591271318        5.03687587517568
H            2.24294504853710        0.15898988760761        2.98045320795657
H            0.52102356363931       -2.36474437849544        1.62317324908181
H            0.51569328292268       -4.76155647934620        1.13253538462825
H            1.34367473818213       -5.57974528135899       -1.05232089257970
H            2.17778442336825       -3.97323880939196       -2.71895868946198
H            1.95219004584257       -1.54149101806262       -3.50538294932546
H            2.13342965763840       -0.28847614083094       -2.26507340552191
H            4.21247460631016       -2.43930810009562       -2.90770218347968
H            4.38538254925003       -1.17143865150912       -1.69168824062255
H            4.29051222725295       -0.74512815135036       -3.40246367820675
H            3.52950000164936       -1.75413210562143        0.89939578925870
H            5.84829642578422       -1.31701921302469        1.57347224668908
H            6.71197960652303        1.00103805314976        1.59293770965909
H            5.23599305565459        2.86136028327647        0.94390602439840
H            2.97125914229257        3.67097206170977        0.66467156539485
H            1.63180873081902        2.55065325904646        0.37099606141878
H            3.82745160427098        3.20877171016072       -1.65323198305860
H            2.45657069478477        2.12842510074067       -1.92164131414471
H            2.17920350758262        3.85466960983472       -1.67499655991818

          :  Hamiltonian                  GFN2-xTB          :
         :: gradient norm              0.000030588432 Eh/a0 ::
         :: HOMO-LUMO gap              2.882696333646 eV    ::
         :: SCC energy              -108.743761771450 Eh    ::
         :: -> dispersion             -0.122107413326 Eh    ::
         :: -> Gsolv                  -0.037184400333 Eh    ::
         :: repulsion energy           1.898119053968 Eh    ::

    * Orbital Energies and Occupations

         #    Occupation            Energy/Eh            Energy/eV
      -------------------------------------------------------------
         1        2.0000           -0.6659009             -18.1201
       ...           ...                  ...                  ...
        89        2.0000           -0.4098259             -11.1519
        90        2.0000           -0.4070270             -11.0758
        91        2.0000           -0.4038386             -10.9890
        92        2.0000           -0.3997435             -10.8776
        93        2.0000           -0.3984533             -10.8425
        94        2.0000           -0.3974354             -10.8148
        95        2.0000           -0.3957579             -10.7691
        96        2.0000           -0.3938943             -10.7184
        97        2.0000           -0.3925784             -10.6826
        98        2.0000           -0.3921872             -10.6720
        99        2.0000           -0.3908048             -10.6343
       100        2.0000           -0.3724046             -10.1336
       101        2.0000           -0.3511763              -9.5560 (HOMO)
       102                         -0.2452391              -6.6733 (LUMO)
       103                         -0.2363492              -6.4314
       104                         -0.2356220              -6.4116
       105                         -0.2331605              -6.3446
       106                         -0.2251286              -6.1261
       107                         -0.2224780              -6.0539
       108                         -0.2209964              -6.0136
       109                         -0.2200850              -5.9888
       110                         -0.2196881              -5.9780
       111                         -0.2185012              -5.9457
       112                         -0.1776928              -4.8353
       ...                                ...                  ...
       210                          1.4129506              38.4483
      -------------------------------------------------------------
                  HL-Gap            0.1059371 Eh            2.8827 eV

     #   Z          covCN         q      C6AA      α(0)
     1   6 C        3.754    -0.094    22.357     6.742
     2   6 C        3.813    -0.050    21.455     6.593
     3   6 C        3.054     0.016    27.594     8.615
     4   6 C        2.924    -0.039    28.958     8.825
     5   6 C        2.918    -0.032    28.788     8.799
     6   6 C        2.919    -0.035    28.875     8.812
     7   6 C        2.968    -0.026    28.641     8.778
     8   6 C        2.919     0.025    27.437     8.590
     9  15 P        3.954    -0.172   168.101    23.290
    10   6 C        2.919     0.014    27.711     8.632
    11   6 C        2.965    -0.029    28.731     8.792
    12   6 C        2.918    -0.036    28.899     8.815
    13   6 C        2.918    -0.032    28.808     8.802
    14   6 C        2.924    -0.040    28.993     8.830
    15   6 C        3.045     0.014    27.667     8.627
    16   6 C        3.812    -0.050    21.458     6.594
    17   6 C        3.754    -0.093    22.325     6.737
    18   6 C        3.079     0.024    27.374     8.578
    19   6 C        2.946    -0.031    28.765     8.796
    20   6 C        2.920    -0.032    28.790     8.799
    21   6 C        2.919    -0.032    28.793     8.799
    22   6 C        2.945    -0.031    28.766     8.797
    23   6 C        3.080     0.025    27.370     8.577
    24  15 P        3.944    -0.174   168.180    23.296
    25   6 C        2.918     0.024    27.470     8.595
    26   6 C        2.971    -0.025    28.633     8.777
    27   6 C        2.918    -0.035    28.866     8.810
    28   6 C        2.917    -0.031    28.783     8.798
    29   6 C        2.925    -0.037    28.926     8.820
    30   6 C        3.045     0.016    27.605     8.617
    31   6 C        3.810    -0.052    21.502     6.601
    32   6 C        3.752    -0.094    22.363     6.744
    33   6 C        2.918     0.016    27.663     8.625
    34   6 C        2.968    -0.028    28.695     8.787
    35   6 C        2.918    -0.037    28.913     8.818
    36   6 C        2.918    -0.032    28.803     8.801
    37   6 C        2.924    -0.039    28.979     8.828
    38   6 C        3.041     0.015    27.649     8.624
    39   6 C        3.811    -0.050    21.462     6.594
    40   6 C        3.754    -0.091    22.301     6.734
    41   1 H        0.925     0.055     2.257     2.349
    42   1 H        0.925     0.038     2.479     2.462
    43   1 H        0.925     0.038     2.479     2.462
    44   1 H        0.924     0.035     2.515     2.480
    45   1 H        0.924     0.048     2.349     2.397
    46   1 H        0.925     0.032     2.555     2.500
    47   1 H        0.926     0.029     2.598     2.521
    48   1 H        0.926     0.026     2.643     2.542
    49   1 H        0.925     0.023     2.688     2.564
    50   1 H        0.925     0.028     2.610     2.526
    51   1 H        0.926     0.026     2.639     2.540
    52   1 H        0.926     0.028     2.608     2.525
    53   1 H        0.925     0.030     2.587     2.515
    54   1 H        0.924     0.048     2.340     2.392
    55   1 H        0.924     0.034     2.534     2.489
    56   1 H        0.925     0.036     2.501     2.473
    57   1 H        0.925     0.037     2.490     2.468
    58   1 H        0.925     0.047     2.359     2.402
    59   1 H        0.925     0.030     2.590     2.517
    60   1 H        0.926     0.029     2.594     2.519
    61   1 H        0.926     0.029     2.594     2.519
    62   1 H        0.925     0.030     2.587     2.515
    63   1 H        0.925     0.023     2.687     2.563
    64   1 H        0.926     0.026     2.647     2.544
    65   1 H        0.926     0.029     2.599     2.521
    66   1 H        0.926     0.034     2.528     2.486
    67   1 H        0.924     0.045     2.381     2.413
    68   1 H        0.925     0.055     2.254     2.348
    69   1 H        0.925     0.037     2.490     2.468
    70   1 H        0.925     0.032     2.555     2.499
    71   1 H        0.925     0.038     2.481     2.463
    72   1 H        0.925     0.030     2.589     2.516
    73   1 H        0.926     0.026     2.647     2.544
    74   1 H        0.926     0.028     2.611     2.527
    75   1 H        0.925     0.030     2.584     2.514
    76   1 H        0.924     0.034     2.532     2.488
    77   1 H        0.924     0.049     2.336     2.390
    78   1 H        0.925     0.037     2.489     2.467
    79   1 H        0.925     0.042     2.416     2.431
    80   1 H        0.925     0.037     2.491     2.468

molecular dipole:
                 x           y           z       tot (Debye)
 q only:        0.175      -0.077      -0.813
   full:        0.128      -0.050      -0.141       0.501

 projected vibrational frequencies (cm⁻¹)
eigval :       -0.00    -0.00    -0.00    -0.00     0.00     0.00
eigval :       17.84    23.93    27.24    32.21    37.33    38.81
eigval :       45.38    50.95    53.22    57.81    59.53    62.11
eigval :       71.18    76.22    91.73    95.69   103.18   115.40
eigval :      118.48   122.27   130.36   138.04   168.70   178.48
eigval :      182.04   187.42   191.88   193.66   203.51   207.61
eigval :      213.98   223.05   228.31   236.12   251.84   294.51
eigval :      301.14   303.11   308.80   311.35   362.64   369.11
eigval :      370.84   380.53   386.63   397.49   410.32   416.70
eigval :      422.03   433.60   443.83   457.13   467.02   474.44
eigval :      480.86   495.91   505.16   506.70   510.29   517.13
eigval :      548.14   548.83   551.37   553.03   654.72   662.98
eigval :      663.86   672.14   673.92   679.85   686.25   689.81
eigval :      690.97   692.43   703.54   764.55   772.60   772.94
eigval :      774.36   777.11   790.48   791.57   792.03   792.27
eigval :      810.73   812.23   816.83   820.34   879.55   882.84
eigval :      883.14   884.39   884.84   910.04   915.29   916.48
eigval :      917.00   917.85   927.92   929.00   929.46   930.10
eigval :      934.64  1000.68  1002.03  1002.44  1003.19  1003.83
eigval :     1038.57  1039.92  1040.24  1046.24  1061.97  1062.47
eigval :     1065.18  1066.34  1077.77  1078.39  1080.29  1081.81
eigval :     1084.86  1100.63  1100.99  1102.87  1104.13  1129.08
eigval :     1156.54  1158.70  1159.89  1160.32  1160.76  1181.39
eigval :     1182.55  1182.79  1183.76  1185.91  1220.96  1221.94
eigval :     1223.17  1226.74  1228.94  1229.51  1229.66  1233.33
eigval :     1235.79  1260.91  1261.28  1263.94  1264.45  1309.55
eigval :     1312.17  1312.38  1314.34  1314.95  1316.37  1317.64
eigval :     1318.02  1319.54  1399.82  1400.62  1402.43  1407.71
eigval :     1414.99  1418.28  1422.96  1423.84  1425.64  1425.96
eigval :     1454.38  1454.83  1455.75  1456.10  1462.91  1472.37
eigval :     1473.01  1474.66  1487.22  1488.15  1490.28  1491.91
eigval :     1494.22  1496.00  1497.55  1500.83  1563.70  1567.19
eigval :     1569.52  1571.90  1572.15  1572.50  1585.97  1586.10
eigval :     1586.54  1586.84  2934.31  2934.78  2942.91  2943.04
eigval :     2962.29  2968.73  2970.30  2970.78  3013.94  3020.55
eigval :     3023.24  3025.18  3027.77  3027.93  3028.25  3031.37
eigval :     3032.27  3033.92  3035.12  3037.21  3059.21  3059.29
eigval :     3059.82  3059.99  3060.60  3061.77  3061.83  3062.66
eigval :     3063.54  3063.71  3069.16  3069.42  3069.71  3070.10
eigval :     3070.63  3079.72  3080.65  3080.92  3081.06  3081.65

   temp. (K)  partition function   enthalpy   heat capacity  entropy
                                   cal/mol     cal/K/mol   cal/K/mol   J/K/mol
 298.15  VIB  0.168E+19            23536.633    140.781    149.153
         ROT  0.328E+08              888.752      2.981     37.374
         INT  0.550E+26            24425.385    143.762    186.527
         TR   0.128E+29             1481.254      4.968     44.826
         TOT                       25906.6389   148.7300   231.3532   967.9819

       T/K    H(0)-H(T)+PV         H(T)/Eh          T*S/Eh         G(T)/Eh
   ------------------------------------------------------------------------
    298.15    0.412849E-01    0.695282E+00    0.109923E+00    0.585358E+00
   ------------------------------------------------------------------------

         :::::::::::::::::::::::::::::::::::::::::::::::::::::
         ::                  THERMODYNAMIC                  ::
         :::::::::::::::::::::::::::::::::::::::::::::::::::::
         :: total free energy        -106.260284222727 Eh   ::
         ::.................................................::
         :: total energy             -106.845642717950 Eh   ::
         :: zero point energy           0.653997026861 Eh   ::
         :: G(RRHO) w/o ZPVE           -0.068638531638 Eh   ::
         :: G(RRHO) contrib.            0.585358495223 Eh   ::
         :::::::::::::::::::::::::::::::::::::::::::::::::::::

           -------------------------------------------------
          | TOTAL ENERGY             -106.845642717950 Eh   |
          | TOTAL ENTHALPY           -106.150360834185 Eh   |
          | TOTAL FREE ENERGY        -106.260284222727 Eh   |
          | GRADIENT NORM               0.000030592757 Eh/α |
          | HOMO-LUMO GAP               2.882696270653 eV   |
           -------------------------------------------------

 * finished run on 2025/09/12 at 10:06:59.026
