   * xtb version 6.7.1 (edcfbbe) compiled by 'albert@albert-system' on 2024-07-22

   ID    Z sym.   atoms
    1    6 C      1-36
    2    1 H      37-80

          program call               : xtb data2507/toluene/TBPe/TBPe_toluene_S0_crest.xyz --gfn 2 --gbsa toluene --ohess vtight --parallel 40 --molden --ceasefiles --namespace data2507/toluene/TBPe/TBPe_toluene_S0_finalOpt
      * Solvation model:               GBSA
        Solvent                        toluene
        Solvent mass                       9.2140E+01 g/mol
          :  Hamiltonian                  GFN2-xTB          :
 * total energy  :   -99.6704346 Eh     change       -0.5741896E-09 Eh
 * total energy  :   -99.6704663 Eh     change       -0.3172363E-04 Eh
 * total energy  :   -99.6704759 Eh     change       -0.9585577E-05 Eh
 * total energy  :   -99.6704795 Eh     change       -0.3551618E-05 Eh
 * total energy  :   -99.6704826 Eh     change       -0.3115016E-05 Eh
 * total energy  :   -99.6704845 Eh     change       -0.1965406E-05 Eh
 * total energy  :   -99.6704858 Eh     change       -0.1220215E-05 Eh
 * total energy  :   -99.6704861 Eh     change       -0.3783273E-06 Eh
 * total energy  :   -99.6704864 Eh     change       -0.2896356E-06 Eh
 * total energy  :   -99.6704869 Eh     change       -0.4316419E-06 Eh
 * total energy  :   -99.6704873 Eh     change       -0.4537223E-06 Eh
 * total energy  :   -99.6704877 Eh     change       -0.3419838E-06 Eh
 * total energy  :   -99.6704879 Eh     change       -0.2219860E-06 Eh
 * total energy  :   -99.6704879 Eh     change       -0.1863505E-07 Eh
   *** GEOMETRY OPTIMIZATION CONVERGED AFTER 14 ITERATIONS ***

 final structure:
================
80
 xtb: 6.7.1 (edcfbbe)
C            3.18166507597784        4.55465298431535        1.27665095332877
C            3.58889136550056        3.77491098396855        0.01748468739562
C            5.11333170008673        3.62558796814405        0.02326254554765
C            3.19186202522483        4.56580341428479       -1.23796755595045
C            2.87278900857021        2.43191962633599        0.00858071154808
C            3.53023468636544        1.22783955633431        0.00333964265122
C            2.82813356101048        0.00565820566718       -0.00326866270839
C            3.53515790379127       -1.21369348649855       -0.00835727046653
C            2.88256707902341       -2.42040572823215       -0.01514677679268
C            3.60397327111849       -3.76055655585940       -0.02263071858859
C            3.20804655432824       -4.53823695319266       -1.28666065778714
C            3.20189785073363       -4.55658615570029        1.22799067847690
C            5.12781732697550       -3.60528975223830       -0.01753736526891
C            1.47902170430792       -2.40573107096150       -0.01469421864194
C            0.73248668786163       -1.24301608001359       -0.00766703680085
C           -0.72746010304274       -1.24598527682309       -0.00288300912691
C           -1.46928397996044       -2.41171719394625        0.00485857355878
C           -2.87275680013450       -2.43204021950286        0.00811904114180
C           -3.58887330790465       -3.77500533396028        0.01807768133493
C           -3.18267245096437       -4.55307313099118        1.27860989748688
C           -5.11330731310802       -3.62564660232177        0.02263703913264
C           -3.19102617776515       -4.56751785129772       -1.23608683406604
C           -3.53021064689403       -1.22797755485636        0.00171573813238
C           -2.82811954855063       -0.00580576959380       -0.00488857847937
C           -3.53520008370786        1.21348369774550       -0.01054122574015
C           -2.88268931460745        2.42023480381869       -0.01660481882217
C           -3.60440909300869        3.76021944430414       -0.02409530301100
C           -3.20344637364903        4.54137904326198       -1.28438187031897
C           -5.12821872250054        3.60447960875308       -0.02610673859765
C           -3.20784406715876        4.55299331321916        1.23032672044681
C           -1.47912994985042        2.40566371259597       -0.01465048428803
C           -0.73252007093099        1.24297336239654       -0.00783818883144
C            0.72744804268126        1.24592106106746       -0.00249343135819
C            1.46930737747832        2.41163372045880        0.00479125262934
C            1.41250807873164        0.00282731888001       -0.00443807768324
C           -1.41250695825383       -0.00289853148140       -0.00530359581082
H            3.43730243931845        3.98673564049310        2.16937304681649
H            3.70505957232520        5.50806730874665        1.31192075094094
H            2.11348245844180        4.75358819477509        1.29586062032834
H            5.45801111311675        3.10055904328914       -0.86484873961535
H            5.44997978355803        3.09004365033908        0.90818534982109
H            5.57450348853198        4.61138261143136        0.03115265182591
H            2.12393316146102        4.76545258153739       -1.26354411894718
H            3.71599687622081        5.51918665249599       -1.26086507590269
H            3.45405632483938        4.00560126593995       -2.13365752204782
H            4.60718165087528        1.17555340647330        0.00450378459093
H            4.61188717364308       -1.15708482186289       -0.00713983029854
H            3.46841622216088       -3.96733125175196       -2.17611552455352
H            2.14051575293474       -4.73984115883952       -1.31387071848262
H            3.73426507357001       -5.49014288221987       -1.32060051815245
H            3.73138948232569       -5.50695495651992        1.25273753388496
H            3.45394186707350       -3.99694528174916        2.12694705669965
H            2.13504941415996       -4.76271373960629        1.24498119728418
H            5.46888593904576       -3.06788080429534       -0.89961720905761
H            5.46378996130415       -3.07941833908978        0.87342000802520
H            5.59291001512462       -4.58926009400073       -0.02267328072881
H            0.96972361256133       -3.35477058278915       -0.02019108626862
H           -0.95615938206490       -3.35870447103178        0.00908637352180
H           -3.70553241679544       -5.50675749544877        1.31442255262799
H           -2.11440386592806       -4.75133882044401        1.29912650025394
H           -3.43951804863550       -3.98428206781434        2.17042782942760
H           -5.57457859539268       -4.61137771636952        0.03229260678064
H           -5.45052215306451       -3.08822150447054        0.90619511438625
H           -5.45730359786210       -3.10242819424416       -0.86679873462491
H           -3.71595346935610       -5.52047339315701       -1.25860464041112
H           -2.12325111361075       -4.76815328485696       -1.26009437761750
H           -3.45161571933674       -4.00805754350155       -2.13271403479222
H           -4.60715304267191       -1.17567448319517        0.00216010982385
H           -4.61191760069693        1.15676060186119       -0.01010852940107
H           -3.45908465630529        3.97236296552759       -2.17640237409399
H           -3.73065533101218        5.49272902011488       -1.31841942985821
H           -2.13609440279892        4.74446264209901       -1.30625031431030
H           -5.59358850126320        4.58830504367658       -0.03332211961590
H           -5.46477682824353        3.06709717429353       -0.90994214107694
H           -5.46841813025179        3.07837693328572        0.86310863282674
H           -3.73664038064984        5.50376101736778        1.25473606589762
H           -2.14087176330165        4.75798489447923        1.25291238779672
H           -3.46471784059411        3.99146146124887        2.12673544426128
H           -0.96989500350895        3.35475016693492       -0.01876106343257
H            0.95619379207738        3.35863160906764        0.00812440189429

          :  Hamiltonian                  GFN2-xTB          :
         :: gradient norm              0.000107757587 Eh/a0 ::
         :: HOMO-LUMO gap              1.930059184695 eV    ::
         :: SCC energy              -101.396726979971 Eh    ::
         :: -> dispersion             -0.095701135371 Eh    ::
         :: -> Gsolv                  -0.036353253404 Eh    ::
         :: repulsion energy           1.726239087648 Eh    ::

    * Orbital Energies and Occupations

         #    Occupation            Energy/Eh            Energy/eV
      -------------------------------------------------------------
         1        2.0000           -0.6450484             -17.5527
       ...           ...                  ...                  ...
        82        2.0000           -0.4246534             -11.5554
        83        2.0000           -0.4192247             -11.4077
        84        2.0000           -0.4187627             -11.3951
        85        2.0000           -0.4183509             -11.3839
        86        2.0000           -0.4146573             -11.2834
        87        2.0000           -0.4068724             -11.0716
        88        2.0000           -0.3942866             -10.7291
        89        2.0000           -0.3915880             -10.6557
        90        2.0000           -0.3906719             -10.6307
        91        2.0000           -0.3885289             -10.5724
        92        2.0000           -0.3854028             -10.4873
        93        2.0000           -0.3834780             -10.4350
        94        2.0000           -0.3464905              -9.4285 (HOMO)
        95                         -0.2755621              -7.4984 (LUMO)
        96                         -0.2198080              -5.9813
        97                         -0.2164430              -5.8897
        98                         -0.2145989              -5.8395
        99                         -0.2134218              -5.8075
       100                         -0.1491892              -4.0596
       101                         -0.1474015              -4.0110
       102                         -0.1098626              -2.9895
       103                         -0.0664289              -1.8076
       104                         -0.0138320              -0.3764
       105                          0.0588031               1.6001
       ...                                ...                  ...
       188                          0.7505866              20.4245
      -------------------------------------------------------------
                  HL-Gap            0.0709284 Eh            1.9301 eV

     #   Z          covCN         q      C6AA      α(0)
     1   6 C        3.761    -0.103    22.506     6.763
     2   6 C        3.903     0.025    20.105     6.374
     3   6 C        3.761    -0.106    22.578     6.774
     4   6 C        3.761    -0.103    22.505     6.763
     5   6 C        2.967     0.005    27.917     8.667
     6   6 C        2.929    -0.051    29.273     8.873
     7   6 C        2.983     0.004    27.935     8.670
     8   6 C        2.929    -0.051    29.273     8.873
     9   6 C        2.967     0.005    27.917     8.667
    10   6 C        3.903     0.025    20.105     6.374
    11   6 C        3.761    -0.103    22.506     6.763
    12   6 C        3.761    -0.103    22.505     6.763
    13   6 C        3.761    -0.106    22.578     6.774
    14   6 C        2.931    -0.045    29.124     8.850
    15   6 C        2.971    -0.001    28.039     8.686
    16   6 C        2.971    -0.001    28.039     8.686
    17   6 C        2.931    -0.045    29.124     8.850
    18   6 C        2.967     0.005    27.917     8.667
    19   6 C        3.903     0.025    20.105     6.374
    20   6 C        3.761    -0.103    22.506     6.763
    21   6 C        3.761    -0.106    22.578     6.774
    22   6 C        3.761    -0.103    22.505     6.763
    23   6 C        2.929    -0.051    29.273     8.873
    24   6 C        2.983     0.004    27.936     8.670
    25   6 C        2.929    -0.051    29.273     8.873
    26   6 C        2.967     0.005    27.917     8.667
    27   6 C        3.903     0.025    20.105     6.374
    28   6 C        3.761    -0.103    22.506     6.763
    29   6 C        3.761    -0.106    22.578     6.774
    30   6 C        3.761    -0.103    22.505     6.763
    31   6 C        2.931    -0.045    29.124     8.850
    32   6 C        2.971    -0.001    28.039     8.686
    33   6 C        2.971    -0.001    28.039     8.686
    34   6 C        2.931    -0.045    29.124     8.850
    35   6 C        2.998    -0.006    28.152     8.704
    36   6 C        2.998    -0.006    28.152     8.704
    37   1 H        0.925     0.032     2.562     2.503
    38   1 H        0.925     0.038     2.479     2.462
    39   1 H        0.925     0.035     2.519     2.482
    40   1 H        0.925     0.035     2.512     2.478
    41   1 H        0.925     0.035     2.512     2.478
    42   1 H        0.925     0.037     2.495     2.470
    43   1 H        0.925     0.035     2.519     2.482
    44   1 H        0.925     0.038     2.479     2.462
    45   1 H        0.925     0.032     2.562     2.503
    46   1 H        0.926     0.034     2.524     2.484
    47   1 H        0.926     0.034     2.524     2.484
    48   1 H        0.925     0.032     2.562     2.503
    49   1 H        0.925     0.035     2.519     2.482
    50   1 H        0.925     0.038     2.479     2.462
    51   1 H        0.925     0.038     2.479     2.462
    52   1 H        0.925     0.032     2.562     2.503
    53   1 H        0.925     0.035     2.519     2.482
    54   1 H        0.925     0.035     2.512     2.478
    55   1 H        0.925     0.035     2.512     2.478
    56   1 H        0.925     0.037     2.495     2.470
    57   1 H        0.926     0.030     2.586     2.515
    58   1 H        0.926     0.030     2.587     2.515
    59   1 H        0.925     0.038     2.479     2.462
    60   1 H        0.925     0.035     2.519     2.482
    61   1 H        0.925     0.032     2.561     2.503
    62   1 H        0.925     0.037     2.495     2.470
    63   1 H        0.925     0.035     2.512     2.478
    64   1 H        0.925     0.035     2.512     2.478
    65   1 H        0.925     0.038     2.479     2.462
    66   1 H        0.925     0.035     2.519     2.482
    67   1 H        0.925     0.032     2.562     2.503
    68   1 H        0.926     0.034     2.524     2.484
    69   1 H        0.926     0.034     2.524     2.484
    70   1 H        0.925     0.032     2.561     2.503
    71   1 H        0.925     0.038     2.479     2.462
    72   1 H        0.925     0.035     2.519     2.482
    73   1 H        0.925     0.037     2.495     2.470
    74   1 H        0.925     0.035     2.512     2.478
    75   1 H        0.925     0.035     2.512     2.478
    76   1 H        0.925     0.038     2.479     2.462
    77   1 H        0.925     0.035     2.519     2.482
    78   1 H        0.925     0.032     2.562     2.503
    79   1 H        0.926     0.030     2.587     2.515
    80   1 H        0.926     0.030     2.587     2.515

molecular dipole:
                 x           y           z       tot (Debye)
 q only:       -0.000      -0.000       0.001
   full:       -0.000      -0.000       0.001       0.002

 projected vibrational frequencies (cm⁻¹)
eigval :       -0.00    -0.00    -0.00     0.00     0.00     0.00
eigval :        0.65    29.06    30.48    32.32    33.40    42.38
eigval :       62.90    83.20    83.96    96.13    97.58   107.10
eigval :      121.01   134.45   153.52   172.03   172.94   179.47
eigval :      181.61   199.64   216.58   218.68   220.67   222.62
eigval :      224.05   228.23   232.81   235.50   249.46   256.11
eigval :      266.35   272.18   306.73   308.75   313.44   314.28
eigval :      318.65   320.28   322.04   323.07   333.32   345.28
eigval :      348.31   362.96   370.75   386.16   389.75   392.80
eigval :      404.97   414.97   425.09   430.92   457.67   473.29
eigval :      493.57   504.20   506.55   506.94   508.59   531.26
eigval :      544.93   560.19   586.95   597.70   607.57   626.94
eigval :      636.97   642.11   642.51   645.56   686.22   700.67
eigval :      701.12   726.19   753.74   817.17   818.54   827.48
eigval :      830.69   835.02   838.47   847.96   861.87   863.21
eigval :      872.40   872.44   876.92   882.49   936.86   956.09
eigval :      956.20   956.24   956.44   956.56   960.87   961.39
eigval :      962.45   962.53   962.59   962.91   963.06   964.38
eigval :      969.07   990.98  1029.37  1034.10  1034.19  1034.31
eigval :     1034.46  1034.69  1034.84  1035.53  1069.91  1071.09
eigval :     1141.71  1150.67  1176.09  1192.77  1202.08  1211.09
eigval :     1222.17  1223.73  1224.87  1224.91  1225.13  1225.17
eigval :     1231.97  1233.08  1234.35  1237.69  1271.07  1275.55
eigval :     1285.03  1288.35  1303.37  1303.42  1315.41  1365.62
eigval :     1380.79  1390.19  1394.19  1396.06  1398.39  1398.54
eigval :     1398.68  1400.16  1404.33  1404.41  1404.51  1404.58
eigval :     1414.42  1426.27  1426.96  1427.54  1428.30  1429.58
eigval :     1433.04  1447.33  1475.55  1489.92  1489.92  1490.24
eigval :     1490.27  1491.63  1491.76  1492.44  1492.68  1495.59
eigval :     1497.76  1498.55  1498.93  1500.73  1503.52  1503.57
eigval :     1504.35  1509.99  1510.08  1510.13  1510.30  1510.35
eigval :     1517.33  1517.40  1517.78  1517.98  1536.82  1564.51
eigval :     1592.60  1594.54  1595.14  1597.23  3018.57  3018.58
eigval :     3018.95  3018.99  3019.79  3019.82  3019.87  3019.93
eigval :     3022.66  3022.68  3022.72  3022.73  3024.15  3024.23
eigval :     3024.37  3024.61  3026.30  3026.31  3026.38  3026.58
eigval :     3029.81  3029.83  3029.92  3029.98  3034.66  3034.71
eigval :     3034.87  3034.93  3041.85  3041.88  3041.89  3041.97
eigval :     3045.04  3045.13  3045.27  3045.36  3099.70  3099.88
eigval :     3103.05  3103.96  3104.34  3105.17  3115.31  3116.93

   temp. (K)  partition function   enthalpy   heat capacity  entropy
                                   cal/mol     cal/K/mol   cal/K/mol   J/K/mol
 298.15  VIB  0.525E+14            20987.422    134.921    125.609
         ROT  0.955E+07              888.752      2.981     34.920
         INT  0.501E+21            21876.175    137.902    160.530
         TR   0.101E+29             1481.254      4.968     44.353
         TOT                       23357.4287   142.8697   204.8830   857.2303

       T/K    H(0)-H(T)+PV         H(T)/Eh          T*S/Eh         G(T)/Eh
   ------------------------------------------------------------------------
    298.15    0.372224E-01    0.727172E+00    0.973465E-01    0.629826E+00
   ------------------------------------------------------------------------

         :::::::::::::::::::::::::::::::::::::::::::::::::::::
         ::                  THERMODYNAMIC                  ::
         :::::::::::::::::::::::::::::::::::::::::::::::::::::
         :: total free energy         -99.040662084991 Eh   ::
         ::.................................................::
         :: total energy              -99.670487892352 Eh   ::
         :: zero point energy           0.689949881686 Eh   ::
         :: G(RRHO) w/o ZPVE           -0.060124074326 Eh   ::
         :: G(RRHO) contrib.            0.629825807360 Eh   ::
         :::::::::::::::::::::::::::::::::::::::::::::::::::::

           -------------------------------------------------
          | TOTAL ENERGY              -99.670487892352 Eh   |
          | TOTAL ENTHALPY            -98.943315578685 Eh   |
          | TOTAL FREE ENERGY         -99.040662084991 Eh   |
          | GRADIENT NORM               0.000107765136 Eh/α |
          | HOMO-LUMO GAP               1.930059175021 eV   |
           -------------------------------------------------

 * finished run on 2025/07/16 at 11:45:31.314
