   * xtb version 6.7.1 (edcfbbe) compiled by 'albert@albert-system' on 2024-07-22

   ID    Z sym.   atoms
    1    6 C      1-36
    2    1 H      37-80

          program call               : xtb data2507/toluene/TBPe/TBPe.xyz --gfn 2 --gbsa toluene --ohess vtight --parallel 40 --molden --ceasefiles --namespace data2507/toluene/TBPe/TBPe_toluene_S0_preOpt
      * Solvation model:               GBSA
        Solvent                        toluene
        Solvent mass                       9.2140E+01 g/mol
          :  Hamiltonian                  GFN2-xTB          :
 * total energy  :   -99.6551650 Eh     change       -0.4258737E-08 Eh
 * total energy  :   -99.6656301 Eh     change       -0.1046506E-01 Eh
 * total energy  :   -99.6688917 Eh     change       -0.3261635E-02 Eh
 * total energy  :   -99.6695201 Eh     change       -0.6284499E-03 Eh
 * total energy  :   -99.6698273 Eh     change       -0.3071404E-03 Eh
 * total energy  :   -99.6698960 Eh     change       -0.6873550E-04 Eh
 * total energy  :   -99.6699415 Eh     change       -0.4549676E-04 Eh
 * total energy  :   -99.6699884 Eh     change       -0.4691397E-04 Eh
 * total energy  :   -99.6700137 Eh     change       -0.2529122E-04 Eh
 * total energy  :   -99.6700291 Eh     change       -0.1535003E-04 Eh
 * total energy  :   -99.6700368 Eh     change       -0.7770104E-05 Eh
 * total energy  :   -99.6700407 Eh     change       -0.3862837E-05 Eh
 * total energy  :   -99.6700430 Eh     change       -0.2304698E-05 Eh
 * total energy  :   -99.6700445 Eh     change       -0.1456334E-05 Eh
 * total energy  :   -99.6700453 Eh     change       -0.8673031E-06 Eh
 * total energy  :   -99.6700458 Eh     change       -0.5169369E-06 Eh
 * total energy  :   -99.6700461 Eh     change       -0.2858555E-06 Eh
 * total energy  :   -99.6700463 Eh     change       -0.1343095E-06 Eh
 * total energy  :   -99.6700463 Eh     change       -0.3936691E-07 Eh
   *** GEOMETRY OPTIMIZATION CONVERGED AFTER 19 ITERATIONS ***

 final structure:
================
80
 xtb: 6.7.1 (edcfbbe)
C            4.37376899770676       -4.50732925414432        0.00025622497386
C            4.28089262684394       -2.97839463340832        0.00009212195034
C            4.99349287249994       -2.45803628623759       -1.25717067493677
C            4.99349373875911       -2.45776898021438        1.25724431037516
C            2.84221042244272       -2.48156036858286        0.00003276692367
C            1.75553803250038       -3.31896245570844        0.00006263644419
C            0.43868757990332       -2.81620903094804        0.00000883022071
C           -0.65550591762762       -3.70484240206320        0.00004346427359
C           -1.94909064315059       -3.24794125941030       -0.00003791498883
C           -3.16124900777646       -4.16835037122598       -0.00003384789559
C           -4.00030060683708       -3.89610559556095       -1.25746219083524
C           -4.00084511592513       -3.89546025031457        1.25689300069247
C           -2.77214975524156       -5.64980900481767        0.00045668059012
C           -2.15358558084696       -1.85935167660682       -0.00014406983270
C           -1.12161446013282       -0.94027089058653       -0.00011095827624
C           -1.35217391818097        0.50132791836748       -0.00009274973024
C           -2.62431220313821        1.04847262620484       -0.00001890806373
C           -2.86196694947571        2.42787191738731        0.00001340191719
C           -4.26765003871102        3.01492294797880        0.00008645553628
C           -4.44654316203553        3.88010758517860       -1.25641369636317
C           -5.36471963039935        1.94570553787348        0.00032458467123
C           -4.44631642945713        3.88040729938499        1.25641279612143
C           -1.77135298319761        3.26580643740219       -0.00003583474499
C           -0.45567471916849        2.76952100691347       -0.00007634592221
C            0.63905023743944        3.65874628623649       -0.00005511739862
C            1.93195968854546        3.20196994910914       -0.00010149764722
C            3.14437228835004        4.12201086249948       -0.00007319969762
C            3.98377770709529        3.84919319699749        1.25701289519577
C            3.98322607891453        3.84990281937704       -1.25767701092277
C            2.75581682532028        5.60360536876259        0.00045337695004
C            2.13620495124176        1.81257063210131       -0.00019144089103
C            1.10503463205204        0.89362931269467       -0.00014993392505
C            1.33586740272471       -0.54778561270108       -0.00010347908231
C            2.60314581120637       -1.09855774699280       -0.00005948097755
C            0.21495870709882       -1.41830150160892       -0.00006630063527
C           -0.23238516885747        1.37065134109050       -0.00010644513379
H            3.90400399811150       -4.92761655230455       -0.88624808169973
H            5.42003695416158       -4.80714708397364        0.00031175746620
H            3.90396304645122       -4.92742354236873        0.88683042401934
H            5.01637548575682       -1.37188810460902       -1.28292859857318
H            4.48126958421752       -2.80798986756318       -2.15158274385078
H            6.01951906848593       -2.81977558827128       -1.28259472364850
H            4.48124517413389       -2.80749982176472        2.15172889062935
H            6.01950675718749       -2.81953863947047        1.28276607210935
H            5.01641629245744       -1.37161617310963        1.28275590421974
H            1.87235072724041       -4.39085926526048        0.00012678346543
H           -0.43170973641816       -4.75964870382063        0.00013286305972
H           -3.40318952628847       -4.06550174170052       -2.15170699048364
H           -4.36389799919384       -2.87231335089639       -1.28127155939117
H           -4.86038280365541       -4.56226116728290       -1.28476656058965
H           -4.86074989706630       -4.56183773080096        1.28433771458557
H           -3.40402597553311       -4.06406414621032        2.15148246547083
H           -4.36475430577072       -2.87176301716608        1.27985324292429
H           -2.19430055037872       -5.90245635399653       -0.88580758912834
H           -2.19456166631615       -5.90193259763192        0.88704212403352
H           -3.67225715669205       -6.26162726475136        0.00049583432602
H           -3.17056026651079       -1.50499862853283       -0.00024296214151
H           -3.47170102692204        0.38721848795116        0.00002564215183
H           -5.45061334325578        4.29881488164100       -1.28395589270584
H           -3.73481865382468        4.70088302093587       -1.27633303834215
H           -4.29803779210102        3.27906973281930       -2.15176850406349
H           -6.33973916133063        2.42955614560986        0.00042462907504
H           -5.30315255581955        1.31962926432110       -0.88747237342337
H           -5.30289376688628        1.31977031262420        0.88820350354360
H           -5.45042132700867        4.29902197757861        1.28409607747637
H           -3.73467609747934        4.70126335548368        1.27595370748971
H           -4.29753094615622        3.27960942966685        2.15188216438458
H           -1.89791847225761        4.33857715654127       -0.00002985853135
H            0.41487340322791        4.71350224492430        0.00000732215935
H            4.34625951893016        2.82498488869882        1.28120371020786
H            4.84464279376462        4.51436254260872        1.28383916292358
H            3.38726110165379        4.01925810535785        2.15150405923199
H            4.84428948051645        4.51482378610654       -1.28431159461150
H            4.34535966292973        2.82558992592337       -1.28277831106187
H            3.38643176003984        4.02083665907978       -2.15181726925970
H            3.65608982496320        6.21517200549189        0.00052181097170
H            2.17828461803675        5.85578129428852        0.88706316164888
H            2.17804637646415        5.85636272392311       -0.88583344619236
H            3.15325547057980        1.45807510534406       -0.00027284884431
H            3.45835061707027       -0.44378842986007       -0.00008052996663

          :  Hamiltonian                  GFN2-xTB          :
         :: gradient norm              0.000091300438 Eh/a0 ::
         :: HOMO-LUMO gap              1.907912582900 eV    ::
         :: SCC energy              -101.396003225731 Eh    ::
         :: -> dispersion             -0.095690903818 Eh    ::
         :: -> Gsolv                  -0.036335358850 Eh    ::
         :: repulsion energy           1.725956917470 Eh    ::

    * Orbital Energies and Occupations

         #    Occupation            Energy/Eh            Energy/eV
      -------------------------------------------------------------
         1        2.0000           -0.6449797             -17.5508
       ...           ...                  ...                  ...
        82        2.0000           -0.4246915             -11.5564
        83        2.0000           -0.4192221             -11.4076
        84        2.0000           -0.4184159             -11.3857
        85        2.0000           -0.4173854             -11.3576
        86        2.0000           -0.4144235             -11.2770
        87        2.0000           -0.4073933             -11.0857
        88        2.0000           -0.3941658             -10.7258
        89        2.0000           -0.3913610             -10.6495
        90        2.0000           -0.3906644             -10.6305
        91        2.0000           -0.3880010             -10.5580
        92        2.0000           -0.3857394             -10.4965
        93        2.0000           -0.3835786             -10.4377
        94        2.0000           -0.3460138              -9.4155 (HOMO)
        95                         -0.2758993              -7.5076 (LUMO)
        96                         -0.2193685              -5.9693
        97                         -0.2160098              -5.8779
        98                         -0.2150631              -5.8522
        99                         -0.2133861              -5.8065
       100                         -0.1490655              -4.0563
       101                         -0.1474995              -4.0137
       102                         -0.1096678              -2.9842
       103                         -0.0664223              -1.8074
       104                         -0.0137213              -0.3734
       105                          0.0584752               1.5912
       ...                                ...                  ...
       188                          0.7493432              20.3907
      -------------------------------------------------------------
                  HL-Gap            0.0701145 Eh            1.9079 eV

     #   Z          covCN         q      C6AA      α(0)
     1   6 C        3.761    -0.106    22.578     6.774
     2   6 C        3.903     0.025    20.105     6.374
     3   6 C        3.761    -0.103    22.506     6.763
     4   6 C        3.761    -0.103    22.506     6.763
     5   6 C        2.967     0.005    27.918     8.667
     6   6 C        2.929    -0.051    29.271     8.873
     7   6 C        2.983     0.004    27.936     8.670
     8   6 C        2.929    -0.051    29.272     8.873
     9   6 C        2.967     0.005    27.914     8.666
    10   6 C        3.903     0.025    20.105     6.374
    11   6 C        3.761    -0.103    22.513     6.764
    12   6 C        3.761    -0.103    22.513     6.764
    13   6 C        3.761    -0.106    22.577     6.773
    14   6 C        2.931    -0.046    29.137     8.852
    15   6 C        2.972    -0.001    28.042     8.686
    16   6 C        2.972    -0.001    28.040     8.686
    17   6 C        2.929    -0.050    29.243     8.868
    18   6 C        2.966     0.005    27.916     8.666
    19   6 C        3.903     0.024    20.108     6.374
    20   6 C        3.761    -0.104    22.530     6.766
    21   6 C        3.761    -0.104    22.535     6.767
    22   6 C        3.761    -0.104    22.530     6.766
    23   6 C        2.931    -0.047    29.165     8.857
    24   6 C        2.982     0.004    27.933     8.669
    25   6 C        2.928    -0.051    29.267     8.872
    26   6 C        2.967     0.005    27.915     8.666
    27   6 C        3.903     0.025    20.104     6.374
    28   6 C        3.761    -0.103    22.505     6.763
    29   6 C        3.761    -0.103    22.505     6.763
    30   6 C        3.761    -0.106    22.575     6.773
    31   6 C        2.931    -0.045    29.123     8.850
    32   6 C        2.971    -0.000    28.037     8.685
    33   6 C        2.972    -0.001    28.041     8.686
    34   6 C        2.931    -0.045    29.124     8.850
    35   6 C        2.998    -0.006    28.154     8.704
    36   6 C        2.997    -0.006    28.152     8.704
    37   1 H        0.925     0.035     2.512     2.479
    38   1 H        0.925     0.037     2.494     2.470
    39   1 H        0.925     0.035     2.512     2.479
    40   1 H        0.925     0.035     2.519     2.482
    41   1 H        0.925     0.032     2.562     2.503
    42   1 H        0.925     0.038     2.480     2.463
    43   1 H        0.925     0.032     2.562     2.503
    44   1 H        0.925     0.038     2.480     2.463
    45   1 H        0.925     0.035     2.519     2.482
    46   1 H        0.926     0.034     2.525     2.485
    47   1 H        0.926     0.034     2.526     2.486
    48   1 H        0.925     0.032     2.564     2.504
    49   1 H        0.925     0.036     2.508     2.476
    50   1 H        0.925     0.038     2.480     2.462
    51   1 H        0.925     0.038     2.480     2.462
    52   1 H        0.925     0.032     2.564     2.504
    53   1 H        0.925     0.036     2.508     2.476
    54   1 H        0.925     0.035     2.514     2.480
    55   1 H        0.925     0.035     2.514     2.480
    56   1 H        0.925     0.037     2.495     2.470
    57   1 H        0.926     0.032     2.554     2.499
    58   1 H        0.926     0.038     2.479     2.462
    59   1 H        0.925     0.038     2.479     2.462
    60   1 H        0.925     0.036     2.505     2.475
    61   1 H        0.925     0.032     2.561     2.503
    62   1 H        0.925     0.036     2.500     2.472
    63   1 H        0.925     0.034     2.524     2.484
    64   1 H        0.925     0.034     2.524     2.484
    65   1 H        0.925     0.038     2.479     2.462
    66   1 H        0.925     0.036     2.505     2.475
    67   1 H        0.925     0.032     2.561     2.503
    68   1 H        0.926     0.027     2.629     2.536
    69   1 H        0.926     0.033     2.538     2.491
    70   1 H        0.925     0.035     2.518     2.482
    71   1 H        0.925     0.038     2.479     2.462
    72   1 H        0.925     0.032     2.561     2.503
    73   1 H        0.925     0.038     2.479     2.462
    74   1 H        0.925     0.035     2.518     2.482
    75   1 H        0.925     0.032     2.561     2.503
    76   1 H        0.925     0.037     2.494     2.470
    77   1 H        0.925     0.035     2.515     2.480
    78   1 H        0.925     0.035     2.515     2.480
    79   1 H        0.926     0.030     2.587     2.515
    80   1 H        0.926     0.030     2.588     2.516

molecular dipole:
                 x           y           z       tot (Debye)
 q only:       -0.018      -0.016       0.000
   full:       -0.007       0.002       0.000       0.019

 projected vibrational frequencies (cm⁻¹)
eigval :       -0.00    -0.00    -0.00     0.00     0.00     0.00
eigval :       -5.76    27.20    30.04    35.54    36.34    42.17
eigval :       59.96    82.51    84.10    95.45    96.48   106.91
eigval :      120.38   135.13   156.24   160.43   165.15   170.65
eigval :      178.81   201.95   208.21   211.25   213.89   214.58
eigval :      223.61   226.26   228.23   235.20   246.95   261.27
eigval :      265.75   271.56   303.98   311.22   315.35   316.08
eigval :      320.27   321.04   327.42   330.18   337.59   343.05
eigval :      348.17   359.06   369.64   386.55   390.58   394.08
eigval :      405.88   415.78   424.57   428.96   459.01   472.90
eigval :      493.71   504.05   506.65   507.24   509.83   532.26
eigval :      544.29   559.87   585.78   597.59   606.65   625.87
eigval :      636.78   641.93   642.52   645.68   686.33   700.35
eigval :      701.64   725.98   753.47   817.84   819.32   828.05
eigval :      830.47   830.99   838.75   845.89   863.51   863.54
eigval :      872.41   872.89   878.36   883.39   937.30   957.59
eigval :      958.72   958.84   958.93   959.75   960.25   961.24
eigval :      961.97   962.14   962.41   962.89   963.06   965.54
eigval :      967.77   990.49  1030.48  1033.40  1033.53  1034.24
eigval :     1034.93  1035.73  1036.23  1036.77  1070.11  1070.69
eigval :     1143.42  1151.55  1176.86  1192.01  1203.82  1209.89
eigval :     1222.15  1225.17  1225.29  1225.42  1225.56  1225.71
eigval :     1231.93  1233.20  1234.24  1238.30  1272.21  1276.47
eigval :     1285.45  1290.68  1304.13  1305.74  1316.23  1361.87
eigval :     1381.74  1386.87  1395.23  1397.24  1400.16  1401.25
eigval :     1402.47  1403.09  1403.23  1403.55  1403.61  1403.95
eigval :     1416.29  1426.09  1427.18  1427.81  1428.07  1429.49
eigval :     1432.49  1447.61  1475.71  1488.31  1488.92  1489.11
eigval :     1489.58  1490.59  1491.15  1491.70  1493.59  1495.64
eigval :     1497.20  1498.06  1498.75  1500.93  1502.01  1502.77
eigval :     1503.46  1510.34  1510.81  1510.94  1511.05  1513.23
eigval :     1516.57  1516.73  1517.64  1519.38  1535.56  1563.06
eigval :     1589.08  1593.47  1595.26  1596.87  3015.93  3018.17
eigval :     3018.51  3018.54  3018.93  3019.07  3019.29  3019.41
eigval :     3021.06  3022.15  3022.39  3022.40  3023.28  3023.73
eigval :     3023.81  3024.16  3025.22  3025.76  3025.94  3026.07
eigval :     3027.38  3029.60  3029.99  3030.01  3032.49  3034.26
eigval :     3034.83  3034.89  3042.14  3042.60  3042.96  3044.25
eigval :     3045.43  3045.92  3046.30  3047.26  3073.90  3099.98
eigval :     3100.66  3103.32  3104.44  3110.71  3115.82  3144.40

   temp. (K)  partition function   enthalpy   heat capacity  entropy
                                   cal/mol     cal/K/mol   cal/K/mol   J/K/mol
 298.15  VIB  0.222E+16            21620.712    135.968    131.880
         ROT  0.383E+08              888.752      2.981     37.681
         INT  0.850E+23            22509.464    138.949    169.561
         TR   0.101E+29             1481.254      4.968     44.353
         TOT                       23990.7180   143.9171   213.9142   895.0170

       T/K    H(0)-H(T)+PV         H(T)/Eh          T*S/Eh         G(T)/Eh
   ------------------------------------------------------------------------
    298.15    0.382316E-01    0.728124E+00    0.101638E+00    0.626486E+00
   ------------------------------------------------------------------------

         :::::::::::::::::::::::::::::::::::::::::::::::::::::
         ::                  THERMODYNAMIC                  ::
         :::::::::::::::::::::::::::::::::::::::::::::::::::::
         :: total free energy         -99.043559835874 Eh   ::
         ::.................................................::
         :: total energy              -99.670046309105 Eh   ::
         :: zero point energy           0.689892365329 Eh   ::
         :: G(RRHO) w/o ZPVE           -0.063405892098 Eh   ::
         :: G(RRHO) contrib.            0.626486473231 Eh   ::
         :::::::::::::::::::::::::::::::::::::::::::::::::::::

           -------------------------------------------------
          | TOTAL ENERGY              -99.670046309105 Eh   |
          | TOTAL ENTHALPY            -98.941922301141 Eh   |
          | TOTAL FREE ENERGY         -99.043559835874 Eh   |
          | GRADIENT NORM               0.000091332792 Eh/α |
          | HOMO-LUMO GAP               1.907912690885 eV   |
           -------------------------------------------------

 * finished run on 2025/07/16 at 11:39:17.995
